MODEL 1
REMARK VINA RESULT:    -4.961      0.000      0.000
REMARK INTER + INTRA:          -5.785
REMARK INTER:                  -5.588
REMARK INTRA:                  -0.197
REMARK UNBOUND:                -0.244
REMARK  Name = /home/anacleto/Desktop/manuscript_Mpro/naturecomm/supplementary_file_S2/6-chemical-library/molecular_docking/3D_ligand_structure/898.pdb
REMARK  2 active torsions:
REMARK  status: ('A' for Active; 'I' for Inactive)
REMARK    1  A    between atoms: C2_5  and  C4_8
REMARK    2  A    between atoms: C4_8  and  C5_9
REMARK                            x       y       z     vdW  Elec       q    Type
REMARK                         _______ _______ _______ _____ _____    ______ ____
ROOT
ATOM      1  N1  UNL     1      13.969  15.858  -1.191  0.00  0.00    +0.000 N 
ATOM      2  C1  UNL     1      12.959  15.743  -2.079  0.00  0.00    +0.000 C 
ATOM      3  O1  UNL     1      11.829  16.175  -1.949  0.00  0.00    +0.000 OA
ATOM      4  N2  UNL     1      13.425  15.075  -3.184  0.00  0.00    +0.000 N 
ATOM      5  C2  UNL     1      14.845  14.802  -3.108  0.00  0.00    +0.000 C 
ATOM      6  C3  UNL     1      15.130  15.381  -1.716  0.00  0.00    +0.000 C 
ATOM      7  O2  UNL     1      16.215  15.430  -1.158  0.00  0.00    +0.000 OA
ATOM      8  H1  UNL     1      13.893  16.339  -0.312  0.00  0.00    +0.000 HD
ATOM      9  H2  UNL     1      12.848  14.992  -4.013  0.00  0.00    +0.000 HD
ENDROOT
BRANCH   5  10
ATOM     10  C4  UNL     1      15.129  13.304  -3.221  0.00  0.00    +0.000 C 
BRANCH  10  11
ATOM     11  C5  UNL     1      14.390  12.626  -4.390  0.00  0.00    +0.000 C 
ATOM     12  C6  UNL     1      14.917  13.053  -5.768  0.00  0.00    +0.000 C 
ATOM     13  C7  UNL     1      14.633  12.006  -6.847  0.00  0.00    +0.000 C 
ATOM     14  C8  UNL     1      13.446  11.137  -6.470  0.00  0.00    +0.000 C 
ATOM     15  O3  UNL     1      13.643  10.435  -5.243  0.00  0.00    +0.000 OA
ATOM     16  C9  UNL     1      14.462  11.100  -4.279  0.00  0.00    +0.000 C 
ENDBRANCH  10  11
ENDBRANCH   5  10
TORSDOF 2
ENDMDL
MODEL 2
REMARK VINA RESULT:    -4.720      3.873      4.847
REMARK INTER + INTRA:          -5.517
REMARK INTER:                  -5.255
REMARK INTRA:                  -0.262
REMARK UNBOUND:                -0.244
REMARK  Name = /home/anacleto/Desktop/manuscript_Mpro/naturecomm/supplementary_file_S2/6-chemical-library/molecular_docking/3D_ligand_structure/898.pdb
REMARK  2 active torsions:
REMARK  status: ('A' for Active; 'I' for Inactive)
REMARK    1  A    between atoms: C2_5  and  C4_8
REMARK    2  A    between atoms: C4_8  and  C5_9
REMARK                            x       y       z     vdW  Elec       q    Type
REMARK                         _______ _______ _______ _____ _____    ______ ____
ROOT
ATOM      1  N1  UNL     1      18.469  11.321  -2.733  0.00  0.00    +0.000 N 
ATOM      2  C1  UNL     1      18.339  10.356  -3.669  0.00  0.00    +0.000 C 
ATOM      3  O1  UNL     1      19.214   9.939  -4.404  0.00  0.00    +0.000 OA
ATOM      4  N2  UNL     1      17.047   9.893  -3.638  0.00  0.00    +0.000 N 
ATOM      5  C2  UNL     1      16.270  10.486  -2.569  0.00  0.00    +0.000 C 
ATOM      6  C3  UNL     1      17.329  11.441  -2.001  0.00  0.00    +0.000 C 
ATOM      7  O2  UNL     1      17.195  12.184  -1.042  0.00  0.00    +0.000 OA
ATOM      8  H1  UNL     1      19.331  11.797  -2.532  0.00  0.00    +0.000 HD
ATOM      9  H2  UNL     1      16.781   9.084  -4.186  0.00  0.00    +0.000 HD
ENDROOT
BRANCH   5  10
ATOM     10  C4  UNL     1      15.030  11.194  -3.113  0.00  0.00    +0.000 C 
BRANCH  10  11
ATOM     11  C5  UNL     1      14.907  11.127  -4.646  0.00  0.00    +0.000 C 
ATOM     12  C6  UNL     1      13.597  10.479  -5.120  0.00  0.00    +0.000 C 
ATOM     13  C7  UNL     1      13.206  10.926  -6.530  0.00  0.00    +0.000 C 
ATOM     14  C8  UNL     1      14.421  11.386  -7.317  0.00  0.00    +0.000 C 
ATOM     15  O3  UNL     1      15.096  12.482  -6.699  0.00  0.00    +0.000 OA
ATOM     16  C9  UNL     1      15.029  12.520  -5.272  0.00  0.00    +0.000 C 
ENDBRANCH  10  11
ENDBRANCH   5  10
TORSDOF 2
ENDMDL
MODEL 3
REMARK VINA RESULT:    -4.676      2.560      5.312
REMARK INTER + INTRA:          -5.467
REMARK INTER:                  -5.161
REMARK INTRA:                  -0.306
REMARK UNBOUND:                -0.244
REMARK  Name = /home/anacleto/Desktop/manuscript_Mpro/naturecomm/supplementary_file_S2/6-chemical-library/molecular_docking/3D_ligand_structure/898.pdb
REMARK  2 active torsions:
REMARK  status: ('A' for Active; 'I' for Inactive)
REMARK    1  A    between atoms: C2_5  and  C4_8
REMARK    2  A    between atoms: C4_8  and  C5_9
REMARK                            x       y       z     vdW  Elec       q    Type
REMARK                         _______ _______ _______ _____ _____    ______ ____
ROOT
ATOM      1  N1  UNL     1      14.124  10.443  -5.221  0.00  0.00    +0.000 N 
ATOM      2  C1  UNL     1      13.379  11.060  -6.163  0.00  0.00    +0.000 C 
ATOM      3  O1  UNL     1      12.776  10.523  -7.073  0.00  0.00    +0.000 OA
ATOM      4  N2  UNL     1      13.386  12.409  -5.908  0.00  0.00    +0.000 N 
ATOM      5  C2  UNL     1      14.080  12.738  -4.680  0.00  0.00    +0.000 C 
ATOM      6  C3  UNL     1      14.542  11.330  -4.278  0.00  0.00    +0.000 C 
ATOM      7  O2  UNL     1      15.168  11.031  -3.273  0.00  0.00    +0.000 OA
ATOM      8  H1  UNL     1      14.249   9.448  -5.166  0.00  0.00    +0.000 HD
ATOM      9  H2  UNL     1      12.787  13.032  -6.435  0.00  0.00    +0.000 HD
ENDROOT
BRANCH   5  10
ATOM     10  C4  UNL     1      15.229  13.712  -4.936  0.00  0.00    +0.000 C 
BRANCH  10  11
ATOM     11  C5  UNL     1      15.401  14.764  -3.825  0.00  0.00    +0.000 C 
ATOM     12  C6  UNL     1      14.173  14.885  -2.911  0.00  0.00    +0.000 C 
ATOM     13  C7  UNL     1      14.530  15.441  -1.530  0.00  0.00    +0.000 C 
ATOM     14  C8  UNL     1      15.806  16.263  -1.583  0.00  0.00    +0.000 C 
ATOM     15  O3  UNL     1      16.930  15.509  -2.037  0.00  0.00    +0.000 OA
ATOM     16  C9  UNL     1      16.635  14.464  -2.966  0.00  0.00    +0.000 C 
ENDBRANCH  10  11
ENDBRANCH   5  10
TORSDOF 2
ENDMDL
MODEL 4
REMARK VINA RESULT:    -4.598      1.099      2.171
REMARK INTER + INTRA:          -5.380
REMARK INTER:                  -5.174
REMARK INTRA:                  -0.206
REMARK UNBOUND:                -0.244
REMARK  Name = /home/anacleto/Desktop/manuscript_Mpro/naturecomm/supplementary_file_S2/6-chemical-library/molecular_docking/3D_ligand_structure/898.pdb
REMARK  2 active torsions:
REMARK  status: ('A' for Active; 'I' for Inactive)
REMARK    1  A    between atoms: C2_5  and  C4_8
REMARK    2  A    between atoms: C4_8  and  C5_9
REMARK                            x       y       z     vdW  Elec       q    Type
REMARK                         _______ _______ _______ _____ _____    ______ ____
ROOT
ATOM      1  N1  UNL     1      14.694  15.905  -1.169  0.00  0.00    +0.000 N 
ATOM      2  C1  UNL     1      15.868  15.278  -0.944  0.00  0.00    +0.000 C 
ATOM      3  O1  UNL     1      16.713  15.596  -0.129  0.00  0.00    +0.000 OA
ATOM      4  N2  UNL     1      15.945  14.188  -1.776  0.00  0.00    +0.000 N 
ATOM      5  C2  UNL     1      14.732  13.988  -2.541  0.00  0.00    +0.000 C 
ATOM      6  C3  UNL     1      13.933  15.204  -2.052  0.00  0.00    +0.000 C 
ATOM      7  O2  UNL     1      12.794  15.503  -2.378  0.00  0.00    +0.000 OA
ATOM      8  H1  UNL     1      14.382  16.714  -0.661  0.00  0.00    +0.000 HD
ATOM      9  H2  UNL     1      16.700  13.521  -1.676  0.00  0.00    +0.000 HD
ENDROOT
BRANCH   5  10
ATOM     10  C4  UNL     1      15.014  14.000  -4.043  0.00  0.00    +0.000 C 
BRANCH  10  11
ATOM     11  C5  UNL     1      14.291  12.880  -4.813  0.00  0.00    +0.000 C 
ATOM     12  C6  UNL     1      14.724  12.779  -6.283  0.00  0.00    +0.000 C 
ATOM     13  C7  UNL     1      14.489  11.383  -6.862  0.00  0.00    +0.000 C 
ATOM     14  C8  UNL     1      13.397  10.649  -6.102  0.00  0.00    +0.000 C 
ATOM     15  O3  UNL     1      13.702  10.486  -4.718  0.00  0.00    +0.000 OA
ATOM     16  C9  UNL     1      14.499  11.521  -4.136  0.00  0.00    +0.000 C 
ENDBRANCH  10  11
ENDBRANCH   5  10
TORSDOF 2
ENDMDL
MODEL 5
REMARK VINA RESULT:    -4.575      2.978      5.167
REMARK INTER + INTRA:          -5.354
REMARK INTER:                  -5.041
REMARK INTRA:                  -0.313
REMARK UNBOUND:                -0.244
REMARK  Name = /home/anacleto/Desktop/manuscript_Mpro/naturecomm/supplementary_file_S2/6-chemical-library/molecular_docking/3D_ligand_structure/898.pdb
REMARK  2 active torsions:
REMARK  status: ('A' for Active; 'I' for Inactive)
REMARK    1  A    between atoms: C2_5  and  C4_8
REMARK    2  A    between atoms: C4_8  and  C5_9
REMARK                            x       y       z     vdW  Elec       q    Type
REMARK                         _______ _______ _______ _____ _____    ______ ____
ROOT
ATOM      1  N1  UNL     1      13.350  12.484  -5.512  0.00  0.00    +0.000 N 
ATOM      2  C1  UNL     1      13.471  11.238  -6.017  0.00  0.00    +0.000 C 
ATOM      3  O1  UNL     1      12.767  10.732  -6.870  0.00  0.00    +0.000 OA
ATOM      4  N2  UNL     1      14.553  10.633  -5.426  0.00  0.00    +0.000 N 
ATOM      5  C2  UNL     1      15.277  11.528  -4.548  0.00  0.00    +0.000 C 
ATOM      6  C3  UNL     1      14.385  12.770  -4.678  0.00  0.00    +0.000 C 
ATOM      7  O2  UNL     1      14.566  13.853  -4.142  0.00  0.00    +0.000 OA
ATOM      8  H1  UNL     1      12.654  13.145  -5.808  0.00  0.00    +0.000 HD
ATOM      9  H2  UNL     1      14.880   9.734  -5.758  0.00  0.00    +0.000 HD
ENDROOT
BRANCH   5  10
ATOM     10  C4  UNL     1      15.352  10.970  -3.127  0.00  0.00    +0.000 C 
BRANCH  10  11
ATOM     11  C5  UNL     1      16.657  11.330  -2.394  0.00  0.00    +0.000 C 
ATOM     12  C6  UNL     1      17.808  11.685  -3.347  0.00  0.00    +0.000 C 
ATOM     13  C7  UNL     1      18.859  12.577  -2.681  0.00  0.00    +0.000 C 
ATOM     14  C8  UNL     1      18.843  12.409  -1.171  0.00  0.00    +0.000 C 
ATOM     15  O3  UNL     1      17.581  12.740  -0.592  0.00  0.00    +0.000 OA
ATOM     16  C9  UNL     1      16.441  12.491  -1.418  0.00  0.00    +0.000 C 
ENDBRANCH  10  11
ENDBRANCH   5  10
TORSDOF 2
ENDMDL
MODEL 6
REMARK VINA RESULT:    -4.574      3.932      5.240
REMARK INTER + INTRA:          -5.353
REMARK INTER:                  -5.092
REMARK INTRA:                  -0.262
REMARK UNBOUND:                -0.244
REMARK  Name = /home/anacleto/Desktop/manuscript_Mpro/naturecomm/supplementary_file_S2/6-chemical-library/molecular_docking/3D_ligand_structure/898.pdb
REMARK  2 active torsions:
REMARK  status: ('A' for Active; 'I' for Inactive)
REMARK    1  A    between atoms: C2_5  and  C4_8
REMARK    2  A    between atoms: C4_8  and  C5_9
REMARK                            x       y       z     vdW  Elec       q    Type
REMARK                         _______ _______ _______ _____ _____    ______ ____
ROOT
ATOM      1  N1  UNL     1      13.821  10.218  -5.498  0.00  0.00    +0.000 N 
ATOM      2  C1  UNL     1      13.490  10.723  -6.705  0.00  0.00    +0.000 C 
ATOM      3  O1  UNL     1      12.780  10.195  -7.540  0.00  0.00    +0.000 OA
ATOM      4  N2  UNL     1      14.068  11.962  -6.831  0.00  0.00    +0.000 N 
ATOM      5  C2  UNL     1      14.746  12.383  -5.622  0.00  0.00    +0.000 C 
ATOM      6  C3  UNL     1      14.516  11.130  -4.766  0.00  0.00    +0.000 C 
ATOM      7  O2  UNL     1      14.875  10.965  -3.611  0.00  0.00    +0.000 OA
ATOM      8  H1  UNL     1      13.494   9.334  -5.150  0.00  0.00    +0.000 HD
ATOM      9  H2  UNL     1      13.841  12.555  -7.620  0.00  0.00    +0.000 HD
ENDROOT
BRANCH   5  10
ATOM     10  C4  UNL     1      16.220  12.684  -5.889  0.00  0.00    +0.000 C 
BRANCH  10  11
ATOM     11  C5  UNL     1      16.988  11.496  -6.498  0.00  0.00    +0.000 C 
ATOM     12  C6  UNL     1      17.515  11.777  -7.913  0.00  0.00    +0.000 C 
ATOM     13  C7  UNL     1      18.718  10.902  -8.268  0.00  0.00    +0.000 C 
ATOM     14  C8  UNL     1      18.730   9.625  -7.446  0.00  0.00    +0.000 C 
ATOM     15  O3  UNL     1      18.789   9.873  -6.042  0.00  0.00    +0.000 OA
ATOM     16  C9  UNL     1      18.160  11.079  -5.603  0.00  0.00    +0.000 C 
ENDBRANCH  10  11
ENDBRANCH   5  10
TORSDOF 2
ENDMDL
MODEL 7
REMARK VINA RESULT:    -4.551     15.750     16.995
REMARK INTER + INTRA:          -5.327
REMARK INTER:                  -5.069
REMARK INTRA:                  -0.258
REMARK UNBOUND:                -0.244
REMARK  Name = /home/anacleto/Desktop/manuscript_Mpro/naturecomm/supplementary_file_S2/6-chemical-library/molecular_docking/3D_ligand_structure/898.pdb
REMARK  2 active torsions:
REMARK  status: ('A' for Active; 'I' for Inactive)
REMARK    1  A    between atoms: C2_5  and  C4_8
REMARK    2  A    between atoms: C4_8  and  C5_9
REMARK                            x       y       z     vdW  Elec       q    Type
REMARK                         _______ _______ _______ _____ _____    ______ ____
ROOT
ATOM      1  N1  UNL     1      15.960   2.584  10.080  0.00  0.00    +0.000 N 
ATOM      2  C1  UNL     1      15.851   2.616   8.735  0.00  0.00    +0.000 C 
ATOM      3  O1  UNL     1      15.035   2.016   8.062  0.00  0.00    +0.000 OA
ATOM      4  N2  UNL     1      16.806   3.471   8.242  0.00  0.00    +0.000 N 
ATOM      5  C2  UNL     1      17.545   4.142   9.292  0.00  0.00    +0.000 C 
ATOM      6  C3  UNL     1      16.891   3.477  10.511  0.00  0.00    +0.000 C 
ATOM      7  O2  UNL     1      17.139   3.710  11.684  0.00  0.00    +0.000 OA
ATOM      8  H1  UNL     1      15.352   2.057  10.681  0.00  0.00    +0.000 HD
ATOM      9  H2  UNL     1      16.810   3.721   7.261  0.00  0.00    +0.000 HD
ENDROOT
BRANCH   5  10
ATOM     10  C4  UNL     1      19.044   3.871   9.174  0.00  0.00    +0.000 C 
BRANCH  10  11
ATOM     11  C5  UNL     1      19.893   5.152   9.075  0.00  0.00    +0.000 C 
ATOM     12  C6  UNL     1      19.250   6.238   8.200  0.00  0.00    +0.000 C 
ATOM     13  C7  UNL     1      19.744   7.640   8.560  0.00  0.00    +0.000 C 
ATOM     14  C8  UNL     1      21.109   7.588   9.225  0.00  0.00    +0.000 C 
ATOM     15  O3  UNL     1      21.108   6.819  10.428  0.00  0.00    +0.000 OA
ATOM     16  C9  UNL     1      20.179   5.733  10.464  0.00  0.00    +0.000 C 
ENDBRANCH  10  11
ENDBRANCH   5  10
TORSDOF 2
ENDMDL
MODEL 8
REMARK VINA RESULT:    -4.479     17.595     18.682
REMARK INTER + INTRA:          -5.246
REMARK INTER:                  -4.968
REMARK INTRA:                  -0.279
REMARK UNBOUND:                -0.244
REMARK  Name = /home/anacleto/Desktop/manuscript_Mpro/naturecomm/supplementary_file_S2/6-chemical-library/molecular_docking/3D_ligand_structure/898.pdb
REMARK  2 active torsions:
REMARK  status: ('A' for Active; 'I' for Inactive)
REMARK    1  A    between atoms: C2_5  and  C4_8
REMARK    2  A    between atoms: C4_8  and  C5_9
REMARK                            x       y       z     vdW  Elec       q    Type
REMARK                         _______ _______ _______ _____ _____    ______ ____
ROOT
ATOM      1  N1  UNL     1      27.528  14.410   9.862  0.00  0.00    +0.000 N 
ATOM      2  C1  UNL     1      27.159  14.287   8.569  0.00  0.00    +0.000 C 
ATOM      3  O1  UNL     1      27.831  13.828   7.665  0.00  0.00    +0.000 OA
ATOM      4  N2  UNL     1      25.870  14.745   8.440  0.00  0.00    +0.000 N 
ATOM      5  C2  UNL     1      25.281  15.106   9.713  0.00  0.00    +0.000 C 
ATOM      6  C3  UNL     1      26.486  14.836  10.625  0.00  0.00    +0.000 C 
ATOM      7  O2  UNL     1      26.519  14.960  11.839  0.00  0.00    +0.000 OA
ATOM      8  H1  UNL     1      28.417  14.112  10.223  0.00  0.00    +0.000 HD
ATOM      9  H2  UNL     1      25.371  14.627   7.567  0.00  0.00    +0.000 HD
ENDROOT
BRANCH   5  10
ATOM     10  C4  UNL     1      24.821  16.564   9.717  0.00  0.00    +0.000 C 
BRANCH  10  11
ATOM     11  C5  UNL     1      23.718  16.857  10.750  0.00  0.00    +0.000 C 
ATOM     12  C6  UNL     1      22.987  15.594  11.229  0.00  0.00    +0.000 C 
ATOM     13  C7  UNL     1      22.352  15.780  12.609  0.00  0.00    +0.000 C 
ATOM     14  C8  UNL     1      22.079  17.246  12.895  0.00  0.00    +0.000 C 
ATOM     15  O3  UNL     1      23.263  18.044  12.864  0.00  0.00    +0.000 OA
ATOM     16  C9  UNL     1      24.282  17.599  11.966  0.00  0.00    +0.000 C 
ENDBRANCH  10  11
ENDBRANCH   5  10
TORSDOF 2
ENDMDL
MODEL 9
REMARK VINA RESULT:    -4.397      2.953      5.479
REMARK INTER + INTRA:          -5.155
REMARK INTER:                  -4.911
REMARK INTRA:                  -0.244
REMARK UNBOUND:                -0.244
REMARK  Name = /home/anacleto/Desktop/manuscript_Mpro/naturecomm/supplementary_file_S2/6-chemical-library/molecular_docking/3D_ligand_structure/898.pdb
REMARK  2 active torsions:
REMARK  status: ('A' for Active; 'I' for Inactive)
REMARK    1  A    between atoms: C2_5  and  C4_8
REMARK    2  A    between atoms: C4_8  and  C5_9
REMARK                            x       y       z     vdW  Elec       q    Type
REMARK                         _______ _______ _______ _____ _____    ______ ____
ROOT
ATOM      1  N1  UNL     1      13.459  15.250  -3.168  0.00  0.00    +0.000 N 
ATOM      2  C1  UNL     1      12.843  15.765  -2.083  0.00  0.00    +0.000 C 
ATOM      3  O1  UNL     1      11.664  16.047  -1.986  0.00  0.00    +0.000 OA
ATOM      4  N2  UNL     1      13.770  15.895  -1.078  0.00  0.00    +0.000 N 
ATOM      5  C2  UNL     1      15.063  15.354  -1.443  0.00  0.00    +0.000 C 
ATOM      6  C3  UNL     1      14.750  14.929  -2.884  0.00  0.00    +0.000 C 
ATOM      7  O2  UNL     1      15.515  14.378  -3.660  0.00  0.00    +0.000 OA
ATOM      8  H1  UNL     1      12.989  15.027  -4.028  0.00  0.00    +0.000 HD
ATOM      9  H2  UNL     1      13.478  16.155  -0.143  0.00  0.00    +0.000 HD
ENDROOT
BRANCH   5  10
ATOM     10  C4  UNL     1      16.158  16.415  -1.338  0.00  0.00    +0.000 C 
BRANCH  10  11
ATOM     11  C5  UNL     1      17.523  15.848  -0.906  0.00  0.00    +0.000 C 
ATOM     12  C6  UNL     1      18.234  16.715   0.143  0.00  0.00    +0.000 C 
ATOM     13  C7  UNL     1      19.234  15.913   0.977  0.00  0.00    +0.000 C 
ATOM     14  C8  UNL     1      19.711  14.681   0.228  0.00  0.00    +0.000 C 
ATOM     15  O3  UNL     1      18.644  13.797  -0.117  0.00  0.00    +0.000 OA
ATOM     16  C9  UNL     1      17.382  14.422  -0.363  0.00  0.00    +0.000 C 
ENDBRANCH  10  11
ENDBRANCH   5  10
TORSDOF 2
ENDMDL
