MODEL 1
REMARK VINA RESULT:    -4.419      0.000      0.000
REMARK INTER + INTRA:          -4.419
REMARK INTER:                  -4.419
REMARK INTRA:                   0.000
REMARK UNBOUND:                 0.000
REMARK  Name = /home/anacleto/Desktop/manuscript_Mpro/naturecomm/supplementary_file_S2/6-chemical-library/molecular_docking/3D_ligand_structure/154.pdb
REMARK  0 active torsions:
REMARK  status: ('A' for Active; 'I' for Inactive)
REMARK                            x       y       z     vdW  Elec       q    Type
REMARK                         _______ _______ _______ _____ _____    ______ ____
ROOT
ATOM      1  N1  UNL     1      14.692  10.954  -7.572  0.00  0.00    +0.000 N 
ATOM      2  C1  UNL     1      13.386  10.593  -7.345  0.00  0.00    +0.000 C 
ATOM      3  O1  UNL     1      12.778   9.737  -7.960  0.00  0.00    +0.000 OA
ATOM      4  N2  UNL     1      12.908  11.335  -6.319  0.00  0.00    +0.000 N 
ATOM      5  C2  UNL     1      13.883  12.126  -5.793  0.00  0.00    +0.000 C 
ATOM      6  O2  UNL     1      13.745  12.862  -4.828  0.00  0.00    +0.000 OA
ATOM      7  C3  UNL     1      15.166  11.921  -6.602  0.00  0.00    +0.000 C 
ATOM      8  C4  UNL     1      15.659  13.210  -7.246  0.00  0.00    +0.000 C 
ATOM      9  C5  UNL     1      17.035  12.915  -7.822  0.00  0.00    +0.000 C 
ATOM     10  S1  UNL     1      17.813  11.753  -6.661  0.00  0.00    +0.000 S 
ATOM     11  C6  UNL     1      16.293  11.401  -5.720  0.00  0.00    +0.000 C 
ATOM     12  H1  UNL     1      15.265  10.447  -8.235  0.00  0.00    +0.000 HD
ATOM     13  H2  UNL     1      11.978  11.247  -5.950  0.00  0.00    +0.000 HD
ENDROOT
TORSDOF 0
ENDMDL
MODEL 2
REMARK VINA RESULT:    -4.285      3.004      3.967
REMARK INTER + INTRA:          -4.285
REMARK INTER:                  -4.285
REMARK INTRA:                   0.000
REMARK UNBOUND:                 0.000
REMARK  Name = /home/anacleto/Desktop/manuscript_Mpro/naturecomm/supplementary_file_S2/6-chemical-library/molecular_docking/3D_ligand_structure/154.pdb
REMARK  0 active torsions:
REMARK  status: ('A' for Active; 'I' for Inactive)
REMARK                            x       y       z     vdW  Elec       q    Type
REMARK                         _______ _______ _______ _____ _____    ______ ____
ROOT
ATOM      1  N1  UNL     1      14.084  13.100  -4.756  0.00  0.00    +0.000 N 
ATOM      2  C1  UNL     1      14.346  13.646  -3.522  0.00  0.00    +0.000 C 
ATOM      3  O1  UNL     1      13.968  14.740  -3.147  0.00  0.00    +0.000 OA
ATOM      4  N2  UNL     1      15.070  12.758  -2.804  0.00  0.00    +0.000 N 
ATOM      5  C2  UNL     1      15.232  11.592  -3.489  0.00  0.00    +0.000 C 
ATOM      6  O2  UNL     1      15.801  10.600  -3.062  0.00  0.00    +0.000 OA
ATOM      7  C3  UNL     1      14.571  11.738  -4.862  0.00  0.00    +0.000 C 
ATOM      8  C4  UNL     1      15.558  11.551  -6.006  0.00  0.00    +0.000 C 
ATOM      9  C5  UNL     1      14.741  11.500  -7.287  0.00  0.00    +0.000 C 
ATOM     10  S1  UNL     1      13.199  10.644  -6.852  0.00  0.00    +0.000 S 
ATOM     11  C6  UNL     1      13.465  10.707  -5.050  0.00  0.00    +0.000 C 
ATOM     12  H1  UNL     1      13.469  13.564  -5.412  0.00  0.00    +0.000 HD
ATOM     13  H2  UNL     1      15.375  12.915  -1.859  0.00  0.00    +0.000 HD
ENDROOT
TORSDOF 0
ENDMDL
MODEL 3
REMARK VINA RESULT:    -4.235      2.233      2.527
REMARK INTER + INTRA:          -4.235
REMARK INTER:                  -4.235
REMARK INTRA:                   0.000
REMARK UNBOUND:                 0.000
REMARK  Name = /home/anacleto/Desktop/manuscript_Mpro/naturecomm/supplementary_file_S2/6-chemical-library/molecular_docking/3D_ligand_structure/154.pdb
REMARK  0 active torsions:
REMARK  status: ('A' for Active; 'I' for Inactive)
REMARK                            x       y       z     vdW  Elec       q    Type
REMARK                         _______ _______ _______ _____ _____    ______ ____
ROOT
ATOM      1  N1  UNL     1      14.676  10.755  -5.361  0.00  0.00    +0.000 N 
ATOM      2  C1  UNL     1      13.528  11.229  -5.950  0.00  0.00    +0.000 C 
ATOM      3  O1  UNL     1      12.782  10.577  -6.657  0.00  0.00    +0.000 OA
ATOM      4  N2  UNL     1      13.368  12.525  -5.595  0.00  0.00    +0.000 N 
ATOM      5  C2  UNL     1      14.331  12.912  -4.714  0.00  0.00    +0.000 C 
ATOM      6  O2  UNL     1      14.402  14.013  -4.191  0.00  0.00    +0.000 OA
ATOM      7  C3  UNL     1      15.286  11.737  -4.488  0.00  0.00    +0.000 C 
ATOM      8  C4  UNL     1      16.719  12.069  -4.882  0.00  0.00    +0.000 C 
ATOM      9  C5  UNL     1      17.584  10.913  -4.405  0.00  0.00    +0.000 C 
ATOM     10  S1  UNL     1      16.844  10.359  -2.841  0.00  0.00    +0.000 S 
ATOM     11  C6  UNL     1      15.308  11.323  -3.023  0.00  0.00    +0.000 C 
ATOM     12  H1  UNL     1      14.925   9.775  -5.420  0.00  0.00    +0.000 HD
ATOM     13  H2  UNL     1      12.592  13.094  -5.884  0.00  0.00    +0.000 HD
ENDROOT
TORSDOF 0
ENDMDL
MODEL 4
REMARK VINA RESULT:    -4.140      2.848      3.382
REMARK INTER + INTRA:          -4.140
REMARK INTER:                  -4.140
REMARK INTRA:                   0.000
REMARK UNBOUND:                 0.000
REMARK  Name = /home/anacleto/Desktop/manuscript_Mpro/naturecomm/supplementary_file_S2/6-chemical-library/molecular_docking/3D_ligand_structure/154.pdb
REMARK  0 active torsions:
REMARK  status: ('A' for Active; 'I' for Inactive)
REMARK                            x       y       z     vdW  Elec       q    Type
REMARK                         _______ _______ _______ _____ _____    ______ ____
ROOT
ATOM      1  N1  UNL     1      13.924  12.662  -4.935  0.00  0.00    +0.000 N 
ATOM      2  C1  UNL     1      13.400  11.420  -5.198  0.00  0.00    +0.000 C 
ATOM      3  O1  UNL     1      12.519  11.187  -6.004  0.00  0.00    +0.000 OA
ATOM      4  N2  UNL     1      14.041  10.512  -4.426  0.00  0.00    +0.000 N 
ATOM      5  C2  UNL     1      15.041  11.097  -3.711  0.00  0.00    +0.000 C 
ATOM      6  O2  UNL     1      15.812  10.508  -2.970  0.00  0.00    +0.000 OA
ATOM      7  C3  UNL     1      15.037  12.599  -4.008  0.00  0.00    +0.000 C 
ATOM      8  C4  UNL     1      14.813  13.438  -2.757  0.00  0.00    +0.000 C 
ATOM      9  C5  UNL     1      15.052  14.887  -3.152  0.00  0.00    +0.000 C 
ATOM     10  S1  UNL     1      16.398  14.847  -4.372  0.00  0.00    +0.000 S 
ATOM     11  C6  UNL     1      16.363  13.041  -4.613  0.00  0.00    +0.000 C 
ATOM     12  H1  UNL     1      13.650  13.470  -5.481  0.00  0.00    +0.000 HD
ATOM     13  H2  UNL     1      13.850   9.525  -4.445  0.00  0.00    +0.000 HD
ENDROOT
TORSDOF 0
ENDMDL
MODEL 5
REMARK VINA RESULT:    -4.111      3.535      4.251
REMARK INTER + INTRA:          -4.111
REMARK INTER:                  -4.111
REMARK INTRA:                   0.000
REMARK UNBOUND:                 0.000
REMARK  Name = /home/anacleto/Desktop/manuscript_Mpro/naturecomm/supplementary_file_S2/6-chemical-library/molecular_docking/3D_ligand_structure/154.pdb
REMARK  0 active torsions:
REMARK  status: ('A' for Active; 'I' for Inactive)
REMARK                            x       y       z     vdW  Elec       q    Type
REMARK                         _______ _______ _______ _____ _____    ______ ____
ROOT
ATOM      1  N1  UNL     1      16.695  11.195  -5.374  0.00  0.00    +0.000 N 
ATOM      2  C1  UNL     1      17.687  10.274  -5.140  0.00  0.00    +0.000 C 
ATOM      3  O1  UNL     1      18.545   9.950  -5.940  0.00  0.00    +0.000 OA
ATOM      4  N2  UNL     1      17.554   9.811  -3.876  0.00  0.00    +0.000 N 
ATOM      5  C2  UNL     1      16.550  10.459  -3.223  0.00  0.00    +0.000 C 
ATOM      6  O2  UNL     1      16.241  10.278  -2.055  0.00  0.00    +0.000 OA
ATOM      7  C3  UNL     1      15.896  11.448  -4.191  0.00  0.00    +0.000 C 
ATOM      8  C4  UNL     1      14.416  11.161  -4.405  0.00  0.00    +0.000 C 
ATOM      9  C5  UNL     1      13.852  12.330  -5.197  0.00  0.00    +0.000 C 
ATOM     10  S1  UNL     1      14.738  13.799  -4.600  0.00  0.00    +0.000 S 
ATOM     11  C6  UNL     1      16.006  12.876  -3.673  0.00  0.00    +0.000 C 
ATOM     12  H1  UNL     1      16.675  11.734  -6.231  0.00  0.00    +0.000 HD
ATOM     13  H2  UNL     1      18.171   9.138  -3.457  0.00  0.00    +0.000 HD
ENDROOT
TORSDOF 0
ENDMDL
MODEL 6
REMARK VINA RESULT:    -4.075      2.408      3.133
REMARK INTER + INTRA:          -4.075
REMARK INTER:                  -4.075
REMARK INTRA:                   0.000
REMARK UNBOUND:                 0.000
REMARK  Name = /home/anacleto/Desktop/manuscript_Mpro/naturecomm/supplementary_file_S2/6-chemical-library/molecular_docking/3D_ligand_structure/154.pdb
REMARK  0 active torsions:
REMARK  status: ('A' for Active; 'I' for Inactive)
REMARK                            x       y       z     vdW  Elec       q    Type
REMARK                         _______ _______ _______ _____ _____    ______ ____
ROOT
ATOM      1  N1  UNL     1      16.203  11.660  -4.434  0.00  0.00    +0.000 N 
ATOM      2  C1  UNL     1      15.636  10.836  -3.493  0.00  0.00    +0.000 C 
ATOM      3  O1  UNL     1      16.195  10.428  -2.492  0.00  0.00    +0.000 OA
ATOM      4  N2  UNL     1      14.360  10.577  -3.861  0.00  0.00    +0.000 N 
ATOM      5  C2  UNL     1      14.025  11.274  -4.981  0.00  0.00    +0.000 C 
ATOM      6  O2  UNL     1      12.923  11.270  -5.507  0.00  0.00    +0.000 OA
ATOM      7  C3  UNL     1      15.250  12.063  -5.450  0.00  0.00    +0.000 C 
ATOM      8  C4  UNL     1      15.687  11.678  -6.856  0.00  0.00    +0.000 C 
ATOM      9  C5  UNL     1      16.755  12.677  -7.274  0.00  0.00    +0.000 C 
ATOM     10  S1  UNL     1      16.256  14.263  -6.540  0.00  0.00    +0.000 S 
ATOM     11  C6  UNL     1      14.967  13.560  -5.462  0.00  0.00    +0.000 C 
ATOM     12  H1  UNL     1      17.126  12.053  -4.296  0.00  0.00    +0.000 HD
ATOM     13  H2  UNL     1      13.726  10.009  -3.327  0.00  0.00    +0.000 HD
ENDROOT
TORSDOF 0
ENDMDL
MODEL 7
REMARK VINA RESULT:    -3.960     20.022     20.683
REMARK INTER + INTRA:          -3.960
REMARK INTER:                  -3.960
REMARK INTRA:                   0.000
REMARK UNBOUND:                 0.000
REMARK  Name = /home/anacleto/Desktop/manuscript_Mpro/naturecomm/supplementary_file_S2/6-chemical-library/molecular_docking/3D_ligand_structure/154.pdb
REMARK  0 active torsions:
REMARK  status: ('A' for Active; 'I' for Inactive)
REMARK                            x       y       z     vdW  Elec       q    Type
REMARK                         _______ _______ _______ _____ _____    ______ ____
ROOT
ATOM      1  N1  UNL     1      25.213  14.875  10.673  0.00  0.00    +0.000 N 
ATOM      2  C1  UNL     1      25.941  14.925   9.509  0.00  0.00    +0.000 C 
ATOM      3  O1  UNL     1      26.595  14.006   9.052  0.00  0.00    +0.000 OA
ATOM      4  N2  UNL     1      25.790  16.152   8.960  0.00  0.00    +0.000 N 
ATOM      5  C2  UNL     1      24.911  16.903   9.679  0.00  0.00    +0.000 C 
ATOM      6  O2  UNL     1      24.549  18.032   9.387  0.00  0.00    +0.000 OA
ATOM      7  C3  UNL     1      24.452  16.090  10.892  0.00  0.00    +0.000 C 
ATOM      8  C4  UNL     1      24.792  16.770  12.211  0.00  0.00    +0.000 C 
ATOM      9  C5  UNL     1      24.094  15.978  13.306  0.00  0.00    +0.000 C 
ATOM     10  S1  UNL     1      22.520  15.426  12.585  0.00  0.00    +0.000 S 
ATOM     11  C6  UNL     1      22.944  15.878  10.872  0.00  0.00    +0.000 C 
ATOM     12  H1  UNL     1      25.112  14.009  11.189  0.00  0.00    +0.000 HD
ATOM     13  H2  UNL     1      26.211  16.435   8.093  0.00  0.00    +0.000 HD
ENDROOT
TORSDOF 0
ENDMDL
MODEL 8
REMARK VINA RESULT:    -3.936     19.965     20.496
REMARK INTER + INTRA:          -3.936
REMARK INTER:                  -3.936
REMARK INTRA:                   0.000
REMARK UNBOUND:                 0.000
REMARK  Name = /home/anacleto/Desktop/manuscript_Mpro/naturecomm/supplementary_file_S2/6-chemical-library/molecular_docking/3D_ligand_structure/154.pdb
REMARK  0 active torsions:
REMARK  status: ('A' for Active; 'I' for Inactive)
REMARK                            x       y       z     vdW  Elec       q    Type
REMARK                         _______ _______ _______ _____ _____    ______ ____
ROOT
ATOM      1  N1  UNL     1      24.504  14.904  11.184  0.00  0.00    +0.000 N 
ATOM      2  C1  UNL     1      23.287  15.523  11.338  0.00  0.00    +0.000 C 
ATOM      3  O1  UNL     1      22.389  15.134  12.061  0.00  0.00    +0.000 OA
ATOM      4  N2  UNL     1      23.272  16.637  10.570  0.00  0.00    +0.000 N 
ATOM      5  C2  UNL     1      24.477  16.830   9.967  0.00  0.00    +0.000 C 
ATOM      6  O2  UNL     1      24.762  17.782   9.256  0.00  0.00    +0.000 OA
ATOM      7  C3  UNL     1      25.403  15.670  10.343  0.00  0.00    +0.000 C 
ATOM      8  C4  UNL     1      25.883  14.891   9.127  0.00  0.00    +0.000 C 
ATOM      9  C5  UNL     1      26.951  13.926   9.617  0.00  0.00    +0.000 C 
ATOM     10  S1  UNL     1      27.841  14.808  10.933  0.00  0.00    +0.000 S 
ATOM     11  C6  UNL     1      26.642  16.173  11.072  0.00  0.00    +0.000 C 
ATOM     12  H1  UNL     1      24.757  14.103  11.750  0.00  0.00    +0.000 HD
ATOM     13  H2  UNL     1      22.496  17.274  10.521  0.00  0.00    +0.000 HD
ENDROOT
TORSDOF 0
ENDMDL
MODEL 9
REMARK VINA RESULT:    -3.861     17.498     18.469
REMARK INTER + INTRA:          -3.861
REMARK INTER:                  -3.861
REMARK INTRA:                   0.000
REMARK UNBOUND:                 0.000
REMARK  Name = /home/anacleto/Desktop/manuscript_Mpro/naturecomm/supplementary_file_S2/6-chemical-library/molecular_docking/3D_ligand_structure/154.pdb
REMARK  0 active torsions:
REMARK  status: ('A' for Active; 'I' for Inactive)
REMARK                            x       y       z     vdW  Elec       q    Type
REMARK                         _______ _______ _______ _____ _____    ______ ____
ROOT
ATOM      1  N1  UNL     1      19.111   5.090  10.245  0.00  0.00    +0.000 N 
ATOM      2  C1  UNL     1      18.518   4.880   9.024  0.00  0.00    +0.000 C 
ATOM      3  O1  UNL     1      17.872   3.895   8.718  0.00  0.00    +0.000 OA
ATOM      4  N2  UNL     1      18.760   5.955   8.238  0.00  0.00    +0.000 N 
ATOM      5  C2  UNL     1      19.429   6.921   8.927  0.00  0.00    +0.000 C 
ATOM      6  O2  UNL     1      19.734   8.016   8.481  0.00  0.00    +0.000 OA
ATOM      7  C3  UNL     1      19.711   6.406  10.340  0.00  0.00    +0.000 C 
ATOM      8  C4  UNL     1      21.200   6.355  10.653  0.00  0.00    +0.000 C 
ATOM      9  C5  UNL     1      21.327   6.045  12.136  0.00  0.00    +0.000 C 
ATOM     10  S1  UNL     1      19.939   6.902  12.936  0.00  0.00    +0.000 S 
ATOM     11  C6  UNL     1      19.063   7.300  11.389  0.00  0.00    +0.000 C 
ATOM     12  H1  UNL     1      18.965   4.446  11.013  0.00  0.00    +0.000 HD
ATOM     13  H2  UNL     1      18.418   6.052   7.299  0.00  0.00    +0.000 HD
ENDROOT
TORSDOF 0
ENDMDL
