MODEL 1
REMARK VINA RESULT:    -3.995      0.000      0.000
REMARK INTER + INTRA:          -3.995
REMARK INTER:                  -3.995
REMARK INTRA:                   0.000
REMARK UNBOUND:                 0.000
REMARK  Name = /home/anacleto/Desktop/manuscript_Mpro/naturecomm/supplementary_file_S2/6-chemical-library/molecular_docking/3D_ligand_structure/306.pdb
REMARK  0 active torsions:
REMARK  status: ('A' for Active; 'I' for Inactive)
REMARK                            x       y       z     vdW  Elec       q    Type
REMARK                         _______ _______ _______ _____ _____    ______ ____
ROOT
ATOM      1  N1  UNL     1     -40.027   9.545 -15.129  0.00  0.00    +0.000 NA
ATOM      2  N2  UNL     1     -39.470  10.129 -16.189  0.00  0.00    +0.000 NA
ATOM      3  N3  UNL     1     -38.173   9.764 -16.216  0.00  0.00    +0.000 N 
ATOM      4  C1  UNL     1     -37.861   8.940 -15.176  0.00  0.00    +0.000 A 
ATOM      5  C2  UNL     1     -39.060   8.812 -14.493  0.00  0.00    +0.000 A 
ATOM      6  N4  UNL     1     -36.671   8.382 -14.885  0.00  0.00    +0.000 NA
ATOM      7  C3  UNL     1     -36.735   7.614 -13.768  0.00  0.00    +0.000 A 
ATOM      8  C4  UNL     1     -37.871   7.400 -12.988  0.00  0.00    +0.000 A 
ATOM      9  C5  UNL     1     -39.077   8.010 -13.349  0.00  0.00    +0.000 A 
ATOM     10  H1  UNL     1     -37.569  10.105 -16.951  0.00  0.00    +0.000 HD
ENDROOT
TORSDOF 0
ENDMDL
MODEL 2
REMARK VINA RESULT:    -3.712     20.839     21.375
REMARK INTER + INTRA:          -3.712
REMARK INTER:                  -3.712
REMARK INTRA:                   0.000
REMARK UNBOUND:                 0.000
REMARK  Name = /home/anacleto/Desktop/manuscript_Mpro/naturecomm/supplementary_file_S2/6-chemical-library/molecular_docking/3D_ligand_structure/306.pdb
REMARK  0 active torsions:
REMARK  status: ('A' for Active; 'I' for Inactive)
REMARK                            x       y       z     vdW  Elec       q    Type
REMARK                         _______ _______ _______ _____ _____    ______ ____
ROOT
ATOM      1  N1  UNL     1     -27.896  -5.980 -25.476  0.00  0.00    +0.000 NA
ATOM      2  N2  UNL     1     -29.191  -5.920 -25.782  0.00  0.00    +0.000 NA
ATOM      3  N3  UNL     1     -29.319  -5.091 -26.836  0.00  0.00    +0.000 N 
ATOM      4  C1  UNL     1     -28.114  -4.595 -27.234  0.00  0.00    +0.000 A 
ATOM      5  C2  UNL     1     -27.217  -5.175 -26.352  0.00  0.00    +0.000 A 
ATOM      6  N4  UNL     1     -27.857  -3.744 -28.246  0.00  0.00    +0.000 NA
ATOM      7  C3  UNL     1     -26.532  -3.469 -28.349  0.00  0.00    +0.000 A 
ATOM      8  C4  UNL     1     -25.525  -3.981 -27.531  0.00  0.00    +0.000 A 
ATOM      9  C5  UNL     1     -25.862  -4.863 -26.498  0.00  0.00    +0.000 A 
ATOM     10  H1  UNL     1     -30.233  -4.909 -27.226  0.00  0.00    +0.000 HD
ENDROOT
TORSDOF 0
ENDMDL
MODEL 3
REMARK VINA RESULT:    -3.676     20.814     21.216
REMARK INTER + INTRA:          -3.676
REMARK INTER:                  -3.676
REMARK INTRA:                   0.000
REMARK UNBOUND:                 0.000
REMARK  Name = /home/anacleto/Desktop/manuscript_Mpro/naturecomm/supplementary_file_S2/6-chemical-library/molecular_docking/3D_ligand_structure/306.pdb
REMARK  0 active torsions:
REMARK  status: ('A' for Active; 'I' for Inactive)
REMARK                            x       y       z     vdW  Elec       q    Type
REMARK                         _______ _______ _______ _____ _____    ______ ____
ROOT
ATOM      1  N1  UNL     1     -26.267  -3.628 -27.763  0.00  0.00    +0.000 NA
ATOM      2  N2  UNL     1     -27.257  -3.315 -28.597  0.00  0.00    +0.000 NA
ATOM      3  N3  UNL     1     -28.356  -3.978 -28.186  0.00  0.00    +0.000 N 
ATOM      4  C1  UNL     1     -28.103  -4.734 -27.081  0.00  0.00    +0.000 A 
ATOM      5  C2  UNL     1     -26.762  -4.497 -26.826  0.00  0.00    +0.000 A 
ATOM      6  N4  UNL     1     -28.956  -5.522 -26.400  0.00  0.00    +0.000 NA
ATOM      7  C3  UNL     1     -28.350  -6.126 -25.346  0.00  0.00    +0.000 A 
ATOM      8  C4  UNL     1     -27.014  -5.977 -24.976  0.00  0.00    +0.000 A 
ATOM      9  C5  UNL     1     -26.182  -5.140 -25.729  0.00  0.00    +0.000 A 
ATOM     10  H1  UNL     1     -29.225  -3.874 -28.692  0.00  0.00    +0.000 HD
ENDROOT
TORSDOF 0
ENDMDL
MODEL 4
REMARK VINA RESULT:    -3.620     28.230     29.196
REMARK INTER + INTRA:          -3.620
REMARK INTER:                  -3.620
REMARK INTRA:                   0.000
REMARK UNBOUND:                 0.000
REMARK  Name = /home/anacleto/Desktop/manuscript_Mpro/naturecomm/supplementary_file_S2/6-chemical-library/molecular_docking/3D_ligand_structure/306.pdb
REMARK  0 active torsions:
REMARK  status: ('A' for Active; 'I' for Inactive)
REMARK                            x       y       z     vdW  Elec       q    Type
REMARK                         _______ _______ _______ _____ _____    ______ ____
ROOT
ATOM      1  N1  UNL     1     -22.544   8.631 -37.402  0.00  0.00    +0.000 NA
ATOM      2  N2  UNL     1     -22.772   9.868 -36.964  0.00  0.00    +0.000 NA
ATOM      3  N3  UNL     1     -21.648  10.582 -37.167  0.00  0.00    +0.000 N 
ATOM      4  C1  UNL     1     -20.669   9.826 -37.739  0.00  0.00    +0.000 A 
ATOM      5  C2  UNL     1     -21.261   8.582 -37.881  0.00  0.00    +0.000 A 
ATOM      6  N4  UNL     1     -19.423  10.202 -38.084  0.00  0.00    +0.000 NA
ATOM      7  C3  UNL     1     -18.722   9.178 -38.633  0.00  0.00    +0.000 A 
ATOM      8  C4  UNL     1     -19.193   7.881 -38.834  0.00  0.00    +0.000 A 
ATOM      9  C5  UNL     1     -20.500   7.558 -38.452  0.00  0.00    +0.000 A 
ATOM     10  H1  UNL     1     -21.615  11.556 -36.899  0.00  0.00    +0.000 HD
ENDROOT
TORSDOF 0
ENDMDL
MODEL 5
REMARK VINA RESULT:    -3.613     28.850     29.809
REMARK INTER + INTRA:          -3.613
REMARK INTER:                  -3.613
REMARK INTRA:                   0.000
REMARK UNBOUND:                 0.000
REMARK  Name = /home/anacleto/Desktop/manuscript_Mpro/naturecomm/supplementary_file_S2/6-chemical-library/molecular_docking/3D_ligand_structure/306.pdb
REMARK  0 active torsions:
REMARK  status: ('A' for Active; 'I' for Inactive)
REMARK                            x       y       z     vdW  Elec       q    Type
REMARK                         _______ _______ _______ _____ _____    ______ ____
ROOT
ATOM      1  N1  UNL     1     -22.030   7.901 -37.551  0.00  0.00    +0.000 NA
ATOM      2  N2  UNL     1     -21.969   6.619 -37.907  0.00  0.00    +0.000 NA
ATOM      3  N3  UNL     1     -20.769   6.416 -38.484  0.00  0.00    +0.000 N 
ATOM      4  C1  UNL     1     -20.028   7.559 -38.517  0.00  0.00    +0.000 A 
ATOM      5  C2  UNL     1     -20.851   8.497 -37.915  0.00  0.00    +0.000 A 
ATOM      6  N4  UNL     1     -18.789   7.733 -39.015  0.00  0.00    +0.000 NA
ATOM      7  C3  UNL     1     -18.364   9.014 -38.872  0.00  0.00    +0.000 A 
ATOM      8  C4  UNL     1     -19.087  10.054 -38.289  0.00  0.00    +0.000 A 
ATOM      9  C5  UNL     1     -20.371   9.803 -37.790  0.00  0.00    +0.000 A 
ATOM     10  H1  UNL     1     -20.524   5.498 -38.828  0.00  0.00    +0.000 HD
ENDROOT
TORSDOF 0
ENDMDL
MODEL 6
REMARK VINA RESULT:    -3.597     26.775     27.331
REMARK INTER + INTRA:          -3.597
REMARK INTER:                  -3.597
REMARK INTRA:                   0.000
REMARK UNBOUND:                 0.000
REMARK  Name = /home/anacleto/Desktop/manuscript_Mpro/naturecomm/supplementary_file_S2/6-chemical-library/molecular_docking/3D_ligand_structure/306.pdb
REMARK  0 active torsions:
REMARK  status: ('A' for Active; 'I' for Inactive)
REMARK                            x       y       z     vdW  Elec       q    Type
REMARK                         _______ _______ _______ _____ _____    ______ ____
ROOT
ATOM      1  N1  UNL     1     -25.098   8.474 -38.327  0.00  0.00    +0.000 NA
ATOM      2  N2  UNL     1     -25.689   9.601 -37.931  0.00  0.00    +0.000 NA
ATOM      3  N3  UNL     1     -24.763  10.337 -37.286  0.00  0.00    +0.000 N 
ATOM      4  C1  UNL     1     -23.556   9.705 -37.248  0.00  0.00    +0.000 A 
ATOM      5  C2  UNL     1     -23.792   8.516 -37.919  0.00  0.00    +0.000 A 
ATOM      6  N4  UNL     1     -22.409  10.136 -36.691  0.00  0.00    +0.000 NA
ATOM      7  C3  UNL     1     -21.404   9.237 -36.848  0.00  0.00    +0.000 A 
ATOM      8  C4  UNL     1     -21.502   8.008 -37.499  0.00  0.00    +0.000 A 
ATOM      9  C5  UNL     1     -22.726   7.622 -38.057  0.00  0.00    +0.000 A 
ATOM     10  H1  UNL     1     -25.013  11.238 -36.904  0.00  0.00    +0.000 HD
ENDROOT
TORSDOF 0
ENDMDL
MODEL 7
REMARK VINA RESULT:    -3.587      1.757      2.001
REMARK INTER + INTRA:          -3.587
REMARK INTER:                  -3.587
REMARK INTRA:                   0.000
REMARK UNBOUND:                 0.000
REMARK  Name = /home/anacleto/Desktop/manuscript_Mpro/naturecomm/supplementary_file_S2/6-chemical-library/molecular_docking/3D_ligand_structure/306.pdb
REMARK  0 active torsions:
REMARK  status: ('A' for Active; 'I' for Inactive)
REMARK                            x       y       z     vdW  Elec       q    Type
REMARK                         _______ _______ _______ _____ _____    ______ ____
ROOT
ATOM      1  N1  UNL     1     -38.938   9.021 -15.076  0.00  0.00    +0.000 NA
ATOM      2  N2  UNL     1     -37.891   9.164 -15.886  0.00  0.00    +0.000 NA
ATOM      3  N3  UNL     1     -37.219   7.996 -15.888  0.00  0.00    +0.000 N 
ATOM      4  C1  UNL     1     -37.814   7.074 -15.080  0.00  0.00    +0.000 A 
ATOM      5  C2  UNL     1     -38.911   7.749 -14.570  0.00  0.00    +0.000 A 
ATOM      6  N4  UNL     1     -37.426   5.808 -14.837  0.00  0.00    +0.000 NA
ATOM      7  C3  UNL     1     -38.266   5.180 -13.975  0.00  0.00    +0.000 A 
ATOM      8  C4  UNL     1     -39.402   5.738 -13.390  0.00  0.00    +0.000 A 
ATOM      9  C5  UNL     1     -39.748   7.061 -13.687  0.00  0.00    +0.000 A 
ATOM     10  H1  UNL     1     -36.383   7.897 -16.447  0.00  0.00    +0.000 HD
ENDROOT
TORSDOF 0
ENDMDL
MODEL 8
REMARK VINA RESULT:    -3.502     28.851     29.860
REMARK INTER + INTRA:          -3.502
REMARK INTER:                  -3.502
REMARK INTRA:                   0.000
REMARK UNBOUND:                 0.000
REMARK  Name = /home/anacleto/Desktop/manuscript_Mpro/naturecomm/supplementary_file_S2/6-chemical-library/molecular_docking/3D_ligand_structure/306.pdb
REMARK  0 active torsions:
REMARK  status: ('A' for Active; 'I' for Inactive)
REMARK                            x       y       z     vdW  Elec       q    Type
REMARK                         _______ _______ _______ _____ _____    ______ ____
ROOT
ATOM      1  N1  UNL     1     -18.593   7.930 -39.167  0.00  0.00    +0.000 NA
ATOM      2  N2  UNL     1     -18.126   9.078 -38.676  0.00  0.00    +0.000 NA
ATOM      3  N3  UNL     1     -19.120   9.647 -37.966  0.00  0.00    +0.000 N 
ATOM      4  C1  UNL     1     -20.249   8.885 -37.982  0.00  0.00    +0.000 A 
ATOM      5  C2  UNL     1     -19.892   7.792 -38.755  0.00  0.00    +0.000 A 
ATOM      6  N4  UNL     1     -21.430   9.136 -37.386  0.00  0.00    +0.000 NA
ATOM      7  C3  UNL     1     -22.332   8.149 -37.619  0.00  0.00    +0.000 A 
ATOM      8  C4  UNL     1     -22.107   6.999 -38.375  0.00  0.00    +0.000 A 
ATOM      9  C5  UNL     1     -20.854   6.800 -38.967  0.00  0.00    +0.000 A 
ATOM     10  H1  UNL     1     -18.966  10.534 -37.507  0.00  0.00    +0.000 HD
ENDROOT
TORSDOF 0
ENDMDL
MODEL 9
REMARK VINA RESULT:    -3.483     27.186     27.948
REMARK INTER + INTRA:          -3.483
REMARK INTER:                  -3.483
REMARK INTRA:                   0.000
REMARK UNBOUND:                 0.000
REMARK  Name = /home/anacleto/Desktop/manuscript_Mpro/naturecomm/supplementary_file_S2/6-chemical-library/molecular_docking/3D_ligand_structure/306.pdb
REMARK  0 active torsions:
REMARK  status: ('A' for Active; 'I' for Inactive)
REMARK                            x       y       z     vdW  Elec       q    Type
REMARK                         _______ _______ _______ _____ _____    ______ ____
ROOT
ATOM      1  N1  UNL     1     -21.520   9.624 -37.037  0.00  0.00    +0.000 NA
ATOM      2  N2  UNL     1     -22.595  10.363 -36.767  0.00  0.00    +0.000 NA
ATOM      3  N3  UNL     1     -23.678   9.641 -37.114  0.00  0.00    +0.000 N 
ATOM      4  C1  UNL     1     -23.331   8.423 -37.616  0.00  0.00    +0.000 A 
ATOM      5  C2  UNL     1     -21.946   8.431 -37.558  0.00  0.00    +0.000 A 
ATOM      6  N4  UNL     1     -24.141   7.445 -38.060  0.00  0.00    +0.000 NA
ATOM      7  C3  UNL     1     -23.440   6.365 -38.490  0.00  0.00    +0.000 A 
ATOM      8  C4  UNL     1     -22.051   6.240 -38.488  0.00  0.00    +0.000 A 
ATOM      9  C5  UNL     1     -21.267   7.297 -38.010  0.00  0.00    +0.000 A 
ATOM     10  H1  UNL     1     -24.603  10.028 -36.986  0.00  0.00    +0.000 HD
ENDROOT
TORSDOF 0
ENDMDL
