MODEL 1
REMARK VINA RESULT:    -3.952      0.000      0.000
REMARK INTER + INTRA:          -3.952
REMARK INTER:                  -3.952
REMARK INTRA:                   0.000
REMARK UNBOUND:                 0.000
REMARK  Name = /home/anacleto/Desktop/manuscript_Mpro/naturecomm/supplementary_file_S2/6-chemical-library/molecular_docking/3D_ligand_structure/218.pdb
REMARK  0 active torsions:
REMARK  status: ('A' for Active; 'I' for Inactive)
REMARK                            x       y       z     vdW  Elec       q    Type
REMARK                         _______ _______ _______ _____ _____    ______ ____
ROOT
ATOM      1  N1  UNL     1     -28.668  -5.874 -25.821  0.00  0.00    +0.000 NA
ATOM      2  C1  UNL     1     -27.638  -6.152 -24.962  0.00  0.00    +0.000 A 
ATOM      3  N2  UNL     1     -26.475  -5.546 -25.221  0.00  0.00    +0.000 NA
ATOM      4  N3  UNL     1     -26.793  -4.830 -26.328  0.00  0.00    +0.000 N 
ATOM      5  C2  UNL     1     -28.114  -5.045 -26.668  0.00  0.00    +0.000 A 
ATOM      6  C3  UNL     1     -25.916  -3.995 -27.031  0.00  0.00    +0.000 A 
ATOM      7  O1  UNL     1     -24.751  -3.834 -26.695  0.00  0.00    +0.000 OA
ATOM      8  C4  UNL     1     -26.533  -3.328 -28.215  0.00  0.00    +0.000 A 
ATOM      9  C5  UNL     1     -27.822  -3.572 -28.499  0.00  0.00    +0.000 A 
ATOM     10  N4  UNL     1     -28.610  -4.412 -27.750  0.00  0.00    +0.000 N 
ATOM     11  H4  UNL     1     -29.580  -4.549 -28.024  0.00  0.00    +0.000 HD
ENDROOT
TORSDOF 0
ENDMDL
MODEL 2
REMARK VINA RESULT:    -3.889      1.379      2.951
REMARK INTER + INTRA:          -3.889
REMARK INTER:                  -3.889
REMARK INTRA:                   0.000
REMARK UNBOUND:                 0.000
REMARK  Name = /home/anacleto/Desktop/manuscript_Mpro/naturecomm/supplementary_file_S2/6-chemical-library/molecular_docking/3D_ligand_structure/218.pdb
REMARK  0 active torsions:
REMARK  status: ('A' for Active; 'I' for Inactive)
REMARK                            x       y       z     vdW  Elec       q    Type
REMARK                         _______ _______ _______ _____ _____    ______ ____
ROOT
ATOM      1  N1  UNL     1     -27.901  -3.586 -28.463  0.00  0.00    +0.000 NA
ATOM      2  C1  UNL     1     -26.556  -3.328 -28.464  0.00  0.00    +0.000 A 
ATOM      3  N2  UNL     1     -25.838  -3.933 -27.512  0.00  0.00    +0.000 NA
ATOM      4  N3  UNL     1     -26.803  -4.628 -26.858  0.00  0.00    +0.000 N 
ATOM      5  C2  UNL     1     -28.031  -4.401 -27.448  0.00  0.00    +0.000 A 
ATOM      6  C3  UNL     1     -26.594  -5.453 -25.747  0.00  0.00    +0.000 A 
ATOM      7  O1  UNL     1     -25.487  -5.625 -25.256  0.00  0.00    +0.000 OA
ATOM      8  C4  UNL     1     -27.837  -6.095 -25.227  0.00  0.00    +0.000 A 
ATOM      9  C5  UNL     1     -29.003  -5.841 -25.840  0.00  0.00    +0.000 A 
ATOM     10  N4  UNL     1     -29.115  -5.012 -26.929  0.00  0.00    +0.000 N 
ATOM     11  H4  UNL     1     -30.033  -4.866 -27.343  0.00  0.00    +0.000 HD
ENDROOT
TORSDOF 0
ENDMDL
MODEL 3
REMARK VINA RESULT:    -3.785     13.713     15.076
REMARK INTER + INTRA:          -3.785
REMARK INTER:                  -3.785
REMARK INTRA:                   0.000
REMARK UNBOUND:                 0.000
REMARK  Name = /home/anacleto/Desktop/manuscript_Mpro/naturecomm/supplementary_file_S2/6-chemical-library/molecular_docking/3D_ligand_structure/218.pdb
REMARK  0 active torsions:
REMARK  status: ('A' for Active; 'I' for Inactive)
REMARK                            x       y       z     vdW  Elec       q    Type
REMARK                         _______ _______ _______ _____ _____    ______ ____
ROOT
ATOM      1  N1  UNL     1     -29.413   4.848 -38.818  0.00  0.00    +0.000 NA
ATOM      2  C1  UNL     1     -28.779   6.016 -39.147  0.00  0.00    +0.000 A 
ATOM      3  N2  UNL     1     -27.442   5.984 -39.137  0.00  0.00    +0.000 NA
ATOM      4  N3  UNL     1     -27.214   4.697 -38.774  0.00  0.00    +0.000 N 
ATOM      5  C2  UNL     1     -28.412   4.037 -38.588  0.00  0.00    +0.000 A 
ATOM      6  C3  UNL     1     -25.951   4.116 -38.608  0.00  0.00    +0.000 A 
ATOM      7  O1  UNL     1     -24.913   4.738 -38.783  0.00  0.00    +0.000 OA
ATOM      8  C4  UNL     1     -25.995   2.679 -38.202  0.00  0.00    +0.000 A 
ATOM      9  C5  UNL     1     -27.188   2.088 -38.037  0.00  0.00    +0.000 A 
ATOM     10  N4  UNL     1     -28.382   2.740 -38.221  0.00  0.00    +0.000 N 
ATOM     11  H4  UNL     1     -29.249   2.228 -38.078  0.00  0.00    +0.000 HD
ENDROOT
TORSDOF 0
ENDMDL
MODEL 4
REMARK VINA RESULT:    -3.677     18.301     19.262
REMARK INTER + INTRA:          -3.677
REMARK INTER:                  -3.677
REMARK INTRA:                   0.000
REMARK UNBOUND:                 0.000
REMARK  Name = /home/anacleto/Desktop/manuscript_Mpro/naturecomm/supplementary_file_S2/6-chemical-library/molecular_docking/3D_ligand_structure/218.pdb
REMARK  0 active torsions:
REMARK  status: ('A' for Active; 'I' for Inactive)
REMARK                            x       y       z     vdW  Elec       q    Type
REMARK                         _______ _______ _______ _____ _____    ______ ____
ROOT
ATOM      1  N1  UNL     1     -18.875  10.498 -38.314  0.00  0.00    +0.000 NA
ATOM      2  C1  UNL     1     -18.203   9.390 -38.758  0.00  0.00    +0.000 A 
ATOM      3  N2  UNL     1     -18.888   8.242 -38.749  0.00  0.00    +0.000 NA
ATOM      4  N3  UNL     1     -20.085   8.656 -38.261  0.00  0.00    +0.000 N 
ATOM      5  C2  UNL     1     -20.051  10.012 -38.008  0.00  0.00    +0.000 A 
ATOM      6  C3  UNL     1     -21.196   7.833 -38.042  0.00  0.00    +0.000 A 
ATOM      7  O1  UNL     1     -21.183   6.633 -38.280  0.00  0.00    +0.000 OA
ATOM      8  C4  UNL     1     -22.385   8.553 -37.498  0.00  0.00    +0.000 A 
ATOM      9  C5  UNL     1     -22.296   9.873 -37.272  0.00  0.00    +0.000 A 
ATOM     10  N4  UNL     1     -21.158  10.603 -37.516  0.00  0.00    +0.000 N 
ATOM     11  H4  UNL     1     -21.163  11.601 -37.321  0.00  0.00    +0.000 HD
ENDROOT
TORSDOF 0
ENDMDL
MODEL 5
REMARK VINA RESULT:    -3.676     16.708     17.707
REMARK INTER + INTRA:          -3.676
REMARK INTER:                  -3.676
REMARK INTRA:                   0.000
REMARK UNBOUND:                 0.000
REMARK  Name = /home/anacleto/Desktop/manuscript_Mpro/naturecomm/supplementary_file_S2/6-chemical-library/molecular_docking/3D_ligand_structure/218.pdb
REMARK  0 active torsions:
REMARK  status: ('A' for Active; 'I' for Inactive)
REMARK                            x       y       z     vdW  Elec       q    Type
REMARK                         _______ _______ _______ _____ _____    ______ ____
ROOT
ATOM      1  N1  UNL     1     -21.833   6.245 -38.035  0.00  0.00    +0.000 NA
ATOM      2  C1  UNL     1     -23.143   5.986 -38.339  0.00  0.00    +0.000 A 
ATOM      3  N2  UNL     1     -23.988   7.015 -38.229  0.00  0.00    +0.000 NA
ATOM      4  N3  UNL     1     -23.149   8.002 -37.825  0.00  0.00    +0.000 N 
ATOM      5  C2  UNL     1     -21.862   7.513 -37.716  0.00  0.00    +0.000 A 
ATOM      6  C3  UNL     1     -23.525   9.322 -37.554  0.00  0.00    +0.000 A 
ATOM      7  O1  UNL     1     -24.679   9.713 -37.663  0.00  0.00    +0.000 OA
ATOM      8  C4  UNL     1     -22.394  10.198 -37.125  0.00  0.00    +0.000 A 
ATOM      9  C5  UNL     1     -21.163   9.671 -37.037  0.00  0.00    +0.000 A 
ATOM     10  N4  UNL     1     -20.886   8.356 -37.323  0.00  0.00    +0.000 N 
ATOM     11  H4  UNL     1     -19.928   8.026 -37.234  0.00  0.00    +0.000 HD
ENDROOT
TORSDOF 0
ENDMDL
MODEL 6
REMARK VINA RESULT:    -3.657     13.776     15.328
REMARK INTER + INTRA:          -3.657
REMARK INTER:                  -3.657
REMARK INTRA:                   0.000
REMARK UNBOUND:                 0.000
REMARK  Name = /home/anacleto/Desktop/manuscript_Mpro/naturecomm/supplementary_file_S2/6-chemical-library/molecular_docking/3D_ligand_structure/218.pdb
REMARK  0 active torsions:
REMARK  status: ('A' for Active; 'I' for Inactive)
REMARK                            x       y       z     vdW  Elec       q    Type
REMARK                         _______ _______ _______ _____ _____    ______ ____
ROOT
ATOM      1  N1  UNL     1     -24.696   5.087 -38.801  0.00  0.00    +0.000 NA
ATOM      2  C1  UNL     1     -25.436   6.123 -39.306  0.00  0.00    +0.000 A 
ATOM      3  N2  UNL     1     -26.756   5.924 -39.379  0.00  0.00    +0.000 NA
ATOM      4  N3  UNL     1     -26.859   4.666 -38.882  0.00  0.00    +0.000 N 
ATOM      5  C2  UNL     1     -25.609   4.187 -38.544  0.00  0.00    +0.000 A 
ATOM      6  C3  UNL     1     -28.053   3.951 -38.733  0.00  0.00    +0.000 A 
ATOM      7  O1  UNL     1     -29.141   4.414 -39.046  0.00  0.00    +0.000 OA
ATOM      8  C4  UNL     1     -27.873   2.584 -38.159  0.00  0.00    +0.000 A 
ATOM      9  C5  UNL     1     -26.635   2.170 -37.848  0.00  0.00    +0.000 A 
ATOM     10  N4  UNL     1     -25.515   2.943 -38.030  0.00  0.00    +0.000 N 
ATOM     11  H4  UNL     1     -24.608   2.564 -37.770  0.00  0.00    +0.000 HD
ENDROOT
TORSDOF 0
ENDMDL
MODEL 7
REMARK VINA RESULT:    -3.547      2.431      3.544
REMARK INTER + INTRA:          -3.547
REMARK INTER:                  -3.547
REMARK INTRA:                   0.000
REMARK UNBOUND:                 0.000
REMARK  Name = /home/anacleto/Desktop/manuscript_Mpro/naturecomm/supplementary_file_S2/6-chemical-library/molecular_docking/3D_ligand_structure/218.pdb
REMARK  0 active torsions:
REMARK  status: ('A' for Active; 'I' for Inactive)
REMARK                            x       y       z     vdW  Elec       q    Type
REMARK                         _______ _______ _______ _____ _____    ______ ____
ROOT
ATOM      1  N1  UNL     1     -24.112  -3.126 -29.191  0.00  0.00    +0.000 NA
ATOM      2  C1  UNL     1     -23.192  -3.720 -28.368  0.00  0.00    +0.000 A 
ATOM      3  N2  UNL     1     -23.677  -4.319 -27.276  0.00  0.00    +0.000 NA
ATOM      4  N3  UNL     1     -25.007  -4.086 -27.418  0.00  0.00    +0.000 N 
ATOM      5  C2  UNL     1     -25.240  -3.369 -28.575  0.00  0.00    +0.000 A 
ATOM      6  C3  UNL     1     -26.001  -4.506 -26.527  0.00  0.00    +0.000 A 
ATOM      7  O1  UNL     1     -25.750  -5.141 -25.512  0.00  0.00    +0.000 OA
ATOM      8  C4  UNL     1     -27.383  -4.111 -26.932  0.00  0.00    +0.000 A 
ATOM      9  C5  UNL     1     -27.552  -3.414 -28.067  0.00  0.00    +0.000 A 
ATOM     10  N4  UNL     1     -26.512  -3.042 -28.883  0.00  0.00    +0.000 N 
ATOM     11  H4  UNL     1     -26.715  -2.515 -29.729  0.00  0.00    +0.000 HD
ENDROOT
TORSDOF 0
ENDMDL
MODEL 8
REMARK VINA RESULT:    -3.481     17.865     18.523
REMARK INTER + INTRA:          -3.481
REMARK INTER:                  -3.481
REMARK INTRA:                   0.000
REMARK UNBOUND:                 0.000
REMARK  Name = /home/anacleto/Desktop/manuscript_Mpro/naturecomm/supplementary_file_S2/6-chemical-library/molecular_docking/3D_ligand_structure/218.pdb
REMARK  0 active torsions:
REMARK  status: ('A' for Active; 'I' for Inactive)
REMARK                            x       y       z     vdW  Elec       q    Type
REMARK                         _______ _______ _______ _____ _____    ______ ____
ROOT
ATOM      1  N1  UNL     1     -19.501   8.482 -38.425  0.00  0.00    +0.000 NA
ATOM      2  C1  UNL     1     -19.895   7.347 -39.084  0.00  0.00    +0.000 A 
ATOM      3  N2  UNL     1     -21.201   7.064 -39.041  0.00  0.00    +0.000 NA
ATOM      4  N3  UNL     1     -21.669   8.099 -38.298  0.00  0.00    +0.000 N 
ATOM      5  C2  UNL     1     -20.629   8.934 -37.942  0.00  0.00    +0.000 A 
ATOM      6  C3  UNL     1     -23.008   8.296 -37.941  0.00  0.00    +0.000 A 
ATOM      7  O1  UNL     1     -23.899   7.529 -38.278  0.00  0.00    +0.000 OA
ATOM      8  C4  UNL     1     -23.240   9.519 -37.117  0.00  0.00    +0.000 A 
ATOM      9  C5  UNL     1     -22.193  10.296 -36.800  0.00  0.00    +0.000 A 
ATOM     10  N4  UNL     1     -20.907  10.023 -37.196  0.00  0.00    +0.000 N 
ATOM     11  H4  UNL     1     -20.161  10.657 -36.919  0.00  0.00    +0.000 HD
ENDROOT
TORSDOF 0
ENDMDL
MODEL 9
REMARK VINA RESULT:    -3.434      2.086      2.918
REMARK INTER + INTRA:          -3.434
REMARK INTER:                  -3.434
REMARK INTRA:                   0.000
REMARK UNBOUND:                 0.000
REMARK  Name = /home/anacleto/Desktop/manuscript_Mpro/naturecomm/supplementary_file_S2/6-chemical-library/molecular_docking/3D_ligand_structure/218.pdb
REMARK  0 active torsions:
REMARK  status: ('A' for Active; 'I' for Inactive)
REMARK                            x       y       z     vdW  Elec       q    Type
REMARK                         _______ _______ _______ _____ _____    ______ ____
ROOT
ATOM      1  N1  UNL     1     -24.394  -3.771 -25.635  0.00  0.00    +0.000 NA
ATOM      2  C1  UNL     1     -24.306  -4.823 -24.763  0.00  0.00    +0.000 A 
ATOM      3  N2  UNL     1     -25.363  -5.640 -24.715  0.00  0.00    +0.000 NA
ATOM      4  N3  UNL     1     -26.183  -5.061 -25.628  0.00  0.00    +0.000 N 
ATOM      5  C2  UNL     1     -25.579  -3.941 -26.164  0.00  0.00    +0.000 A 
ATOM      6  C3  UNL     1     -27.458  -5.522 -25.977  0.00  0.00    +0.000 A 
ATOM      7  O1  UNL     1     -27.956  -6.520 -25.475  0.00  0.00    +0.000 OA
ATOM      8  C4  UNL     1     -28.141  -4.689 -27.011  0.00  0.00    +0.000 A 
ATOM      9  C5  UNL     1     -27.506  -3.612 -27.499  0.00  0.00    +0.000 A 
ATOM     10  N4  UNL     1     -26.250  -3.232 -27.094  0.00  0.00    +0.000 N 
ATOM     11  H4  UNL     1     -25.829  -2.403 -27.509  0.00  0.00    +0.000 HD
ENDROOT
TORSDOF 0
ENDMDL
