MODEL 1
REMARK VINA RESULT:    -4.747      0.000      0.000
REMARK INTER + INTRA:          -5.834
REMARK INTER:                  -5.597
REMARK INTRA:                  -0.237
REMARK UNBOUND:                -0.254
REMARK  Name = /home/anacleto/Desktop/manuscript_Mpro/naturecomm/supplementary_file_S2/6-chemical-library/molecular_docking/3D_ligand_structure/829.pdb
REMARK  3 active torsions:
REMARK  status: ('A' for Active; 'I' for Inactive)
REMARK    1  A    between atoms: C3_5  and  C4_6
REMARK    2  A    between atoms: N2_8  and  C5_9
REMARK    3  A    between atoms: C5_9  and  C6_10
REMARK                            x       y       z     vdW  Elec       q    Type
REMARK                         _______ _______ _______ _____ _____    ______ ____
ROOT
ATOM      1  C4  UNL     1     -24.619   4.789 -39.514  0.00  0.00    +0.000 C 
ATOM      2  O2  UNL     1     -24.449   4.845 -40.730  0.00  0.00    +0.000 OA
ATOM      3  N2  UNL     1     -23.793   5.471 -38.636  0.00  0.00    +0.000 N 
ATOM      4  H3  UNL     1     -24.044   5.538 -37.663  0.00  0.00    +0.000 HD
ENDROOT
BRANCH   1   9
ATOM      5  N1  UNL     1     -26.920   4.554 -38.716  0.00  0.00    +0.000 NA
ATOM      6  O1  UNL     1     -27.696   3.587 -38.111  0.00  0.00    +0.000 OA
ATOM      7  C1  UNL     1     -26.959   2.470 -37.921  0.00  0.00    +0.000 A 
ATOM      8  C2  UNL     1     -25.690   2.677 -38.393  0.00  0.00    +0.000 A 
ATOM      9  C3  UNL     1     -25.700   4.013 -38.887  0.00  0.00    +0.000 A 
ENDBRANCH   1   9
BRANCH   3  10
ATOM     10  C5  UNL     1     -22.762   6.363 -39.117  0.00  0.00    +0.000 C 
BRANCH  10  11
ATOM     11  C6  UNL     1     -22.682   7.596 -38.267  0.00  0.00    +0.000 A 
ATOM     12  C7  UNL     1     -21.521   7.933 -37.565  0.00  0.00    +0.000 A 
ATOM     13  C8  UNL     1     -21.499   9.079 -36.774  0.00  0.00    +0.000 A 
ATOM     14  C9  UNL     1     -22.647   9.850 -36.706  0.00  0.00    +0.000 A 
ATOM     15  N3  UNL     1     -23.789   9.554 -37.361  0.00  0.00    +0.000 NA
ATOM     16  C10 UNL     1     -23.783   8.436 -38.124  0.00  0.00    +0.000 A 
ENDBRANCH  10  11
ENDBRANCH   3  10
TORSDOF 3
ENDMDL
MODEL 2
REMARK VINA RESULT:    -4.623      2.326      6.163
REMARK INTER + INTRA:          -5.687
REMARK INTER:                  -5.417
REMARK INTRA:                  -0.270
REMARK UNBOUND:                -0.254
REMARK  Name = /home/anacleto/Desktop/manuscript_Mpro/naturecomm/supplementary_file_S2/6-chemical-library/molecular_docking/3D_ligand_structure/829.pdb
REMARK  3 active torsions:
REMARK  status: ('A' for Active; 'I' for Inactive)
REMARK    1  A    between atoms: C3_5  and  C4_6
REMARK    2  A    between atoms: N2_8  and  C5_9
REMARK    3  A    between atoms: C5_9  and  C6_10
REMARK                            x       y       z     vdW  Elec       q    Type
REMARK                         _______ _______ _______ _____ _____    ______ ____
ROOT
ATOM      1  C4  UNL     1     -24.078   7.520 -38.329  0.00  0.00    +0.000 C 
ATOM      2  O2  UNL     1     -24.870   8.341 -37.872  0.00  0.00    +0.000 OA
ATOM      3  N2  UNL     1     -24.514   6.408 -39.031  0.00  0.00    +0.000 N 
ATOM      4  H3  UNL     1     -23.849   5.839 -39.529  0.00  0.00    +0.000 HD
ENDROOT
BRANCH   1   9
ATOM      5  N1  UNL     1     -22.083   8.653 -37.478  0.00  0.00    +0.000 NA
ATOM      6  O1  UNL     1     -20.714   8.486 -37.532  0.00  0.00    +0.000 OA
ATOM      7  C1  UNL     1     -20.422   7.384 -38.258  0.00  0.00    +0.000 A 
ATOM      8  C2  UNL     1     -21.584   6.807 -38.696  0.00  0.00    +0.000 A 
ATOM      9  C3  UNL     1     -22.619   7.641 -38.185  0.00  0.00    +0.000 A 
ENDBRANCH   1   9
BRANCH   3  10
ATOM     10  C5  UNL     1     -25.912   6.222 -39.348  0.00  0.00    +0.000 C 
BRANCH  10  11
ATOM     11  C6  UNL     1     -26.383   4.865 -38.917  0.00  0.00    +0.000 A 
ATOM     12  C7  UNL     1     -25.486   3.842 -38.595  0.00  0.00    +0.000 A 
ATOM     13  C8  UNL     1     -25.969   2.593 -38.218  0.00  0.00    +0.000 A 
ATOM     14  C9  UNL     1     -27.341   2.404 -38.182  0.00  0.00    +0.000 A 
ATOM     15  N3  UNL     1     -28.237   3.362 -38.494  0.00  0.00    +0.000 NA
ATOM     16  C10 UNL     1     -27.742   4.568 -38.856  0.00  0.00    +0.000 A 
ENDBRANCH  10  11
ENDBRANCH   3  10
TORSDOF 3
ENDMDL
MODEL 3
REMARK VINA RESULT:    -4.404      4.081      5.017
REMARK INTER + INTRA:          -5.430
REMARK INTER:                  -5.193
REMARK INTRA:                  -0.237
REMARK UNBOUND:                -0.254
REMARK  Name = /home/anacleto/Desktop/manuscript_Mpro/naturecomm/supplementary_file_S2/6-chemical-library/molecular_docking/3D_ligand_structure/829.pdb
REMARK  3 active torsions:
REMARK  status: ('A' for Active; 'I' for Inactive)
REMARK    1  A    between atoms: C3_5  and  C4_6
REMARK    2  A    between atoms: N2_8  and  C5_9
REMARK    3  A    between atoms: C5_9  and  C6_10
REMARK                            x       y       z     vdW  Elec       q    Type
REMARK                         _______ _______ _______ _____ _____    ______ ____
ROOT
ATOM      1  C4  UNL     1     -24.420  10.217 -37.934  0.00  0.00    +0.000 C 
ATOM      2  O2  UNL     1     -23.933  10.940 -38.800  0.00  0.00    +0.000 OA
ATOM      3  N2  UNL     1     -23.653   9.719 -36.893  0.00  0.00    +0.000 N 
ATOM      4  H3  UNL     1     -24.101   9.264 -36.115  0.00  0.00    +0.000 HD
ENDROOT
BRANCH   1   9
ATOM      5  N1  UNL     1     -26.218   8.610 -38.348  0.00  0.00    +0.000 NA
ATOM      6  O1  UNL     1     -27.589   8.553 -38.202  0.00  0.00    +0.000 OA
ATOM      7  C1  UNL     1     -28.036   9.717 -37.681  0.00  0.00    +0.000 A 
ATOM      8  C2  UNL     1     -26.976  10.560 -37.476  0.00  0.00    +0.000 A 
ATOM      9  C3  UNL     1     -25.838   9.825 -37.914  0.00  0.00    +0.000 A 
ENDBRANCH   1   9
BRANCH   3  10
ATOM     10  C5  UNL     1     -22.273  10.116 -36.723  0.00  0.00    +0.000 C 
BRANCH  10  11
ATOM     11  C6  UNL     1     -21.355   9.197 -37.474  0.00  0.00    +0.000 A 
ATOM     12  C7  UNL     1     -21.645   7.838 -37.636  0.00  0.00    +0.000 A 
ATOM     13  C8  UNL     1     -20.754   7.020 -38.325  0.00  0.00    +0.000 A 
ATOM     14  C9  UNL     1     -19.594   7.587 -38.825  0.00  0.00    +0.000 A 
ATOM     15  N3  UNL     1     -19.275   8.890 -38.680  0.00  0.00    +0.000 NA
ATOM     16  C10 UNL     1     -20.158   9.664 -38.009  0.00  0.00    +0.000 A 
ENDBRANCH  10  11
ENDBRANCH   3  10
TORSDOF 3
ENDMDL
MODEL 4
REMARK VINA RESULT:    -4.386      2.221      6.072
REMARK INTER + INTRA:          -5.409
REMARK INTER:                  -5.170
REMARK INTRA:                  -0.239
REMARK UNBOUND:                -0.254
REMARK  Name = /home/anacleto/Desktop/manuscript_Mpro/naturecomm/supplementary_file_S2/6-chemical-library/molecular_docking/3D_ligand_structure/829.pdb
REMARK  3 active torsions:
REMARK  status: ('A' for Active; 'I' for Inactive)
REMARK    1  A    between atoms: C3_5  and  C4_6
REMARK    2  A    between atoms: N2_8  and  C5_9
REMARK    3  A    between atoms: C5_9  and  C6_10
REMARK                            x       y       z     vdW  Elec       q    Type
REMARK                         _______ _______ _______ _____ _____    ______ ____
ROOT
ATOM      1  C4  UNL     1     -24.177   5.139 -39.138  0.00  0.00    +0.000 C 
ATOM      2  O2  UNL     1     -24.287   4.955 -40.348  0.00  0.00    +0.000 OA
ATOM      3  N2  UNL     1     -24.814   4.319 -38.221  0.00  0.00    +0.000 N 
ATOM      4  H3  UNL     1     -24.583   4.390 -37.243  0.00  0.00    +0.000 HD
ENDROOT
BRANCH   1   9
ATOM      5  N1  UNL     1     -23.869   7.461 -38.430  0.00  0.00    +0.000 NA
ATOM      6  O1  UNL     1     -22.876   8.231 -37.862  0.00  0.00    +0.000 OA
ATOM      7  C1  UNL     1     -21.782   7.468 -37.644  0.00  0.00    +0.000 A 
ATOM      8  C2  UNL     1     -22.031   6.188 -38.062  0.00  0.00    +0.000 A 
ATOM      9  C3  UNL     1     -23.365   6.220 -38.559  0.00  0.00    +0.000 A 
ENDBRANCH   1   9
BRANCH   3  10
ATOM     10  C5  UNL     1     -25.550   3.149 -38.646  0.00  0.00    +0.000 C 
BRANCH  10  11
ATOM     11  C6  UNL     1     -26.954   3.510 -39.030  0.00  0.00    +0.000 A 
ATOM     12  C7  UNL     1     -27.802   4.200 -38.157  0.00  0.00    +0.000 A 
ATOM     13  C8  UNL     1     -29.104   4.497 -38.551  0.00  0.00    +0.000 A 
ATOM     14  C9  UNL     1     -29.519   4.087 -39.806  0.00  0.00    +0.000 A 
ATOM     15  N3  UNL     1     -28.735   3.412 -40.672  0.00  0.00    +0.000 NA
ATOM     16  C10 UNL     1     -27.473   3.138 -40.266  0.00  0.00    +0.000 A 
ENDBRANCH  10  11
ENDBRANCH   3  10
TORSDOF 3
ENDMDL
MODEL 5
REMARK VINA RESULT:    -4.314     13.885     15.763
REMARK INTER + INTRA:          -5.325
REMARK INTER:                  -5.115
REMARK INTRA:                  -0.210
REMARK UNBOUND:                -0.254
REMARK  Name = /home/anacleto/Desktop/manuscript_Mpro/naturecomm/supplementary_file_S2/6-chemical-library/molecular_docking/3D_ligand_structure/829.pdb
REMARK  3 active torsions:
REMARK  status: ('A' for Active; 'I' for Inactive)
REMARK    1  A    between atoms: C3_5  and  C4_6
REMARK    2  A    between atoms: N2_8  and  C5_9
REMARK    3  A    between atoms: C5_9  and  C6_10
REMARK                            x       y       z     vdW  Elec       q    Type
REMARK                         _______ _______ _______ _____ _____    ______ ____
ROOT
ATOM      1  C4  UNL     1     -22.245  -4.405 -28.722  0.00  0.00    +0.000 C 
ATOM      2  O2  UNL     1     -22.416  -5.192 -29.649  0.00  0.00    +0.000 OA
ATOM      3  N2  UNL     1     -23.191  -3.442 -28.407  0.00  0.00    +0.000 N 
ATOM      4  H3  UNL     1     -23.104  -2.917 -27.552  0.00  0.00    +0.000 HD
ENDROOT
BRANCH   1   9
ATOM      5  N1  UNL     1     -21.124  -4.808 -26.584  0.00  0.00    +0.000 NA
ATOM      6  O1  UNL     1     -19.851  -4.703 -26.064  0.00  0.00    +0.000 OA
ATOM      7  C1  UNL     1     -19.008  -4.255 -27.021  0.00  0.00    +0.000 A 
ATOM      8  C2  UNL     1     -19.705  -4.055 -28.183  0.00  0.00    +0.000 A 
ATOM      9  C3  UNL     1     -21.047  -4.413 -27.868  0.00  0.00    +0.000 A 
ENDBRANCH   1   9
BRANCH   3  10
ATOM     10  C5  UNL     1     -24.465  -3.393 -29.087  0.00  0.00    +0.000 C 
BRANCH  10  11
ATOM     11  C6  UNL     1     -25.569  -3.872 -28.192  0.00  0.00    +0.000 A 
ATOM     12  C7  UNL     1     -25.316  -4.672 -27.073  0.00  0.00    +0.000 A 
ATOM     13  C8  UNL     1     -26.375  -5.107 -26.282  0.00  0.00    +0.000 A 
ATOM     14  C9  UNL     1     -27.659  -4.734 -26.640  0.00  0.00    +0.000 A 
ATOM     15  N3  UNL     1     -27.944  -3.972 -27.716  0.00  0.00    +0.000 NA
ATOM     16  C10 UNL     1     -26.897  -3.559 -28.468  0.00  0.00    +0.000 A 
ENDBRANCH  10  11
ENDBRANCH   3  10
TORSDOF 3
ENDMDL
MODEL 6
REMARK VINA RESULT:    -4.205     14.693     16.668
REMARK INTER + INTRA:          -5.196
REMARK INTER:                  -4.902
REMARK INTRA:                  -0.294
REMARK UNBOUND:                -0.254
REMARK  Name = /home/anacleto/Desktop/manuscript_Mpro/naturecomm/supplementary_file_S2/6-chemical-library/molecular_docking/3D_ligand_structure/829.pdb
REMARK  3 active torsions:
REMARK  status: ('A' for Active; 'I' for Inactive)
REMARK    1  A    between atoms: C3_5  and  C4_6
REMARK    2  A    between atoms: N2_8  and  C5_9
REMARK    3  A    between atoms: C5_9  and  C6_10
REMARK                            x       y       z     vdW  Elec       q    Type
REMARK                         _______ _______ _______ _____ _____    ______ ____
ROOT
ATOM      1  C4  UNL     1     -24.977  -4.210 -25.639  0.00  0.00    +0.000 C 
ATOM      2  O2  UNL     1     -25.986  -4.900 -25.519  0.00  0.00    +0.000 OA
ATOM      3  N2  UNL     1     -24.623  -3.651 -26.856  0.00  0.00    +0.000 N 
ATOM      4  H3  UNL     1     -23.887  -2.964 -26.895  0.00  0.00    +0.000 HD
ENDROOT
BRANCH   1   9
ATOM      5  N1  UNL     1     -23.089  -4.765 -24.184  0.00  0.00    +0.000 NA
ATOM      6  O1  UNL     1     -22.426  -4.203 -23.113  0.00  0.00    +0.000 OA
ATOM      7  C1  UNL     1     -22.994  -3.015 -22.805  0.00  0.00    +0.000 A 
ATOM      8  C2  UNL     1     -24.036  -2.774 -23.659  0.00  0.00    +0.000 A 
ATOM      9  C3  UNL     1     -24.070  -3.908 -24.520  0.00  0.00    +0.000 A 
ENDBRANCH   1   9
BRANCH   3  10
ATOM     10  C5  UNL     1     -25.483  -3.768 -28.012  0.00  0.00    +0.000 C 
BRANCH  10  11
ATOM     11  C6  UNL     1     -24.993  -4.843 -28.937  0.00  0.00    +0.000 A 
ATOM     12  C7  UNL     1     -25.664  -6.063 -29.068  0.00  0.00    +0.000 A 
ATOM     13  C8  UNL     1     -25.162  -7.039 -29.925  0.00  0.00    +0.000 A 
ATOM     14  C9  UNL     1     -23.996  -6.764 -30.620  0.00  0.00    +0.000 A 
ATOM     15  N3  UNL     1     -23.316  -5.604 -30.513  0.00  0.00    +0.000 NA
ATOM     16  C10 UNL     1     -23.826  -4.672 -29.675  0.00  0.00    +0.000 A 
ENDBRANCH  10  11
ENDBRANCH   3  10
TORSDOF 3
ENDMDL
MODEL 7
REMARK VINA RESULT:    -4.143      2.141      2.768
REMARK INTER + INTRA:          -5.124
REMARK INTER:                  -4.892
REMARK INTRA:                  -0.232
REMARK UNBOUND:                -0.254
REMARK  Name = /home/anacleto/Desktop/manuscript_Mpro/naturecomm/supplementary_file_S2/6-chemical-library/molecular_docking/3D_ligand_structure/829.pdb
REMARK  3 active torsions:
REMARK  status: ('A' for Active; 'I' for Inactive)
REMARK    1  A    between atoms: C3_5  and  C4_6
REMARK    2  A    between atoms: N2_8  and  C5_9
REMARK    3  A    between atoms: C5_9  and  C6_10
REMARK                            x       y       z     vdW  Elec       q    Type
REMARK                         _______ _______ _______ _____ _____    ______ ____
ROOT
ATOM      1  C4  UNL     1     -26.936   4.096 -38.487  0.00  0.00    +0.000 C 
ATOM      2  O2  UNL     1     -26.716   3.130 -37.761  0.00  0.00    +0.000 OA
ATOM      3  N2  UNL     1     -25.920   4.954 -38.876  0.00  0.00    +0.000 N 
ATOM      4  H3  UNL     1     -26.092   5.639 -39.594  0.00  0.00    +0.000 HD
ENDROOT
BRANCH   1   9
ATOM      5  N1  UNL     1     -29.142   5.135 -38.273  0.00  0.00    +0.000 NA
ATOM      6  O1  UNL     1     -30.284   5.270 -39.034  0.00  0.00    +0.000 OA
ATOM      7  C1  UNL     1     -30.109   4.651 -40.223  0.00  0.00    +0.000 A 
ATOM      8  C2  UNL     1     -28.857   4.099 -40.269  0.00  0.00    +0.000 A 
ATOM      9  C3  UNL     1     -28.271   4.422 -39.011  0.00  0.00    +0.000 A 
ENDBRANCH   1   9
BRANCH   3  10
ATOM     10  C5  UNL     1     -24.542   4.688 -38.531  0.00  0.00    +0.000 C 
BRANCH  10  11
ATOM     11  C6  UNL     1     -23.780   5.967 -38.349  0.00  0.00    +0.000 A 
ATOM     12  C7  UNL     1     -22.443   5.976 -37.939  0.00  0.00    +0.000 A 
ATOM     13  C8  UNL     1     -21.781   7.188 -37.766  0.00  0.00    +0.000 A 
ATOM     14  C9  UNL     1     -22.483   8.358 -38.004  0.00  0.00    +0.000 A 
ATOM     15  N3  UNL     1     -23.774   8.391 -38.392  0.00  0.00    +0.000 NA
ATOM     16  C10 UNL     1     -24.394   7.199 -38.554  0.00  0.00    +0.000 A 
ENDBRANCH  10  11
ENDBRANCH   3  10
TORSDOF 3
ENDMDL
MODEL 8
REMARK VINA RESULT:    -4.113     14.214     15.247
REMARK INTER + INTRA:          -5.088
REMARK INTER:                  -4.786
REMARK INTRA:                  -0.302
REMARK UNBOUND:                -0.254
REMARK  Name = /home/anacleto/Desktop/manuscript_Mpro/naturecomm/supplementary_file_S2/6-chemical-library/molecular_docking/3D_ligand_structure/829.pdb
REMARK  3 active torsions:
REMARK  status: ('A' for Active; 'I' for Inactive)
REMARK    1  A    between atoms: C3_5  and  C4_6
REMARK    2  A    between atoms: N2_8  and  C5_9
REMARK    3  A    between atoms: C5_9  and  C6_10
REMARK                            x       y       z     vdW  Elec       q    Type
REMARK                         _______ _______ _______ _____ _____    ______ ____
ROOT
ATOM      1  C4  UNL     1     -24.528  -4.008 -28.889  0.00  0.00    +0.000 C 
ATOM      2  O2  UNL     1     -24.133  -2.938 -29.344  0.00  0.00    +0.000 OA
ATOM      3  N2  UNL     1     -23.879  -5.198 -29.172  0.00  0.00    +0.000 N 
ATOM      4  H3  UNL     1     -24.122  -6.034 -28.665  0.00  0.00    +0.000 HD
ENDROOT
BRANCH   1   9
ATOM      5  N1  UNL     1     -25.639  -4.851 -26.877  0.00  0.00    +0.000 NA
ATOM      6  O1  UNL     1     -26.882  -4.763 -26.286  0.00  0.00    +0.000 OA
ATOM      7  C1  UNL     1     -27.689  -3.989 -27.045  0.00  0.00    +0.000 A 
ATOM      8  C2  UNL     1     -26.999  -3.555 -28.146  0.00  0.00    +0.000 A 
ATOM      9  C3  UNL     1     -25.701  -4.125 -28.008  0.00  0.00    +0.000 A 
ENDBRANCH   1   9
BRANCH   3  10
ATOM     10  C5  UNL     1     -22.647  -5.218 -29.929  0.00  0.00    +0.000 C 
BRANCH  10  11
ATOM     11  C6  UNL     1     -21.458  -5.240 -29.015  0.00  0.00    +0.000 A 
ATOM     12  C7  UNL     1     -20.808  -4.065 -28.625  0.00  0.00    +0.000 A 
ATOM     13  C8  UNL     1     -19.696  -4.135 -27.790  0.00  0.00    +0.000 A 
ATOM     14  C9  UNL     1     -19.264  -5.384 -27.377  0.00  0.00    +0.000 A 
ATOM     15  N3  UNL     1     -19.858  -6.540 -27.739  0.00  0.00    +0.000 NA
ATOM     16  C10 UNL     1     -20.938  -6.444 -28.550  0.00  0.00    +0.000 A 
ENDBRANCH  10  11
ENDBRANCH   3  10
TORSDOF 3
ENDMDL
MODEL 9
REMARK VINA RESULT:    -4.017     14.376     15.077
REMARK INTER + INTRA:          -4.975
REMARK INTER:                  -4.721
REMARK INTRA:                  -0.254
REMARK UNBOUND:                -0.254
REMARK  Name = /home/anacleto/Desktop/manuscript_Mpro/naturecomm/supplementary_file_S2/6-chemical-library/molecular_docking/3D_ligand_structure/829.pdb
REMARK  3 active torsions:
REMARK  status: ('A' for Active; 'I' for Inactive)
REMARK    1  A    between atoms: C3_5  and  C4_6
REMARK    2  A    between atoms: N2_8  and  C5_9
REMARK    3  A    between atoms: C5_9  and  C6_10
REMARK                            x       y       z     vdW  Elec       q    Type
REMARK                         _______ _______ _______ _____ _____    ______ ____
ROOT
ATOM      1  C4  UNL     1     -24.259  -4.107 -27.177  0.00  0.00    +0.000 C 
ATOM      2  O2  UNL     1     -23.816  -4.543 -26.118  0.00  0.00    +0.000 OA
ATOM      3  N2  UNL     1     -23.419  -3.666 -28.186  0.00  0.00    +0.000 N 
ATOM      4  H3  UNL     1     -23.796  -3.464 -29.098  0.00  0.00    +0.000 HD
ENDROOT
BRANCH   1   9
ATOM      5  N1  UNL     1     -26.138  -3.322 -28.536  0.00  0.00    +0.000 NA
ATOM      6  O1  UNL     1     -27.512  -3.435 -28.538  0.00  0.00    +0.000 OA
ATOM      7  C1  UNL     1     -27.904  -4.197 -27.492  0.00  0.00    +0.000 A 
ATOM      8  C2  UNL     1     -26.803  -4.598 -26.784  0.00  0.00    +0.000 A 
ATOM      9  C3  UNL     1     -25.698  -4.021 -27.474  0.00  0.00    +0.000 A 
ENDBRANCH   1   9
BRANCH   3  10
ATOM     10  C5  UNL     1     -21.983  -3.800 -28.078  0.00  0.00    +0.000 C 
BRANCH  10  11
ATOM     11  C6  UNL     1     -21.457  -4.769 -29.094  0.00  0.00    +0.000 A 
ATOM     12  C7  UNL     1     -20.085  -4.941 -29.307  0.00  0.00    +0.000 A 
ATOM     13  C8  UNL     1     -19.644  -5.839 -30.275  0.00  0.00    +0.000 A 
ATOM     14  C9  UNL     1     -20.592  -6.534 -31.006  0.00  0.00    +0.000 A 
ATOM     15  N3  UNL     1     -21.922  -6.389 -30.837  0.00  0.00    +0.000 NA
ATOM     16  C10 UNL     1     -22.326  -5.511 -29.889  0.00  0.00    +0.000 A 
ENDBRANCH  10  11
ENDBRANCH   3  10
TORSDOF 3
ENDMDL
