MODEL 1
REMARK VINA RESULT:    -4.503      0.000      0.000
REMARK INTER + INTRA:          -4.503
REMARK INTER:                  -4.503
REMARK INTRA:                   0.000
REMARK UNBOUND:                 0.000
REMARK  Name = /home/anacleto/Desktop/manuscript_Mpro/naturecomm/supplementary_file_S2/6-chemical-library/molecular_docking/3D_ligand_structure/195.pdb
REMARK  0 active torsions:
REMARK  status: ('A' for Active; 'I' for Inactive)
REMARK                            x       y       z     vdW  Elec       q    Type
REMARK                         _______ _______ _______ _____ _____    ______ ____
ROOT
ATOM      1  C1  UNL     1     -40.035   8.463 -14.349  0.00  0.00    +0.000 A 
ATOM      2  C2  UNL     1     -39.533   9.586 -15.012  0.00  0.00    +0.000 A 
ATOM      3  C3  UNL     1     -38.317   9.515 -15.695  0.00  0.00    +0.000 A 
ATOM      4  C4  UNL     1     -37.596   8.321 -15.721  0.00  0.00    +0.000 A 
ATOM      5  C5  UNL     1     -38.098   7.201 -15.059  0.00  0.00    +0.000 A 
ATOM      6  C6  UNL     1     -39.318   7.263 -14.370  0.00  0.00    +0.000 A 
ATOM      7  N1  UNL     1     -37.381   5.997 -15.078  0.00  0.00    +0.000 N 
ATOM      8  C7  UNL     1     -37.806   4.857 -14.455  0.00  0.00    +0.000 A 
ATOM      9  O1  UNL     1     -37.163   3.813 -14.484  0.00  0.00    +0.000 OA
ATOM     10  C8  UNL     1     -39.098   4.932 -13.728  0.00  0.00    +0.000 A 
ATOM     11  C9  UNL     1     -39.810   6.065 -13.687  0.00  0.00    +0.000 A 
ATOM     12  H5  UNL     1     -36.501   5.934 -15.570  0.00  0.00    +0.000 HD
ENDROOT
TORSDOF 0
ENDMDL
MODEL 2
REMARK VINA RESULT:    -4.502     17.200     18.501
REMARK INTER + INTRA:          -4.502
REMARK INTER:                  -4.502
REMARK INTRA:                   0.000
REMARK UNBOUND:                 0.000
REMARK  Name = /home/anacleto/Desktop/manuscript_Mpro/naturecomm/supplementary_file_S2/6-chemical-library/molecular_docking/3D_ligand_structure/195.pdb
REMARK  0 active torsions:
REMARK  status: ('A' for Active; 'I' for Inactive)
REMARK                            x       y       z     vdW  Elec       q    Type
REMARK                         _______ _______ _______ _____ _____    ______ ____
ROOT
ATOM      1  C1  UNL     1     -36.900  10.900 -31.529  0.00  0.00    +0.000 A 
ATOM      2  C2  UNL     1     -37.482  11.379 -30.353  0.00  0.00    +0.000 A 
ATOM      3  C3  UNL     1     -36.892  12.434 -29.654  0.00  0.00    +0.000 A 
ATOM      4  C4  UNL     1     -35.717  13.018 -30.129  0.00  0.00    +0.000 A 
ATOM      5  C5  UNL     1     -35.137  12.539 -31.303  0.00  0.00    +0.000 A 
ATOM      6  C6  UNL     1     -35.723  11.480 -32.010  0.00  0.00    +0.000 A 
ATOM      7  N1  UNL     1     -33.957  13.119 -31.787  0.00  0.00    +0.000 N 
ATOM      8  C7  UNL     1     -33.328  12.707 -32.929  0.00  0.00    +0.000 A 
ATOM      9  O1  UNL     1     -32.295  13.228 -33.336  0.00  0.00    +0.000 OA
ATOM     10  C8  UNL     1     -33.955  11.585 -33.671  0.00  0.00    +0.000 A 
ATOM     11  C9  UNL     1     -35.083  11.006 -33.239  0.00  0.00    +0.000 A 
ATOM     12  H5  UNL     1     -33.521  13.884 -31.290  0.00  0.00    +0.000 HD
ENDROOT
TORSDOF 0
ENDMDL
MODEL 3
REMARK VINA RESULT:    -4.497     16.726     18.023
REMARK INTER + INTRA:          -4.497
REMARK INTER:                  -4.497
REMARK INTRA:                   0.000
REMARK UNBOUND:                 0.000
REMARK  Name = /home/anacleto/Desktop/manuscript_Mpro/naturecomm/supplementary_file_S2/6-chemical-library/molecular_docking/3D_ligand_structure/195.pdb
REMARK  0 active torsions:
REMARK  status: ('A' for Active; 'I' for Inactive)
REMARK                            x       y       z     vdW  Elec       q    Type
REMARK                         _______ _______ _______ _____ _____    ______ ____
ROOT
ATOM      1  C1  UNL     1     -34.990  10.964 -33.099  0.00  0.00    +0.000 A 
ATOM      2  C2  UNL     1     -33.811  11.562 -33.551  0.00  0.00    +0.000 A 
ATOM      3  C3  UNL     1     -33.295  12.683 -32.898  0.00  0.00    +0.000 A 
ATOM      4  C4  UNL     1     -33.954  13.212 -31.788  0.00  0.00    +0.000 A 
ATOM      5  C5  UNL     1     -35.131  12.615 -31.338  0.00  0.00    +0.000 A 
ATOM      6  C6  UNL     1     -35.657  11.489 -31.988  0.00  0.00    +0.000 A 
ATOM      7  N1  UNL     1     -35.800  13.139 -30.225  0.00  0.00    +0.000 N 
ATOM      8  C7  UNL     1     -36.958  12.611 -29.723  0.00  0.00    +0.000 A 
ATOM      9  O1  UNL     1     -37.528  13.086 -28.747  0.00  0.00    +0.000 OA
ATOM     10  C8  UNL     1     -37.507  11.420 -30.418  0.00  0.00    +0.000 A 
ATOM     11  C9  UNL     1     -36.894  10.891 -31.485  0.00  0.00    +0.000 A 
ATOM     12  H5  UNL     1     -35.436  13.950 -29.743  0.00  0.00    +0.000 HD
ENDROOT
TORSDOF 0
ENDMDL
MODEL 4
REMARK VINA RESULT:    -4.490      2.011      3.997
REMARK INTER + INTRA:          -4.490
REMARK INTER:                  -4.490
REMARK INTRA:                   0.000
REMARK UNBOUND:                 0.000
REMARK  Name = /home/anacleto/Desktop/manuscript_Mpro/naturecomm/supplementary_file_S2/6-chemical-library/molecular_docking/3D_ligand_structure/195.pdb
REMARK  0 active torsions:
REMARK  status: ('A' for Active; 'I' for Inactive)
REMARK                            x       y       z     vdW  Elec       q    Type
REMARK                         _______ _______ _______ _____ _____    ______ ____
ROOT
ATOM      1  C1  UNL     1     -38.821   5.065 -12.484  0.00  0.00    +0.000 A 
ATOM      2  C2  UNL     1     -38.430   3.743 -12.714  0.00  0.00    +0.000 A 
ATOM      3  C3  UNL     1     -37.696   3.416 -13.855  0.00  0.00    +0.000 A 
ATOM      4  C4  UNL     1     -37.346   4.407 -14.773  0.00  0.00    +0.000 A 
ATOM      5  C5  UNL     1     -37.737   5.725 -14.542  0.00  0.00    +0.000 A 
ATOM      6  C6  UNL     1     -38.476   6.064 -13.399  0.00  0.00    +0.000 A 
ATOM      7  N1  UNL     1     -37.391   6.727 -15.458  0.00  0.00    +0.000 N 
ATOM      8  C7  UNL     1     -37.737   8.042 -15.303  0.00  0.00    +0.000 A 
ATOM      9  O1  UNL     1     -37.424   8.904 -16.116  0.00  0.00    +0.000 OA
ATOM     10  C8  UNL     1     -38.518   8.391 -14.090  0.00  0.00    +0.000 A 
ATOM     11  C9  UNL     1     -38.867   7.459 -13.193  0.00  0.00    +0.000 A 
ATOM     12  H5  UNL     1     -36.859   6.502 -16.286  0.00  0.00    +0.000 HD
ENDROOT
TORSDOF 0
ENDMDL
MODEL 5
REMARK VINA RESULT:    -4.417     28.867     30.257
REMARK INTER + INTRA:          -4.417
REMARK INTER:                  -4.417
REMARK INTRA:                   0.000
REMARK UNBOUND:                 0.000
REMARK  Name = /home/anacleto/Desktop/manuscript_Mpro/naturecomm/supplementary_file_S2/6-chemical-library/molecular_docking/3D_ligand_structure/195.pdb
REMARK  0 active torsions:
REMARK  status: ('A' for Active; 'I' for Inactive)
REMARK                            x       y       z     vdW  Elec       q    Type
REMARK                         _______ _______ _______ _____ _____    ______ ____
ROOT
ATOM      1  C1  UNL     1     -18.399   8.162 -39.271  0.00  0.00    +0.000 A 
ATOM      2  C2  UNL     1     -17.391   9.076 -39.590  0.00  0.00    +0.000 A 
ATOM      3  C3  UNL     1     -17.489  10.405 -39.173  0.00  0.00    +0.000 A 
ATOM      4  C4  UNL     1     -18.594  10.828 -38.433  0.00  0.00    +0.000 A 
ATOM      5  C5  UNL     1     -19.598   9.914 -38.116  0.00  0.00    +0.000 A 
ATOM      6  C6  UNL     1     -19.509   8.578 -38.531  0.00  0.00    +0.000 A 
ATOM      7  N1  UNL     1     -20.712  10.330 -37.373  0.00  0.00    +0.000 N 
ATOM      8  C7  UNL     1     -21.738   9.496 -37.022  0.00  0.00    +0.000 A 
ATOM      9  O1  UNL     1     -22.704   9.880 -36.372  0.00  0.00    +0.000 OA
ATOM     10  C8  UNL     1     -21.634   8.083 -37.466  0.00  0.00    +0.000 A 
ATOM     11  C9  UNL     1     -20.585   7.651 -38.177  0.00  0.00    +0.000 A 
ATOM     12  H5  UNL     1     -20.793  11.288 -37.065  0.00  0.00    +0.000 HD
ENDROOT
TORSDOF 0
ENDMDL
MODEL 6
REMARK VINA RESULT:    -4.403     29.331     30.753
REMARK INTER + INTRA:          -4.403
REMARK INTER:                  -4.403
REMARK INTRA:                   0.000
REMARK UNBOUND:                 0.000
REMARK  Name = /home/anacleto/Desktop/manuscript_Mpro/naturecomm/supplementary_file_S2/6-chemical-library/molecular_docking/3D_ligand_structure/195.pdb
REMARK  0 active torsions:
REMARK  status: ('A' for Active; 'I' for Inactive)
REMARK                            x       y       z     vdW  Elec       q    Type
REMARK                         _______ _______ _______ _____ _____    ______ ____
ROOT
ATOM      1  C1  UNL     1     -20.391   6.771 -39.398  0.00  0.00    +0.000 A 
ATOM      2  C2  UNL     1     -21.543   6.488 -38.659  0.00  0.00    +0.000 A 
ATOM      3  C3  UNL     1     -21.957   7.351 -37.643  0.00  0.00    +0.000 A 
ATOM      4  C4  UNL     1     -21.224   8.504 -37.360  0.00  0.00    +0.000 A 
ATOM      5  C5  UNL     1     -20.074   8.785 -38.098  0.00  0.00    +0.000 A 
ATOM      6  C6  UNL     1     -19.650   7.923 -39.120  0.00  0.00    +0.000 A 
ATOM      7  N1  UNL     1     -19.331   9.940 -37.821  0.00  0.00    +0.000 N 
ATOM      8  C7  UNL     1     -18.194  10.285 -38.499  0.00  0.00    +0.000 A 
ATOM      9  O1  UNL     1     -17.558  11.301 -38.241  0.00  0.00    +0.000 OA
ATOM     10  C8  UNL     1     -17.753   9.367 -39.579  0.00  0.00    +0.000 A 
ATOM     11  C9  UNL     1     -18.439   8.254 -39.871  0.00  0.00    +0.000 A 
ATOM     12  H5  UNL     1     -19.621  10.573 -37.089  0.00  0.00    +0.000 HD
ENDROOT
TORSDOF 0
ENDMDL
MODEL 7
REMARK VINA RESULT:    -4.315     25.660     26.642
REMARK INTER + INTRA:          -4.315
REMARK INTER:                  -4.315
REMARK INTRA:                   0.000
REMARK UNBOUND:                 0.000
REMARK  Name = /home/anacleto/Desktop/manuscript_Mpro/naturecomm/supplementary_file_S2/6-chemical-library/molecular_docking/3D_ligand_structure/195.pdb
REMARK  0 active torsions:
REMARK  status: ('A' for Active; 'I' for Inactive)
REMARK                            x       y       z     vdW  Elec       q    Type
REMARK                         _______ _______ _______ _____ _____    ______ ____
ROOT
ATOM      1  C1  UNL     1     -25.912   4.672 -38.950  0.00  0.00    +0.000 A 
ATOM      2  C2  UNL     1     -25.314   3.458 -38.603  0.00  0.00    +0.000 A 
ATOM      3  C3  UNL     1     -26.101   2.373 -38.211  0.00  0.00    +0.000 A 
ATOM      4  C4  UNL     1     -27.490   2.494 -38.166  0.00  0.00    +0.000 A 
ATOM      5  C5  UNL     1     -28.085   3.707 -38.512  0.00  0.00    +0.000 A 
ATOM      6  C6  UNL     1     -27.303   4.802 -38.906  0.00  0.00    +0.000 A 
ATOM      7  N1  UNL     1     -29.479   3.838 -38.469  0.00  0.00    +0.000 N 
ATOM      8  C7  UNL     1     -30.138   4.993 -38.793  0.00  0.00    +0.000 A 
ATOM      9  O1  UNL     1     -31.359   5.087 -38.749  0.00  0.00    +0.000 OA
ATOM     10  C8  UNL     1     -29.302   6.146 -39.209  0.00  0.00    +0.000 A 
ATOM     11  C9  UNL     1     -27.966   6.057 -39.262  0.00  0.00    +0.000 A 
ATOM     12  H5  UNL     1     -30.059   3.060 -38.188  0.00  0.00    +0.000 HD
ENDROOT
TORSDOF 0
ENDMDL
MODEL 8
REMARK VINA RESULT:    -4.279     28.277     29.606
REMARK INTER + INTRA:          -4.279
REMARK INTER:                  -4.279
REMARK INTRA:                   0.000
REMARK UNBOUND:                 0.000
REMARK  Name = /home/anacleto/Desktop/manuscript_Mpro/naturecomm/supplementary_file_S2/6-chemical-library/molecular_docking/3D_ligand_structure/195.pdb
REMARK  0 active torsions:
REMARK  status: ('A' for Active; 'I' for Inactive)
REMARK                            x       y       z     vdW  Elec       q    Type
REMARK                         _______ _______ _______ _____ _____    ______ ____
ROOT
ATOM      1  C1  UNL     1     -22.803   7.783 -38.256  0.00  0.00    +0.000 A 
ATOM      2  C2  UNL     1     -23.596   8.674 -37.527  0.00  0.00    +0.000 A 
ATOM      3  C3  UNL     1     -23.026   9.806 -36.942  0.00  0.00    +0.000 A 
ATOM      4  C4  UNL     1     -21.661  10.056 -37.083  0.00  0.00    +0.000 A 
ATOM      5  C5  UNL     1     -20.871   9.166 -37.810  0.00  0.00    +0.000 A 
ATOM      6  C6  UNL     1     -21.435   8.026 -38.401  0.00  0.00    +0.000 A 
ATOM      7  N1  UNL     1     -19.499   9.408 -37.957  0.00  0.00    +0.000 N 
ATOM      8  C7  UNL     1     -18.658   8.585 -38.654  0.00  0.00    +0.000 A 
ATOM      9  O1  UNL     1     -17.460   8.815 -38.771  0.00  0.00    +0.000 OA
ATOM     10  C8  UNL     1     -19.264   7.381 -39.276  0.00  0.00    +0.000 A 
ATOM     11  C9  UNL     1     -20.572   7.117 -39.157  0.00  0.00    +0.000 A 
ATOM     12  H5  UNL     1     -19.075  10.225 -37.538  0.00  0.00    +0.000 HD
ENDROOT
TORSDOF 0
ENDMDL
MODEL 9
REMARK VINA RESULT:    -4.203     26.660     27.670
REMARK INTER + INTRA:          -4.203
REMARK INTER:                  -4.203
REMARK INTRA:                   0.000
REMARK UNBOUND:                 0.000
REMARK  Name = /home/anacleto/Desktop/manuscript_Mpro/naturecomm/supplementary_file_S2/6-chemical-library/molecular_docking/3D_ligand_structure/195.pdb
REMARK  0 active torsions:
REMARK  status: ('A' for Active; 'I' for Inactive)
REMARK                            x       y       z     vdW  Elec       q    Type
REMARK                         _______ _______ _______ _____ _____    ______ ____
ROOT
ATOM      1  C1  UNL     1     -22.514   7.411 -38.202  0.00  0.00    +0.000 A 
ATOM      2  C2  UNL     1     -21.288   7.754 -37.626  0.00  0.00    +0.000 A 
ATOM      3  C3  UNL     1     -21.149   8.956 -36.930  0.00  0.00    +0.000 A 
ATOM      4  C4  UNL     1     -22.236   9.822 -36.803  0.00  0.00    +0.000 A 
ATOM      5  C5  UNL     1     -23.459   9.478 -37.378  0.00  0.00    +0.000 A 
ATOM      6  C6  UNL     1     -23.607   8.273 -38.079  0.00  0.00    +0.000 A 
ATOM      7  N1  UNL     1     -24.555  10.342 -37.256  0.00  0.00    +0.000 N 
ATOM      8  C7  UNL     1     -25.786  10.077 -37.791  0.00  0.00    +0.000 A 
ATOM      9  O1  UNL     1     -26.734  10.846 -37.673  0.00  0.00    +0.000 OA
ATOM     10  C8  UNL     1     -25.934   8.799 -38.531  0.00  0.00    +0.000 A 
ATOM     11  C9  UNL     1     -24.908   7.949 -38.668  0.00  0.00    +0.000 A 
ATOM     12  H5  UNL     1     -24.467  11.214 -36.754  0.00  0.00    +0.000 HD
ENDROOT
TORSDOF 0
ENDMDL
