MODEL 1
REMARK VINA RESULT:    -5.001      0.000      0.000
REMARK INTER + INTRA:          -6.219
REMARK INTER:                  -5.961
REMARK INTRA:                  -0.259
REMARK UNBOUND:                -0.341
REMARK  Name = /home/anacleto/Desktop/manuscript_Mpro/naturecomm/supplementary_file_S2/6-chemical-library/molecular_docking/3D_ligand_structure/845.pdb
REMARK  3 active torsions:
REMARK  status: ('A' for Active; 'I' for Inactive)
REMARK    1  A    between atoms: N2_5  and  C4_6
REMARK    2  A    between atoms: C4_6  and  C5_7
REMARK    3  A    between atoms: N3_9  and  C6_10
REMARK                            x       y       z     vdW  Elec       q    Type
REMARK                         _______ _______ _______ _____ _____    ______ ____
ROOT
ATOM      1  C5  UNL     1      16.048  10.843  -2.571  0.00  0.00    +0.000 C 
ATOM      2  O1  UNL     1      16.804   9.991  -3.032  0.00  0.00    +0.000 OA
ATOM      3  N3  UNL     1      15.025  11.479  -3.255  0.00  0.00    +0.000 N 
ATOM      4  H6  UNL     1      14.507  12.198  -2.760  0.00  0.00    +0.000 HD
ENDROOT
BRANCH   3   5
ATOM      5  C6  UNL     1      14.653  11.304  -4.605  0.00  0.00    +0.000 A 
ATOM      6  C7  UNL     1      15.479  11.887  -5.575  0.00  0.00    +0.000 A 
ATOM      7  C8  UNL     1      15.183  11.765  -6.934  0.00  0.00    +0.000 A 
ATOM      8  C9  UNL     1      14.055  11.059  -7.339  0.00  0.00    +0.000 A 
ATOM      9  C10 UNL     1      13.225  10.476  -6.383  0.00  0.00    +0.000 A 
ATOM     10  C11 UNL     1      13.523  10.599  -5.022  0.00  0.00    +0.000 A 
ENDBRANCH   3   5
BRANCH   1  11
ATOM     11  C4  UNL     1      16.155  11.213  -1.100  0.00  0.00    +0.000 C 
BRANCH  11  16
ATOM     12  C1  UNL     1      17.039  13.475  -0.480  0.00  0.00    +0.000 A 
ATOM     13  N1  UNL     1      18.191  14.058  -0.239  0.00  0.00    +0.000 NA
ATOM     14  C2  UNL     1      19.142  13.094  -0.450  0.00  0.00    +0.000 A 
ATOM     15  C3  UNL     1      18.555  11.902  -0.807  0.00  0.00    +0.000 A 
ATOM     16  N2  UNL     1      17.212  12.161  -0.810  0.00  0.00    +0.000 N 
ENDBRANCH  11  16
ENDBRANCH   1  11
TORSDOF 3
ENDMDL
MODEL 2
REMARK VINA RESULT:    -4.830      3.639      4.283
REMARK INTER + INTRA:          -6.019
REMARK INTER:                  -5.734
REMARK INTRA:                  -0.284
REMARK UNBOUND:                -0.341
REMARK  Name = /home/anacleto/Desktop/manuscript_Mpro/naturecomm/supplementary_file_S2/6-chemical-library/molecular_docking/3D_ligand_structure/845.pdb
REMARK  3 active torsions:
REMARK  status: ('A' for Active; 'I' for Inactive)
REMARK    1  A    between atoms: N2_5  and  C4_6
REMARK    2  A    between atoms: C4_6  and  C5_7
REMARK    3  A    between atoms: N3_9  and  C6_10
REMARK                            x       y       z     vdW  Elec       q    Type
REMARK                         _______ _______ _______ _____ _____    ______ ____
ROOT
ATOM      1  C5  UNL     1      14.961  13.853  -2.836  0.00  0.00    +0.000 C 
ATOM      2  O1  UNL     1      14.974  12.759  -2.276  0.00  0.00    +0.000 OA
ATOM      3  N3  UNL     1      14.748  14.072  -4.187  0.00  0.00    +0.000 N 
ATOM      4  H6  UNL     1      14.810  15.029  -4.521  0.00  0.00    +0.000 HD
ENDROOT
BRANCH   3   5
ATOM      5  C6  UNL     1      14.524  13.107  -5.191  0.00  0.00    +0.000 A 
ATOM      6  C7  UNL     1      15.472  13.028  -6.221  0.00  0.00    +0.000 A 
ATOM      7  C8  UNL     1      15.326  12.103  -7.258  0.00  0.00    +0.000 A 
ATOM      8  C9  UNL     1      14.230  11.246  -7.276  0.00  0.00    +0.000 A 
ATOM      9  C10 UNL     1      13.281  11.317  -6.258  0.00  0.00    +0.000 A 
ATOM     10  C11 UNL     1      13.427  12.244  -5.221  0.00  0.00    +0.000 A 
ENDBRANCH   3   5
BRANCH   1  11
ATOM     11  C4  UNL     1      15.113  15.115  -2.003  0.00  0.00    +0.000 C 
BRANCH  11  16
ATOM     12  C1  UNL     1      12.663  15.500  -1.636  0.00  0.00    +0.000 A 
ATOM     13  N1  UNL     1      11.802  16.493  -1.648  0.00  0.00    +0.000 NA
ATOM     14  C2  UNL     1      12.521  17.598  -2.020  0.00  0.00    +0.000 A 
ATOM     15  C3  UNL     1      13.844  17.275  -2.218  0.00  0.00    +0.000 A 
ATOM     16  N2  UNL     1      13.918  15.934  -1.958  0.00  0.00    +0.000 N 
ENDBRANCH  11  16
ENDBRANCH   1  11
TORSDOF 3
ENDMDL
MODEL 3
REMARK VINA RESULT:    -4.648      2.675      2.808
REMARK INTER + INTRA:          -5.804
REMARK INTER:                  -5.469
REMARK INTRA:                  -0.335
REMARK UNBOUND:                -0.341
REMARK  Name = /home/anacleto/Desktop/manuscript_Mpro/naturecomm/supplementary_file_S2/6-chemical-library/molecular_docking/3D_ligand_structure/845.pdb
REMARK  3 active torsions:
REMARK  status: ('A' for Active; 'I' for Inactive)
REMARK    1  A    between atoms: N2_5  and  C4_6
REMARK    2  A    between atoms: C4_6  and  C5_7
REMARK    3  A    between atoms: N3_9  and  C6_10
REMARK                            x       y       z     vdW  Elec       q    Type
REMARK                         _______ _______ _______ _____ _____    ______ ____
ROOT
ATOM      1  C5  UNL     1      14.606  13.759  -2.974  0.00  0.00    +0.000 C 
ATOM      2  O1  UNL     1      15.005  12.719  -2.455  0.00  0.00    +0.000 OA
ATOM      3  N3  UNL     1      14.190  13.905  -4.287  0.00  0.00    +0.000 N 
ATOM      4  H6  UNL     1      13.928  14.836  -4.594  0.00  0.00    +0.000 HD
ENDROOT
BRANCH   3   5
ATOM      5  C6  UNL     1      14.154  12.918  -5.294  0.00  0.00    +0.000 A 
ATOM      6  C7  UNL     1      15.205  12.916  -6.222  0.00  0.00    +0.000 A 
ATOM      7  C8  UNL     1      15.246  11.975  -7.254  0.00  0.00    +0.000 A 
ATOM      8  C9  UNL     1      14.236  11.025  -7.369  0.00  0.00    +0.000 A 
ATOM      9  C10 UNL     1      13.187  11.018  -6.453  0.00  0.00    +0.000 A 
ATOM     10  C11 UNL     1      13.146  11.961  -5.421  0.00  0.00    +0.000 A 
ENDBRANCH   3   5
BRANCH   1  11
ATOM     11  C4  UNL     1      14.466  15.009  -2.120  0.00  0.00    +0.000 C 
BRANCH  11  16
ATOM     12  C1  UNL     1      16.742  16.042  -2.317  0.00  0.00    +0.000 A 
ATOM     13  N1  UNL     1      17.729  16.423  -1.538  0.00  0.00    +0.000 NA
ATOM     14  C2  UNL     1      17.345  16.086  -0.267  0.00  0.00    +0.000 A 
ATOM     15  C3  UNL     1      16.096  15.508  -0.273  0.00  0.00    +0.000 A 
ATOM     16  N2  UNL     1      15.723  15.498  -1.588  0.00  0.00    +0.000 N 
ENDBRANCH  11  16
ENDBRANCH   1  11
TORSDOF 3
ENDMDL
MODEL 4
REMARK VINA RESULT:    -4.643     13.853     15.736
REMARK INTER + INTRA:          -5.798
REMARK INTER:                  -5.499
REMARK INTRA:                  -0.299
REMARK UNBOUND:                -0.341
REMARK  Name = /home/anacleto/Desktop/manuscript_Mpro/naturecomm/supplementary_file_S2/6-chemical-library/molecular_docking/3D_ligand_structure/845.pdb
REMARK  3 active torsions:
REMARK  status: ('A' for Active; 'I' for Inactive)
REMARK    1  A    between atoms: N2_5  and  C4_6
REMARK    2  A    between atoms: C4_6  and  C5_7
REMARK    3  A    between atoms: N3_9  and  C6_10
REMARK                            x       y       z     vdW  Elec       q    Type
REMARK                         _______ _______ _______ _____ _____    ______ ____
ROOT
ATOM      1  C5  UNL     1      17.351   3.858   9.170  0.00  0.00    +0.000 C 
ATOM      2  O1  UNL     1      17.646   3.625  10.340  0.00  0.00    +0.000 OA
ATOM      3  N3  UNL     1      18.012   4.731   8.322  0.00  0.00    +0.000 N 
ATOM      4  H6  UNL     1      17.630   4.859   7.391  0.00  0.00    +0.000 HD
ENDROOT
BRANCH   3   5
ATOM      5  C6  UNL     1      19.131   5.538   8.619  0.00  0.00    +0.000 A 
ATOM      6  C7  UNL     1      18.918   6.922   8.688  0.00  0.00    +0.000 A 
ATOM      7  C8  UNL     1      19.970   7.794   8.974  0.00  0.00    +0.000 A 
ATOM      8  C9  UNL     1      21.250   7.292   9.193  0.00  0.00    +0.000 A 
ATOM      9  C10 UNL     1      21.473   5.919   9.126  0.00  0.00    +0.000 A 
ATOM     10  C11 UNL     1      20.418   5.045   8.839  0.00  0.00    +0.000 A 
ENDBRANCH   3   5
BRANCH   1  11
ATOM     11  C4  UNL     1      16.210   3.087   8.525  0.00  0.00    +0.000 C 
BRANCH  11  16
ATOM     12  C1  UNL     1      15.366   1.008   9.642  0.00  0.00    +0.000 A 
ATOM     13  N1  UNL     1      15.620  -0.281   9.661  0.00  0.00    +0.000 NA
ATOM     14  C2  UNL     1      16.702  -0.455   8.838  0.00  0.00    +0.000 A 
ATOM     15  C3  UNL     1      17.098   0.746   8.297  0.00  0.00    +0.000 A 
ATOM     16  N2  UNL     1      16.228   1.666   8.812  0.00  0.00    +0.000 N 
ENDBRANCH  11  16
ENDBRANCH   1  11
TORSDOF 3
ENDMDL
MODEL 5
REMARK VINA RESULT:    -4.456     14.017     15.999
REMARK INTER + INTRA:          -5.579
REMARK INTER:                  -5.362
REMARK INTRA:                  -0.217
REMARK UNBOUND:                -0.341
REMARK  Name = /home/anacleto/Desktop/manuscript_Mpro/naturecomm/supplementary_file_S2/6-chemical-library/molecular_docking/3D_ligand_structure/845.pdb
REMARK  3 active torsions:
REMARK  status: ('A' for Active; 'I' for Inactive)
REMARK    1  A    between atoms: N2_5  and  C4_6
REMARK    2  A    between atoms: C4_6  and  C5_7
REMARK    3  A    between atoms: N3_9  and  C6_10
REMARK                            x       y       z     vdW  Elec       q    Type
REMARK                         _______ _______ _______ _____ _____    ______ ____
ROOT
ATOM      1  C5  UNL     1      17.431   3.768   9.551  0.00  0.00    +0.000 C 
ATOM      2  O1  UNL     1      17.820   3.656  10.711  0.00  0.00    +0.000 OA
ATOM      3  N3  UNL     1      17.963   4.616   8.593  0.00  0.00    +0.000 N 
ATOM      4  H6  UNL     1      17.511   4.637   7.685  0.00  0.00    +0.000 HD
ENDROOT
BRANCH   3   5
ATOM      5  C6  UNL     1      19.029   5.527   8.746  0.00  0.00    +0.000 A 
ATOM      6  C7  UNL     1      20.323   4.990   8.799  0.00  0.00    +0.000 A 
ATOM      7  C8  UNL     1      21.436   5.820   8.953  0.00  0.00    +0.000 A 
ATOM      8  C9  UNL     1      21.267   7.198   9.056  0.00  0.00    +0.000 A 
ATOM      9  C10 UNL     1      19.986   7.742   9.005  0.00  0.00    +0.000 A 
ATOM     10  C11 UNL     1      18.871   6.910   8.852  0.00  0.00    +0.000 A 
ENDBRANCH   3   5
BRANCH   1  11
ATOM     11  C4  UNL     1      16.317   2.862   9.050  0.00  0.00    +0.000 C 
BRANCH  11  16
ATOM     12  C1  UNL     1      15.494   1.065  10.592  0.00  0.00    +0.000 A 
ATOM     13  N1  UNL     1      14.629   0.916  11.569  0.00  0.00    +0.000 NA
ATOM     14  C2  UNL     1      14.004   2.129  11.694  0.00  0.00    +0.000 A 
ATOM     15  C3  UNL     1      14.511   3.033  10.790  0.00  0.00    +0.000 A 
ATOM     16  N2  UNL     1      15.469   2.340  10.103  0.00  0.00    +0.000 N 
ENDBRANCH  11  16
ENDBRANCH   1  11
TORSDOF 3
ENDMDL
MODEL 6
REMARK VINA RESULT:    -4.411      2.023      6.743
REMARK INTER + INTRA:          -5.526
REMARK INTER:                  -5.320
REMARK INTRA:                  -0.206
REMARK UNBOUND:                -0.341
REMARK  Name = /home/anacleto/Desktop/manuscript_Mpro/naturecomm/supplementary_file_S2/6-chemical-library/molecular_docking/3D_ligand_structure/845.pdb
REMARK  3 active torsions:
REMARK  status: ('A' for Active; 'I' for Inactive)
REMARK    1  A    between atoms: N2_5  and  C4_6
REMARK    2  A    between atoms: C4_6  and  C5_7
REMARK    3  A    between atoms: N3_9  and  C6_10
REMARK                            x       y       z     vdW  Elec       q    Type
REMARK                         _______ _______ _______ _____ _____    ______ ____
ROOT
ATOM      1  C5  UNL     1      16.554  13.013  -2.129  0.00  0.00    +0.000 C 
ATOM      2  O1  UNL     1      17.230  13.358  -3.096  0.00  0.00    +0.000 OA
ATOM      3  N3  UNL     1      16.803  13.337  -0.806  0.00  0.00    +0.000 N 
ATOM      4  H6  UNL     1      16.184  12.945  -0.103  0.00  0.00    +0.000 HD
ENDROOT
BRANCH   3   5
ATOM      5  C6  UNL     1      17.873  14.100  -0.292  0.00  0.00    +0.000 A 
ATOM      6  C7  UNL     1      17.580  15.402   0.136  0.00  0.00    +0.000 A 
ATOM      7  C8  UNL     1      18.581  16.227   0.655  0.00  0.00    +0.000 A 
ATOM      8  C9  UNL     1      19.888  15.758   0.750  0.00  0.00    +0.000 A 
ATOM      9  C10 UNL     1      20.191  14.466   0.326  0.00  0.00    +0.000 A 
ATOM     10  C11 UNL     1      19.188  13.641  -0.194  0.00  0.00    +0.000 A 
ENDBRANCH   3   5
BRANCH   1  11
ATOM     11  C4  UNL     1      15.277  12.222  -2.361  0.00  0.00    +0.000 C 
BRANCH  11  16
ATOM     12  C1  UNL     1      15.175  11.015  -4.555  0.00  0.00    +0.000 A 
ATOM     13  N1  UNL     1      14.683  11.189  -5.761  0.00  0.00    +0.000 NA
ATOM     14  C2  UNL     1      14.111  12.434  -5.749  0.00  0.00    +0.000 A 
ATOM     15  C3  UNL     1      14.242  13.017  -4.509  0.00  0.00    +0.000 A 
ATOM     16  N2  UNL     1      14.913  12.092  -3.758  0.00  0.00    +0.000 N 
ENDBRANCH  11  16
ENDBRANCH   1  11
TORSDOF 3
ENDMDL
MODEL 7
REMARK VINA RESULT:    -4.243     14.455     15.128
REMARK INTER + INTRA:          -5.329
REMARK INTER:                  -5.090
REMARK INTRA:                  -0.239
REMARK UNBOUND:                -0.341
REMARK  Name = /home/anacleto/Desktop/manuscript_Mpro/naturecomm/supplementary_file_S2/6-chemical-library/molecular_docking/3D_ligand_structure/845.pdb
REMARK  3 active torsions:
REMARK  status: ('A' for Active; 'I' for Inactive)
REMARK    1  A    between atoms: N2_5  and  C4_6
REMARK    2  A    between atoms: C4_6  and  C5_7
REMARK    3  A    between atoms: N3_9  and  C6_10
REMARK                            x       y       z     vdW  Elec       q    Type
REMARK                         _______ _______ _______ _____ _____    ______ ____
ROOT
ATOM      1  C5  UNL     1      18.165   4.012   9.071  0.00  0.00    +0.000 C 
ATOM      2  O1  UNL     1      18.780   3.134   9.673  0.00  0.00    +0.000 OA
ATOM      3  N3  UNL     1      16.914   3.876   8.492  0.00  0.00    +0.000 N 
ATOM      4  H6  UNL     1      16.544   4.674   7.985  0.00  0.00    +0.000 HD
ENDROOT
BRANCH   3   5
ATOM      5  C6  UNL     1      16.103   2.722   8.454  0.00  0.00    +0.000 A 
ATOM      6  C7  UNL     1      15.115   2.605   9.442  0.00  0.00    +0.000 A 
ATOM      7  C8  UNL     1      14.269   1.494   9.480  0.00  0.00    +0.000 A 
ATOM      8  C9  UNL     1      14.404   0.485   8.530  0.00  0.00    +0.000 A 
ATOM      9  C10 UNL     1      15.383   0.591   7.545  0.00  0.00    +0.000 A 
ATOM     10  C11 UNL     1      16.229   1.705   7.508  0.00  0.00    +0.000 A 
ENDBRANCH   3   5
BRANCH   1  11
ATOM     11  C4  UNL     1      18.755   5.410   8.991  0.00  0.00    +0.000 C 
BRANCH  11  16
ATOM     12  C1  UNL     1      20.661   5.776  10.577  0.00  0.00    +0.000 A 
ATOM     13  N1  UNL     1      21.973   5.715  10.582  0.00  0.00    +0.000 NA
ATOM     14  C2  UNL     1      22.331   5.391   9.299  0.00  0.00    +0.000 A 
ATOM     15  C3  UNL     1      21.216   5.236   8.508  0.00  0.00    +0.000 A 
ATOM     16  N2  UNL     1      20.159   5.475   9.343  0.00  0.00    +0.000 N 
ENDBRANCH  11  16
ENDBRANCH   1  11
TORSDOF 3
ENDMDL
MODEL 8
REMARK VINA RESULT:    -4.235     14.332     16.789
REMARK INTER + INTRA:          -5.319
REMARK INTER:                  -5.023
REMARK INTRA:                  -0.295
REMARK UNBOUND:                -0.341
REMARK  Name = /home/anacleto/Desktop/manuscript_Mpro/naturecomm/supplementary_file_S2/6-chemical-library/molecular_docking/3D_ligand_structure/845.pdb
REMARK  3 active torsions:
REMARK  status: ('A' for Active; 'I' for Inactive)
REMARK    1  A    between atoms: N2_5  and  C4_6
REMARK    2  A    between atoms: C4_6  and  C5_7
REMARK    3  A    between atoms: N3_9  and  C6_10
REMARK                            x       y       z     vdW  Elec       q    Type
REMARK                         _______ _______ _______ _____ _____    ______ ____
ROOT
ATOM      1  C5  UNL     1      21.606   7.227  12.586  0.00  0.00    +0.000 C 
ATOM      2  O1  UNL     1      20.853   6.380  13.062  0.00  0.00    +0.000 OA
ATOM      3  N3  UNL     1      21.720   7.551  11.244  0.00  0.00    +0.000 N 
ATOM      4  H6  UNL     1      22.418   8.242  10.986  0.00  0.00    +0.000 HD
ENDROOT
BRANCH   3   5
ATOM      5  C6  UNL     1      21.025   6.978  10.157  0.00  0.00    +0.000 A 
ATOM      6  C7  UNL     1      19.828   7.594   9.770  0.00  0.00    +0.000 A 
ATOM      7  C8  UNL     1      19.075   7.091   8.706  0.00  0.00    +0.000 A 
ATOM      8  C9  UNL     1      19.512   5.963   8.018  0.00  0.00    +0.000 A 
ATOM      9  C10 UNL     1      20.701   5.342   8.395  0.00  0.00    +0.000 A 
ATOM     10  C11 UNL     1      21.454   5.847   9.460  0.00  0.00    +0.000 A 
ENDBRANCH   3   5
BRANCH   1  11
ATOM     11  C4  UNL     1      22.455   8.076  13.519  0.00  0.00    +0.000 C 
BRANCH  11  16
ATOM     12  C1  UNL     1      24.900   8.462  13.908  0.00  0.00    +0.000 A 
ATOM     13  N1  UNL     1      26.023   7.780  13.921  0.00  0.00    +0.000 NA
ATOM     14  C2  UNL     1      25.680   6.502  13.566  0.00  0.00    +0.000 A 
ATOM     15  C3  UNL     1      24.324   6.403  13.354  0.00  0.00    +0.000 A 
ATOM     16  N2  UNL     1      23.842   7.661  13.587  0.00  0.00    +0.000 N 
ENDBRANCH  11  16
ENDBRANCH   1  11
TORSDOF 3
ENDMDL
MODEL 9
REMARK VINA RESULT:    -4.112      1.887      2.763
REMARK INTER + INTRA:          -5.174
REMARK INTER:                  -4.833
REMARK INTRA:                  -0.341
REMARK UNBOUND:                -0.341
REMARK  Name = /home/anacleto/Desktop/manuscript_Mpro/naturecomm/supplementary_file_S2/6-chemical-library/molecular_docking/3D_ligand_structure/845.pdb
REMARK  3 active torsions:
REMARK  status: ('A' for Active; 'I' for Inactive)
REMARK    1  A    between atoms: N2_5  and  C4_6
REMARK    2  A    between atoms: C4_6  and  C5_7
REMARK    3  A    between atoms: N3_9  and  C6_10
REMARK                            x       y       z     vdW  Elec       q    Type
REMARK                         _______ _______ _______ _____ _____    ______ ____
ROOT
ATOM      1  C5  UNL     1      17.153  13.326  -4.138  0.00  0.00    +0.000 C 
ATOM      2  O1  UNL     1      17.821  12.294  -4.159  0.00  0.00    +0.000 OA
ATOM      3  N3  UNL     1      15.872  13.476  -4.643  0.00  0.00    +0.000 N 
ATOM      4  H6  UNL     1      15.456  14.401  -4.597  0.00  0.00    +0.000 HD
ENDROOT
BRANCH   3   5
ATOM      5  C6  UNL     1      15.083  12.504  -5.294  0.00  0.00    +0.000 A 
ATOM      6  C7  UNL     1      14.366  11.617  -4.480  0.00  0.00    +0.000 A 
ATOM      7  C8  UNL     1      13.562  10.622  -5.041  0.00  0.00    +0.000 A 
ATOM      8  C9  UNL     1      13.468  10.502  -6.424  0.00  0.00    +0.000 A 
ATOM      9  C10 UNL     1      14.178  11.378  -7.243  0.00  0.00    +0.000 A 
ATOM     10  C11 UNL     1      14.982  12.374  -6.680  0.00  0.00    +0.000 A 
ENDBRANCH   3   5
BRANCH   1  11
ATOM     11  C4  UNL     1      17.709  14.556  -3.438  0.00  0.00    +0.000 C 
BRANCH  11  16
ATOM     12  C1  UNL     1      17.441  14.002  -1.008  0.00  0.00    +0.000 A 
ATOM     13  N1  UNL     1      16.831  14.473   0.056  0.00  0.00    +0.000 NA
ATOM     14  C2  UNL     1      16.119  15.560  -0.381  0.00  0.00    +0.000 A 
ATOM     15  C3  UNL     1      16.317  15.762  -1.727  0.00  0.00    +0.000 A 
ATOM     16  N2  UNL     1      17.172  14.765  -2.108  0.00  0.00    +0.000 N 
ENDBRANCH  11  16
ENDBRANCH   1  11
TORSDOF 3
ENDMDL
