MODEL 1
REMARK VINA RESULT:    -4.697      0.000      0.000
REMARK INTER + INTRA:          -4.697
REMARK INTER:                  -4.697
REMARK INTRA:                   0.000
REMARK UNBOUND:                 0.000
REMARK  Name = /home/anacleto/Desktop/manuscript_Mpro/naturecomm/supplementary_file_S2/6-chemical-library/molecular_docking/3D_ligand_structure/147.pdb
REMARK  0 active torsions:
REMARK  status: ('A' for Active; 'I' for Inactive)
REMARK                            x       y       z     vdW  Elec       q    Type
REMARK                         _______ _______ _______ _____ _____    ______ ____
ROOT
ATOM      1  C1  UNL     1     -35.323  10.784 -32.935  0.00  0.00    +0.000 A 
ATOM      2  C2  UNL     1     -36.504  10.335 -32.342  0.00  0.00    +0.000 A 
ATOM      3  C3  UNL     1     -37.088  11.064 -31.306  0.00  0.00    +0.000 A 
ATOM      4  C4  UNL     1     -36.492  12.245 -30.859  0.00  0.00    +0.000 A 
ATOM      5  C5  UNL     1     -35.307  12.698 -31.453  0.00  0.00    +0.000 A 
ATOM      6  C6  UNL     1     -34.722  11.969 -32.489  0.00  0.00    +0.000 A 
ATOM      7  C7  UNL     1     -34.683  13.948 -30.973  0.00  0.00    +0.000 C 
ATOM      8  O1  UNL     1     -35.170  14.610 -30.067  0.00  0.00    +0.000 OA
ATOM      9  C8  UNL     1     -33.435  14.387 -31.628  0.00  0.00    +0.000 C 
ATOM     10  C9  UNL     1     -32.876  13.690 -32.619  0.00  0.00    +0.000 C 
ATOM     11  C10 UNL     1     -33.473  12.437 -33.120  0.00  0.00    +0.000 C 
ATOM     12  O2  UNL     1     -32.937  11.820 -34.031  0.00  0.00    +0.000 OA
ENDROOT
TORSDOF 0
ENDMDL
MODEL 2
REMARK VINA RESULT:    -4.689      0.063      2.897
REMARK INTER + INTRA:          -4.689
REMARK INTER:                  -4.689
REMARK INTRA:                   0.000
REMARK UNBOUND:                 0.000
REMARK  Name = /home/anacleto/Desktop/manuscript_Mpro/naturecomm/supplementary_file_S2/6-chemical-library/molecular_docking/3D_ligand_structure/147.pdb
REMARK  0 active torsions:
REMARK  status: ('A' for Active; 'I' for Inactive)
REMARK                            x       y       z     vdW  Elec       q    Type
REMARK                         _______ _______ _______ _____ _____    ______ ____
ROOT
ATOM      1  C1  UNL     1     -36.479  12.200 -30.915  0.00  0.00    +0.000 A 
ATOM      2  C2  UNL     1     -37.071  11.026 -31.386  0.00  0.00    +0.000 A 
ATOM      3  C3  UNL     1     -36.478  10.313 -32.428  0.00  0.00    +0.000 A 
ATOM      4  C4  UNL     1     -35.292  10.771 -33.003  0.00  0.00    +0.000 A 
ATOM      5  C5  UNL     1     -34.696  11.947 -32.532  0.00  0.00    +0.000 A 
ATOM      6  C6  UNL     1     -35.288  12.662 -31.490  0.00  0.00    +0.000 A 
ATOM      7  C7  UNL     1     -33.440  12.425 -33.146  0.00  0.00    +0.000 C 
ATOM      8  O1  UNL     1     -32.895  11.822 -34.061  0.00  0.00    +0.000 OA
ATOM      9  C8  UNL     1     -32.847  13.669 -32.618  0.00  0.00    +0.000 C 
ATOM     10  C9  UNL     1     -33.414  14.352 -31.621  0.00  0.00    +0.000 C 
ATOM     11  C10 UNL     1     -34.669  13.903 -30.987  0.00  0.00    +0.000 C 
ATOM     12  O2  UNL     1     -35.165  14.551 -30.075  0.00  0.00    +0.000 OA
ENDROOT
TORSDOF 0
ENDMDL
MODEL 3
REMARK VINA RESULT:    -4.334     11.310     13.056
REMARK INTER + INTRA:          -4.334
REMARK INTER:                  -4.334
REMARK INTRA:                   0.000
REMARK UNBOUND:                 0.000
REMARK  Name = /home/anacleto/Desktop/manuscript_Mpro/naturecomm/supplementary_file_S2/6-chemical-library/molecular_docking/3D_ligand_structure/147.pdb
REMARK  0 active torsions:
REMARK  status: ('A' for Active; 'I' for Inactive)
REMARK                            x       y       z     vdW  Elec       q    Type
REMARK                         _______ _______ _______ _____ _____    ______ ____
ROOT
ATOM      1  C1  UNL     1     -28.014   3.068 -38.231  0.00  0.00    +0.000 A 
ATOM      2  C2  UNL     1     -26.936   2.182 -38.279  0.00  0.00    +0.000 A 
ATOM      3  C3  UNL     1     -25.669   2.640 -38.640  0.00  0.00    +0.000 A 
ATOM      4  C4  UNL     1     -25.475   3.986 -38.954  0.00  0.00    +0.000 A 
ATOM      5  C5  UNL     1     -26.554   4.877 -38.906  0.00  0.00    +0.000 A 
ATOM      6  C6  UNL     1     -27.822   4.420 -38.546  0.00  0.00    +0.000 A 
ATOM      7  C7  UNL     1     -26.340   6.300 -39.240  0.00  0.00    +0.000 C 
ATOM      8  O1  UNL     1     -25.241   6.733 -39.560  0.00  0.00    +0.000 OA
ATOM      9  C8  UNL     1     -27.505   7.204 -39.177  0.00  0.00    +0.000 C 
ATOM     10  C9  UNL     1     -28.718   6.766 -38.832  0.00  0.00    +0.000 C 
ATOM     11  C10 UNL     1     -28.966   5.351 -38.493  0.00  0.00    +0.000 C 
ATOM     12  O2  UNL     1     -30.090   4.980 -38.180  0.00  0.00    +0.000 OA
ENDROOT
TORSDOF 0
ENDMDL
MODEL 4
REMARK VINA RESULT:    -4.297     11.219     12.851
REMARK INTER + INTRA:          -4.297
REMARK INTER:                  -4.297
REMARK INTRA:                   0.000
REMARK UNBOUND:                 0.000
REMARK  Name = /home/anacleto/Desktop/manuscript_Mpro/naturecomm/supplementary_file_S2/6-chemical-library/molecular_docking/3D_ligand_structure/147.pdb
REMARK  0 active torsions:
REMARK  status: ('A' for Active; 'I' for Inactive)
REMARK                            x       y       z     vdW  Elec       q    Type
REMARK                         _______ _______ _______ _____ _____    ______ ____
ROOT
ATOM      1  C1  UNL     1     -25.555   4.118 -38.860  0.00  0.00    +0.000 A 
ATOM      2  C2  UNL     1     -25.671   2.768 -38.524  0.00  0.00    +0.000 A 
ATOM      3  C3  UNL     1     -26.918   2.234 -38.197  0.00  0.00    +0.000 A 
ATOM      4  C4  UNL     1     -28.052   3.048 -38.204  0.00  0.00    +0.000 A 
ATOM      5  C5  UNL     1     -27.937   4.403 -38.542  0.00  0.00    +0.000 A 
ATOM      6  C6  UNL     1     -26.691   4.938 -38.869  0.00  0.00    +0.000 A 
ATOM      7  C7  UNL     1     -29.142   5.257 -38.548  0.00  0.00    +0.000 C 
ATOM      8  O1  UNL     1     -30.249   4.819 -38.266  0.00  0.00    +0.000 OA
ATOM      9  C8  UNL     1     -28.975   6.678 -38.909  0.00  0.00    +0.000 C 
ATOM     10  C9  UNL     1     -27.782   7.190 -39.222  0.00  0.00    +0.000 C 
ATOM     11  C10 UNL     1     -26.559   6.364 -39.225  0.00  0.00    +0.000 C 
ATOM     12  O2  UNL     1     -25.479   6.862 -39.517  0.00  0.00    +0.000 OA
ENDROOT
TORSDOF 0
ENDMDL
MODEL 5
REMARK VINA RESULT:    -4.297     15.292     17.545
REMARK INTER + INTRA:          -4.297
REMARK INTER:                  -4.297
REMARK INTRA:                   0.000
REMARK UNBOUND:                 0.000
REMARK  Name = /home/anacleto/Desktop/manuscript_Mpro/naturecomm/supplementary_file_S2/6-chemical-library/molecular_docking/3D_ligand_structure/147.pdb
REMARK  0 active torsions:
REMARK  status: ('A' for Active; 'I' for Inactive)
REMARK                            x       y       z     vdW  Elec       q    Type
REMARK                         _______ _______ _______ _____ _____    ______ ____
ROOT
ATOM      1  C1  UNL     1     -19.174  10.217 -38.039  0.00  0.00    +0.000 A 
ATOM      2  C2  UNL     1     -18.044  10.555 -38.785  0.00  0.00    +0.000 A 
ATOM      3  C3  UNL     1     -17.580   9.695 -39.781  0.00  0.00    +0.000 A 
ATOM      4  C4  UNL     1     -18.244   8.493 -40.032  0.00  0.00    +0.000 A 
ATOM      5  C5  UNL     1     -19.379   8.152 -39.285  0.00  0.00    +0.000 A 
ATOM      6  C6  UNL     1     -19.844   9.012 -38.289  0.00  0.00    +0.000 A 
ATOM      7  C7  UNL     1     -20.076   6.879 -39.558  0.00  0.00    +0.000 C 
ATOM      8  O1  UNL     1     -19.694   6.103 -40.423  0.00  0.00    +0.000 OA
ATOM      9  C8  UNL     1     -21.267   6.560 -38.746  0.00  0.00    +0.000 C 
ATOM     10  C9  UNL     1     -21.711   7.383 -37.794  0.00  0.00    +0.000 C 
ATOM     11  C10 UNL     1     -21.037   8.662 -37.496  0.00  0.00    +0.000 C 
ATOM     12  O2  UNL     1     -21.469   9.396 -36.616  0.00  0.00    +0.000 OA
ENDROOT
TORSDOF 0
ENDMDL
MODEL 6
REMARK VINA RESULT:    -4.284     15.305     17.320
REMARK INTER + INTRA:          -4.284
REMARK INTER:                  -4.284
REMARK INTRA:                   0.000
REMARK UNBOUND:                 0.000
REMARK  Name = /home/anacleto/Desktop/manuscript_Mpro/naturecomm/supplementary_file_S2/6-chemical-library/molecular_docking/3D_ligand_structure/147.pdb
REMARK  0 active torsions:
REMARK  status: ('A' for Active; 'I' for Inactive)
REMARK                            x       y       z     vdW  Elec       q    Type
REMARK                         _______ _______ _______ _____ _____    ______ ____
ROOT
ATOM      1  C1  UNL     1     -18.222   8.503 -40.022  0.00  0.00    +0.000 A 
ATOM      2  C2  UNL     1     -17.568   9.703 -39.735  0.00  0.00    +0.000 A 
ATOM      3  C3  UNL     1     -18.055  10.541 -38.732  0.00  0.00    +0.000 A 
ATOM      4  C4  UNL     1     -19.197  10.183 -38.013  0.00  0.00    +0.000 A 
ATOM      5  C5  UNL     1     -19.854   8.979 -38.300  0.00  0.00    +0.000 A 
ATOM      6  C6  UNL     1     -19.368   8.140 -39.303  0.00  0.00    +0.000 A 
ATOM      7  C7  UNL     1     -21.062   8.608 -37.534  0.00  0.00    +0.000 C 
ATOM      8  O1  UNL     1     -21.513   9.322 -36.649  0.00  0.00    +0.000 OA
ATOM      9  C8  UNL     1     -21.721   7.331 -37.870  0.00  0.00    +0.000 C 
ATOM     10  C9  UNL     1     -21.256   6.528 -38.830  0.00  0.00    +0.000 C 
ATOM     11  C10 UNL     1     -20.053   6.870 -39.613  0.00  0.00    +0.000 C 
ATOM     12  O2  UNL     1     -19.651   6.113 -40.487  0.00  0.00    +0.000 OA
ENDROOT
TORSDOF 0
ENDMDL
MODEL 7
REMARK VINA RESULT:    -4.224     15.629     17.563
REMARK INTER + INTRA:          -4.224
REMARK INTER:                  -4.224
REMARK INTRA:                   0.000
REMARK UNBOUND:                 0.000
REMARK  Name = /home/anacleto/Desktop/manuscript_Mpro/naturecomm/supplementary_file_S2/6-chemical-library/molecular_docking/3D_ligand_structure/147.pdb
REMARK  0 active torsions:
REMARK  status: ('A' for Active; 'I' for Inactive)
REMARK                            x       y       z     vdW  Elec       q    Type
REMARK                         _______ _______ _______ _____ _____    ______ ____
ROOT
ATOM      1  C1  UNL     1     -20.615   9.223 -37.503  0.00  0.00    +0.000 A 
ATOM      2  C2  UNL     1     -21.677   8.378 -37.174  0.00  0.00    +0.000 A 
ATOM      3  C3  UNL     1     -21.811   7.143 -37.809  0.00  0.00    +0.000 A 
ATOM      4  C4  UNL     1     -20.883   6.749 -38.775  0.00  0.00    +0.000 A 
ATOM      5  C5  UNL     1     -19.817   7.594 -39.106  0.00  0.00    +0.000 A 
ATOM      6  C6  UNL     1     -19.682   8.830 -38.471  0.00  0.00    +0.000 A 
ATOM      7  C7  UNL     1     -18.840   7.169 -40.129  0.00  0.00    +0.000 C 
ATOM      8  O1  UNL     1     -18.930   6.093 -40.703  0.00  0.00    +0.000 OA
ATOM      9  C8  UNL     1     -17.732   8.091 -40.446  0.00  0.00    +0.000 C 
ATOM     10  C9  UNL     1     -17.604   9.273 -39.838  0.00  0.00    +0.000 C 
ATOM     11  C10 UNL     1     -18.563   9.728 -38.813  0.00  0.00    +0.000 C 
ATOM     12  O2  UNL     1     -18.418  10.818 -38.274  0.00  0.00    +0.000 OA
ENDROOT
TORSDOF 0
ENDMDL
MODEL 8
REMARK VINA RESULT:    -4.189     13.904     15.890
REMARK INTER + INTRA:          -4.189
REMARK INTER:                  -4.189
REMARK INTRA:                   0.000
REMARK UNBOUND:                 0.000
REMARK  Name = /home/anacleto/Desktop/manuscript_Mpro/naturecomm/supplementary_file_S2/6-chemical-library/molecular_docking/3D_ligand_structure/147.pdb
REMARK  0 active torsions:
REMARK  status: ('A' for Active; 'I' for Inactive)
REMARK                            x       y       z     vdW  Elec       q    Type
REMARK                         _______ _______ _______ _____ _____    ______ ____
ROOT
ATOM      1  C1  UNL     1     -21.054   9.877 -37.284  0.00  0.00    +0.000 A 
ATOM      2  C2  UNL     1     -22.319  10.225 -36.806  0.00  0.00    +0.000 A 
ATOM      3  C3  UNL     1     -23.439   9.486 -37.188  0.00  0.00    +0.000 A 
ATOM      4  C4  UNL     1     -23.297   8.398 -38.051  0.00  0.00    +0.000 A 
ATOM      5  C5  UNL     1     -22.030   8.047 -38.531  0.00  0.00    +0.000 A 
ATOM      6  C6  UNL     1     -20.909   8.785 -38.149  0.00  0.00    +0.000 A 
ATOM      7  C7  UNL     1     -21.890   6.893 -39.443  0.00  0.00    +0.000 C 
ATOM      8  O1  UNL     1     -22.852   6.226 -39.797  0.00  0.00    +0.000 OA
ATOM      9  C8  UNL     1     -20.535   6.559 -39.925  0.00  0.00    +0.000 C 
ATOM     10  C9  UNL     1     -19.463   7.266 -39.559  0.00  0.00    +0.000 C 
ATOM     11  C10 UNL     1     -19.569   8.424 -38.650  0.00  0.00    +0.000 C 
ATOM     12  O2  UNL     1     -18.567   9.052 -38.333  0.00  0.00    +0.000 OA
ENDROOT
TORSDOF 0
ENDMDL
MODEL 9
REMARK VINA RESULT:    -4.124     13.473     15.439
REMARK INTER + INTRA:          -4.124
REMARK INTER:                  -4.124
REMARK INTRA:                   0.000
REMARK UNBOUND:                 0.000
REMARK  Name = /home/anacleto/Desktop/manuscript_Mpro/naturecomm/supplementary_file_S2/6-chemical-library/molecular_docking/3D_ligand_structure/147.pdb
REMARK  0 active torsions:
REMARK  status: ('A' for Active; 'I' for Inactive)
REMARK                            x       y       z     vdW  Elec       q    Type
REMARK                         _______ _______ _______ _____ _____    ______ ____
ROOT
ATOM      1  C1  UNL     1     -20.651   6.831 -39.378  0.00  0.00    +0.000 A 
ATOM      2  C2  UNL     1     -19.378   7.393 -39.273  0.00  0.00    +0.000 A 
ATOM      3  C3  UNL     1     -19.194   8.581 -38.566  0.00  0.00    +0.000 A 
ATOM      4  C4  UNL     1     -20.284   9.211 -37.961  0.00  0.00    +0.000 A 
ATOM      5  C5  UNL     1     -21.562   8.648 -38.064  0.00  0.00    +0.000 A 
ATOM      6  C6  UNL     1     -21.747   7.460 -38.772  0.00  0.00    +0.000 A 
ATOM      7  C7  UNL     1     -22.709   9.321 -37.421  0.00  0.00    +0.000 C 
ATOM      8  O1  UNL     1     -22.580  10.364 -36.794  0.00  0.00    +0.000 OA
ATOM      9  C8  UNL     1     -24.038   8.693 -37.556  0.00  0.00    +0.000 C 
ATOM     10  C9  UNL     1     -24.214   7.556 -38.233  0.00  0.00    +0.000 C 
ATOM     11  C10 UNL     1     -23.090   6.859 -38.888  0.00  0.00    +0.000 C 
ATOM     12  O2  UNL     1     -23.283   5.818 -39.502  0.00  0.00    +0.000 OA
ENDROOT
TORSDOF 0
ENDMDL
