MODEL 1
REMARK VINA RESULT:    -4.408      0.000      0.000
REMARK INTER + INTRA:          -4.911
REMARK INTER:                  -4.681
REMARK INTRA:                  -0.230
REMARK UNBOUND:                -0.245
REMARK  Name = /home/anacleto/Desktop/manuscript_Mpro/naturecomm/supplementary_file_S2/6-chemical-library/molecular_docking/3D_ligand_structure/1236.pdb
REMARK  1 active torsions:
REMARK  status: ('A' for Active; 'I' for Inactive)
REMARK    1  A    between atoms: C4_5  and  C5_6
REMARK                            x       y       z     vdW  Elec       q    Type
REMARK                         _______ _______ _______ _____ _____    ______ ____
ROOT
ATOM      1  C5  UNL     1     -20.573   7.121 -38.727  0.00  0.00    +0.000 C 
ATOM      2  C6  UNL     1     -20.231   8.390 -38.472  0.00  0.00    +0.000 C 
ATOM      3  C7  UNL     1     -21.061   9.577 -38.059  0.00  0.00    +0.000 C 
ATOM      4  O2  UNL     1     -22.253   9.667 -37.856  0.00  0.00    +0.000 OA
ATOM      5  N1  UNL     1     -20.128  10.601 -37.967  0.00  0.00    +0.000 N 
ATOM      6  C8  UNL     1     -18.865  10.187 -38.283  0.00  0.00    +0.000 C 
ATOM      7  C9  UNL     1     -18.866   8.887 -38.596  0.00  0.00    +0.000 C 
ATOM      8  H5  UNL     1     -20.393  11.541 -37.710  0.00  0.00    +0.000 HD
ENDROOT
BRANCH   1  13
ATOM      9  O1  UNL     1     -22.760   6.641 -39.679  0.00  0.00    +0.000 OA
ATOM     10  C1  UNL     1     -23.902   5.996 -39.342  0.00  0.00    +0.000 A 
ATOM     11  C2  UNL     1     -23.785   5.444 -38.095  0.00  0.00    +0.000 A 
ATOM     12  C3  UNL     1     -22.485   5.780 -37.647  0.00  0.00    +0.000 A 
ATOM     13  C4  UNL     1     -21.867   6.545 -38.630  0.00  0.00    +0.000 A 
ENDBRANCH   1  13
TORSDOF 1
ENDMDL
MODEL 2
REMARK VINA RESULT:    -4.297      1.732      2.235
REMARK INTER + INTRA:          -4.793
REMARK INTER:                  -4.617
REMARK INTRA:                  -0.176
REMARK UNBOUND:                -0.245
REMARK  Name = /home/anacleto/Desktop/manuscript_Mpro/naturecomm/supplementary_file_S2/6-chemical-library/molecular_docking/3D_ligand_structure/1236.pdb
REMARK  1 active torsions:
REMARK  status: ('A' for Active; 'I' for Inactive)
REMARK    1  A    between atoms: C4_5  and  C5_6
REMARK                            x       y       z     vdW  Elec       q    Type
REMARK                         _______ _______ _______ _____ _____    ______ ____
ROOT
ATOM      1  C5  UNL     1     -20.888   8.295 -37.877  0.00  0.00    +0.000 C 
ATOM      2  C6  UNL     1     -19.750   8.312 -38.583  0.00  0.00    +0.000 C 
ATOM      3  C7  UNL     1     -19.241   7.396 -39.665  0.00  0.00    +0.000 C 
ATOM      4  O2  UNL     1     -19.747   6.412 -40.160  0.00  0.00    +0.000 OA
ATOM      5  N1  UNL     1     -18.002   7.937 -39.982  0.00  0.00    +0.000 N 
ATOM      6  C8  UNL     1     -17.702   9.035 -39.226  0.00  0.00    +0.000 C 
ATOM      7  C9  UNL     1     -18.700   9.302 -38.377  0.00  0.00    +0.000 C 
ATOM      8  H5  UNL     1     -17.406   7.524 -40.685  0.00  0.00    +0.000 HD
ENDROOT
BRANCH   1  13
ATOM      9  O1  UNL     1     -23.154   7.774 -38.594  0.00  0.00    +0.000 OA
ATOM     10  C1  UNL     1     -24.001   6.719 -38.616  0.00  0.00    +0.000 A 
ATOM     11  C2  UNL     1     -23.396   5.614 -38.081  0.00  0.00    +0.000 A 
ATOM     12  C3  UNL     1     -22.096   6.030 -37.707  0.00  0.00    +0.000 A 
ATOM     13  C4  UNL     1     -21.966   7.381 -38.008  0.00  0.00    +0.000 A 
ENDBRANCH   1  13
TORSDOF 1
ENDMDL
MODEL 3
REMARK VINA RESULT:    -4.283      2.283      2.749
REMARK INTER + INTRA:          -4.778
REMARK INTER:                  -4.535
REMARK INTRA:                  -0.243
REMARK UNBOUND:                -0.245
REMARK  Name = /home/anacleto/Desktop/manuscript_Mpro/naturecomm/supplementary_file_S2/6-chemical-library/molecular_docking/3D_ligand_structure/1236.pdb
REMARK  1 active torsions:
REMARK  status: ('A' for Active; 'I' for Inactive)
REMARK    1  A    between atoms: C4_5  and  C5_6
REMARK                            x       y       z     vdW  Elec       q    Type
REMARK                         _______ _______ _______ _____ _____    ______ ____
ROOT
ATOM      1  C5  UNL     1     -22.386   6.944 -38.206  0.00  0.00    +0.000 C 
ATOM      2  C6  UNL     1     -22.661   8.150 -37.691  0.00  0.00    +0.000 C 
ATOM      3  C7  UNL     1     -23.955   8.912 -37.588  0.00  0.00    +0.000 C 
ATOM      4  O2  UNL     1     -25.073   8.612 -37.951  0.00  0.00    +0.000 OA
ATOM      5  N1  UNL     1     -23.578  10.096 -36.969  0.00  0.00    +0.000 N 
ATOM      6  C8  UNL     1     -22.238  10.145 -36.707  0.00  0.00    +0.000 C 
ATOM      7  C9  UNL     1     -21.642   9.021 -37.117  0.00  0.00    +0.000 C 
ATOM      8  H5  UNL     1     -24.245  10.828 -36.768  0.00  0.00    +0.000 HD
ENDROOT
BRANCH   1  13
ATOM      9  O1  UNL     1     -24.010   5.147 -37.979  0.00  0.00    +0.000 OA
ATOM     10  C1  UNL     1     -24.827   4.403 -38.762  0.00  0.00    +0.000 A 
ATOM     11  C2  UNL     1     -24.706   4.784 -40.071  0.00  0.00    +0.000 A 
ATOM     12  C3  UNL     1     -23.749   5.827 -40.081  0.00  0.00    +0.000 A 
ATOM     13  C4  UNL     1     -23.306   6.026 -38.778  0.00  0.00    +0.000 A 
ENDBRANCH   1  13
TORSDOF 1
ENDMDL
MODEL 4
REMARK VINA RESULT:    -4.158     17.052     18.766
REMARK INTER + INTRA:          -4.645
REMARK INTER:                  -4.449
REMARK INTRA:                  -0.196
REMARK UNBOUND:                -0.245
REMARK  Name = /home/anacleto/Desktop/manuscript_Mpro/naturecomm/supplementary_file_S2/6-chemical-library/molecular_docking/3D_ligand_structure/1236.pdb
REMARK  1 active torsions:
REMARK  status: ('A' for Active; 'I' for Inactive)
REMARK    1  A    between atoms: C4_5  and  C5_6
REMARK                            x       y       z     vdW  Elec       q    Type
REMARK                         _______ _______ _______ _____ _____    ______ ____
ROOT
ATOM      1  C5  UNL     1     -25.294  -3.947 -26.270  0.00  0.00    +0.000 C 
ATOM      2  C6  UNL     1     -26.449  -3.992 -26.946  0.00  0.00    +0.000 C 
ATOM      3  C7  UNL     1     -27.748  -4.692 -26.645  0.00  0.00    +0.000 C 
ATOM      4  O2  UNL     1     -28.061  -5.392 -25.706  0.00  0.00    +0.000 OA
ATOM      5  N1  UNL     1     -28.547  -4.360 -27.731  0.00  0.00    +0.000 N 
ATOM      6  C8  UNL     1     -27.895  -3.574 -28.639  0.00  0.00    +0.000 C 
ATOM      7  C9  UNL     1     -26.646  -3.327 -28.229  0.00  0.00    +0.000 C 
ATOM      8  H5  UNL     1     -29.495  -4.697 -27.817  0.00  0.00    +0.000 HD
ENDROOT
BRANCH   1  13
ATOM      9  O1  UNL     1     -24.949  -5.929 -24.900  0.00  0.00    +0.000 OA
ATOM     10  C1  UNL     1     -24.642  -6.244 -23.620  0.00  0.00    +0.000 A 
ATOM     11  C2  UNL     1     -24.467  -5.107 -22.879  0.00  0.00    +0.000 A 
ATOM     12  C3  UNL     1     -24.686  -4.030 -23.772  0.00  0.00    +0.000 A 
ATOM     13  C4  UNL     1     -25.009  -4.554 -25.018  0.00  0.00    +0.000 A 
ENDBRANCH   1  13
TORSDOF 1
ENDMDL
MODEL 5
REMARK VINA RESULT:    -4.102     17.715     19.416
REMARK INTER + INTRA:          -4.586
REMARK INTER:                  -4.371
REMARK INTRA:                  -0.216
REMARK UNBOUND:                -0.245
REMARK  Name = /home/anacleto/Desktop/manuscript_Mpro/naturecomm/supplementary_file_S2/6-chemical-library/molecular_docking/3D_ligand_structure/1236.pdb
REMARK  1 active torsions:
REMARK  status: ('A' for Active; 'I' for Inactive)
REMARK    1  A    between atoms: C4_5  and  C5_6
REMARK                            x       y       z     vdW  Elec       q    Type
REMARK                         _______ _______ _______ _____ _____    ______ ____
ROOT
ATOM      1  C5  UNL     1     -26.413  -5.954 -25.081  0.00  0.00    +0.000 C 
ATOM      2  C6  UNL     1     -27.639  -5.829 -25.606  0.00  0.00    +0.000 C 
ATOM      3  C7  UNL     1     -28.205  -4.822 -26.572  0.00  0.00    +0.000 C 
ATOM      4  O2  UNL     1     -27.679  -3.873 -27.113  0.00  0.00    +0.000 OA
ATOM      5  N1  UNL     1     -29.527  -5.224 -26.711  0.00  0.00    +0.000 N 
ATOM      6  C8  UNL     1     -29.824  -6.319 -25.949  0.00  0.00    +0.000 C 
ATOM      7  C9  UNL     1     -28.744  -6.718 -25.269  0.00  0.00    +0.000 C 
ATOM      8  H5  UNL     1     -30.175  -4.726 -27.304  0.00  0.00    +0.000 HD
ENDROOT
BRANCH   1  13
ATOM      9  O1  UNL     1     -24.846  -4.210 -24.431  0.00  0.00    +0.000 OA
ATOM     10  C1  UNL     1     -23.743  -3.595 -24.917  0.00  0.00    +0.000 A 
ATOM     11  C2  UNL     1     -23.407  -4.118 -26.137  0.00  0.00    +0.000 A 
ATOM     12  C3  UNL     1     -24.374  -5.116 -26.407  0.00  0.00    +0.000 A 
ATOM     13  C4  UNL     1     -25.278  -5.146 -25.351  0.00  0.00    +0.000 A 
ENDBRANCH   1  13
TORSDOF 1
ENDMDL
MODEL 6
REMARK VINA RESULT:    -4.095     17.129     18.529
REMARK INTER + INTRA:          -4.579
REMARK INTER:                  -4.346
REMARK INTRA:                  -0.233
REMARK UNBOUND:                -0.245
REMARK  Name = /home/anacleto/Desktop/manuscript_Mpro/naturecomm/supplementary_file_S2/6-chemical-library/molecular_docking/3D_ligand_structure/1236.pdb
REMARK  1 active torsions:
REMARK  status: ('A' for Active; 'I' for Inactive)
REMARK    1  A    between atoms: C4_5  and  C5_6
REMARK                            x       y       z     vdW  Elec       q    Type
REMARK                         _______ _______ _______ _____ _____    ______ ____
ROOT
ATOM      1  C5  UNL     1     -37.263  11.077 -30.539  0.00  0.00    +0.000 C 
ATOM      2  C6  UNL     1     -36.838  11.425 -31.761  0.00  0.00    +0.000 C 
ATOM      3  C7  UNL     1     -37.042  12.685 -32.560  0.00  0.00    +0.000 C 
ATOM      4  O2  UNL     1     -37.648  13.699 -32.284  0.00  0.00    +0.000 OA
ATOM      5  N1  UNL     1     -36.366  12.424 -33.744  0.00  0.00    +0.000 N 
ATOM      6  C8  UNL     1     -35.805  11.178 -33.761  0.00  0.00    +0.000 C 
ATOM      7  C9  UNL     1     -36.056  10.539 -32.614  0.00  0.00    +0.000 C 
ATOM      8  H5  UNL     1     -36.331  13.096 -34.496  0.00  0.00    +0.000 HD
ENDROOT
BRANCH   1  13
ATOM      9  O1  UNL     1     -37.459  12.977 -29.032  0.00  0.00    +0.000 OA
ATOM     10  C1  UNL     1     -38.390  13.563 -28.243  0.00  0.00    +0.000 A 
ATOM     11  C2  UNL     1     -39.577  12.886 -28.325  0.00  0.00    +0.000 A 
ATOM     12  C3  UNL     1     -39.347  11.816 -29.224  0.00  0.00    +0.000 A 
ATOM     13  C4  UNL     1     -38.021  11.869 -29.637  0.00  0.00    +0.000 A 
ENDBRANCH   1  13
TORSDOF 1
ENDMDL
MODEL 7
REMARK VINA RESULT:    -4.047     21.212     22.632
REMARK INTER + INTRA:          -4.529
REMARK INTER:                  -4.284
REMARK INTRA:                  -0.245
REMARK UNBOUND:                -0.245
REMARK  Name = /home/anacleto/Desktop/manuscript_Mpro/naturecomm/supplementary_file_S2/6-chemical-library/molecular_docking/3D_ligand_structure/1236.pdb
REMARK  1 active torsions:
REMARK  status: ('A' for Active; 'I' for Inactive)
REMARK    1  A    between atoms: C4_5  and  C5_6
REMARK                            x       y       z     vdW  Elec       q    Type
REMARK                         _______ _______ _______ _____ _____    ______ ____
ROOT
ATOM      1  C5  UNL     1     -36.594  -3.721 -25.186  0.00  0.00    +0.000 C 
ATOM      2  C6  UNL     1     -35.258  -3.648 -25.209  0.00  0.00    +0.000 C 
ATOM      3  C7  UNL     1     -34.331  -2.462 -25.263  0.00  0.00    +0.000 C 
ATOM      4  O2  UNL     1     -34.578  -1.275 -25.300  0.00  0.00    +0.000 OA
ATOM      5  N1  UNL     1     -33.070  -3.044 -25.275  0.00  0.00    +0.000 N 
ATOM      6  C8  UNL     1     -33.125  -4.409 -25.252  0.00  0.00    +0.000 C 
ATOM      7  C9  UNL     1     -34.396  -4.823 -25.216  0.00  0.00    +0.000 C 
ATOM      8  H5  UNL     1     -32.228  -2.488 -25.318  0.00  0.00    +0.000 HD
ENDROOT
BRANCH   1  13
ATOM      9  O1  UNL     1     -37.808  -1.984 -23.990  0.00  0.00    +0.000 OA
ATOM     10  C1  UNL     1     -38.686  -0.987 -24.251  0.00  0.00    +0.000 A 
ATOM     11  C2  UNL     1     -38.968  -0.941 -25.589  0.00  0.00    +0.000 A 
ATOM     12  C3  UNL     1     -38.211  -1.982 -26.178  0.00  0.00    +0.000 A 
ATOM     13  C4  UNL     1     -37.513  -2.639 -25.170  0.00  0.00    +0.000 A 
ENDBRANCH   1  13
TORSDOF 1
ENDMDL
MODEL 8
REMARK VINA RESULT:    -4.021     15.111     16.541
REMARK INTER + INTRA:          -4.501
REMARK INTER:                  -4.260
REMARK INTRA:                  -0.241
REMARK UNBOUND:                -0.245
REMARK  Name = /home/anacleto/Desktop/manuscript_Mpro/naturecomm/supplementary_file_S2/6-chemical-library/molecular_docking/3D_ligand_structure/1236.pdb
REMARK  1 active torsions:
REMARK  status: ('A' for Active; 'I' for Inactive)
REMARK    1  A    between atoms: C4_5  and  C5_6
REMARK                            x       y       z     vdW  Elec       q    Type
REMARK                         _______ _______ _______ _____ _____    ______ ____
ROOT
ATOM      1  C5  UNL     1     -36.141  11.194 -32.320  0.00  0.00    +0.000 C 
ATOM      2  C6  UNL     1     -36.476  11.756 -31.152  0.00  0.00    +0.000 C 
ATOM      3  C7  UNL     1     -35.787  12.809 -30.324  0.00  0.00    +0.000 C 
ATOM      4  O2  UNL     1     -34.751  13.407 -30.521  0.00  0.00    +0.000 OA
ATOM      5  N1  UNL     1     -36.625  12.949 -29.226  0.00  0.00    +0.000 N 
ATOM      6  C8  UNL     1     -37.705  12.113 -29.283  0.00  0.00    +0.000 C 
ATOM      7  C9  UNL     1     -37.666  11.379 -30.400  0.00  0.00    +0.000 C 
ATOM      8  H5  UNL     1     -36.417  13.593 -28.476  0.00  0.00    +0.000 HD
ENDROOT
BRANCH   1  13
ATOM      9  O1  UNL     1     -35.067  12.512 -34.061  0.00  0.00    +0.000 OA
ATOM     10  C1  UNL     1     -33.863  12.610 -34.672  0.00  0.00    +0.000 A 
ATOM     11  C2  UNL     1     -32.988  11.697 -34.147  0.00  0.00    +0.000 A 
ATOM     12  C3  UNL     1     -33.714  10.999 -33.152  0.00  0.00    +0.000 A 
ATOM     13  C4  UNL     1     -35.011  11.498 -33.125  0.00  0.00    +0.000 A 
ENDBRANCH   1  13
TORSDOF 1
ENDMDL
MODEL 9
REMARK VINA RESULT:    -3.990     16.143     18.145
REMARK INTER + INTRA:          -4.468
REMARK INTER:                  -4.239
REMARK INTRA:                  -0.228
REMARK UNBOUND:                -0.245
REMARK  Name = /home/anacleto/Desktop/manuscript_Mpro/naturecomm/supplementary_file_S2/6-chemical-library/molecular_docking/3D_ligand_structure/1236.pdb
REMARK  1 active torsions:
REMARK  status: ('A' for Active; 'I' for Inactive)
REMARK    1  A    between atoms: C4_5  and  C5_6
REMARK                            x       y       z     vdW  Elec       q    Type
REMARK                         _______ _______ _______ _____ _____    ______ ____
ROOT
ATOM      1  C5  UNL     1     -25.674  -5.806 -26.765  0.00  0.00    +0.000 C 
ATOM      2  C6  UNL     1     -26.992  -5.618 -26.623  0.00  0.00    +0.000 C 
ATOM      3  C7  UNL     1     -27.899  -4.530 -27.136  0.00  0.00    +0.000 C 
ATOM      4  O2  UNL     1     -27.648  -3.553 -27.809  0.00  0.00    +0.000 OA
ATOM      5  N1  UNL     1     -29.144  -4.894 -26.640  0.00  0.00    +0.000 N 
ATOM      6  C8  UNL     1     -29.095  -6.037 -25.893  0.00  0.00    +0.000 C 
ATOM      7  C9  UNL     1     -27.845  -6.507 -25.844  0.00  0.00    +0.000 C 
ATOM      8  H5  UNL     1     -29.970  -4.339 -26.816  0.00  0.00    +0.000 HD
ENDROOT
BRANCH   1  13
ATOM      9  O1  UNL     1     -24.835  -4.953 -28.883  0.00  0.00    +0.000 OA
ATOM     10  C1  UNL     1     -23.883  -4.105 -29.337  0.00  0.00    +0.000 A 
ATOM     11  C2  UNL     1     -23.192  -3.561 -28.289  0.00  0.00    +0.000 A 
ATOM     12  C3  UNL     1     -23.764  -4.120 -27.120  0.00  0.00    +0.000 A 
ATOM     13  C4  UNL     1     -24.767  -5.003 -27.504  0.00  0.00    +0.000 A 
ENDBRANCH   1  13
TORSDOF 1
ENDMDL
