MODEL 1
REMARK VINA RESULT:    -3.348      0.000      0.000
REMARK INTER + INTRA:          -3.597
REMARK INTER:                  -3.546
REMARK INTRA:                  -0.051
REMARK UNBOUND:                -0.053
REMARK  Name = /home/anacleto/Desktop/manuscript_Mpro/naturecomm/supplementary_file_S2/6-chemical-library/molecular_docking/3D_ligand_structure/1352.pdb
REMARK  1 active torsions:
REMARK  status: ('A' for Active; 'I' for Inactive)
REMARK    1  A    between atoms: C3_5  and  C4_6
REMARK                            x       y       z     vdW  Elec       q    Type
REMARK                         _______ _______ _______ _____ _____    ______ ____
ROOT
ATOM      1  S1  UNL     1     -20.430   9.829 -37.920  0.00  0.00    +0.000 S 
ATOM      2  C1  UNL     1     -18.782   9.839 -38.388  0.00  0.00    +0.000 A 
ATOM      3  N1  UNL     1     -18.304   8.706 -38.856  0.00  0.00    +0.000 NA
ATOM      4  C2  UNL     1     -19.308   7.756 -38.846  0.00  0.00    +0.000 A 
ATOM      5  C3  UNL     1     -20.536   8.178 -38.372  0.00  0.00    +0.000 A 
ENDROOT
BRANCH   5   6
ATOM      6  C4  UNL     1     -21.734   7.409 -38.254  0.00  0.00    +0.000 A 
ATOM      7  N2  UNL     1     -22.960   7.875 -38.418  0.00  0.00    +0.000 NA
ATOM      8  N3  UNL     1     -23.827   6.821 -38.221  0.00  0.00    +0.000 NA
ATOM      9  C5  UNL     1     -23.075   5.784 -37.949  0.00  0.00    +0.000 A 
ATOM     10  O1  UNL     1     -21.745   6.063 -37.950  0.00  0.00    +0.000 OA
ENDBRANCH   5   6
TORSDOF 1
ENDMDL
MODEL 2
REMARK VINA RESULT:    -3.298     16.496     17.630
REMARK INTER + INTRA:          -3.544
REMARK INTER:                  -3.496
REMARK INTRA:                  -0.048
REMARK UNBOUND:                -0.053
REMARK  Name = /home/anacleto/Desktop/manuscript_Mpro/naturecomm/supplementary_file_S2/6-chemical-library/molecular_docking/3D_ligand_structure/1352.pdb
REMARK  1 active torsions:
REMARK  status: ('A' for Active; 'I' for Inactive)
REMARK    1  A    between atoms: C3_5  and  C4_6
REMARK                            x       y       z     vdW  Elec       q    Type
REMARK                         _______ _______ _______ _____ _____    ______ ____
ROOT
ATOM      1  S1  UNL     1     -22.835  -4.937 -24.837  0.00  0.00    +0.000 S 
ATOM      2  C1  UNL     1     -22.586  -4.140 -23.340  0.00  0.00    +0.000 A 
ATOM      3  N1  UNL     1     -23.339  -3.086 -23.112  0.00  0.00    +0.000 NA
ATOM      4  C2  UNL     1     -24.176  -2.887 -24.195  0.00  0.00    +0.000 A 
ATOM      5  C3  UNL     1     -24.048  -3.792 -25.232  0.00  0.00    +0.000 A 
ENDROOT
BRANCH   5   6
ATOM      6  C4  UNL     1     -24.782  -3.819 -26.457  0.00  0.00    +0.000 A 
ATOM      7  N2  UNL     1     -26.100  -3.859 -26.557  0.00  0.00    +0.000 NA
ATOM      8  N3  UNL     1     -26.406  -3.873 -27.902  0.00  0.00    +0.000 NA
ATOM      9  C5  UNL     1     -25.259  -3.842 -28.532  0.00  0.00    +0.000 A 
ATOM     10  O1  UNL     1     -24.184  -3.806 -27.700  0.00  0.00    +0.000 OA
ENDBRANCH   5   6
TORSDOF 1
ENDMDL
MODEL 3
REMARK VINA RESULT:    -3.292      1.892      4.221
REMARK INTER + INTRA:          -3.538
REMARK INTER:                  -3.488
REMARK INTRA:                  -0.050
REMARK UNBOUND:                -0.053
REMARK  Name = /home/anacleto/Desktop/manuscript_Mpro/naturecomm/supplementary_file_S2/6-chemical-library/molecular_docking/3D_ligand_structure/1352.pdb
REMARK  1 active torsions:
REMARK  status: ('A' for Active; 'I' for Inactive)
REMARK    1  A    between atoms: C3_5  and  C4_6
REMARK                            x       y       z     vdW  Elec       q    Type
REMARK                         _______ _______ _______ _____ _____    ______ ____
ROOT
ATOM      1  S1  UNL     1     -23.287   8.196 -38.626  0.00  0.00    +0.000 S 
ATOM      2  C1  UNL     1     -23.989   6.666 -38.303  0.00  0.00    +0.000 A 
ATOM      3  N1  UNL     1     -23.158   5.710 -37.948  0.00  0.00    +0.000 NA
ATOM      4  C2  UNL     1     -21.871   6.215 -37.927  0.00  0.00    +0.000 A 
ATOM      5  C3  UNL     1     -21.740   7.549 -38.267  0.00  0.00    +0.000 A 
ENDROOT
BRANCH   5   6
ATOM      6  C4  UNL     1     -20.536   8.316 -38.326  0.00  0.00    +0.000 A 
ATOM      7  N2  UNL     1     -20.404   9.562 -37.903  0.00  0.00    +0.000 NA
ATOM      8  N3  UNL     1     -19.096   9.934 -38.137  0.00  0.00    +0.000 NA
ATOM      9  C5  UNL     1     -18.519   8.895 -38.687  0.00  0.00    +0.000 A 
ATOM     10  O1  UNL     1     -19.352   7.832 -38.842  0.00  0.00    +0.000 OA
ENDBRANCH   5   6
TORSDOF 1
ENDMDL
MODEL 4
REMARK VINA RESULT:    -3.226     16.135     16.866
REMARK INTER + INTRA:          -3.468
REMARK INTER:                  -3.415
REMARK INTRA:                  -0.053
REMARK UNBOUND:                -0.053
REMARK  Name = /home/anacleto/Desktop/manuscript_Mpro/naturecomm/supplementary_file_S2/6-chemical-library/molecular_docking/3D_ligand_structure/1352.pdb
REMARK  1 active torsions:
REMARK  status: ('A' for Active; 'I' for Inactive)
REMARK    1  A    between atoms: C3_5  and  C4_6
REMARK                            x       y       z     vdW  Elec       q    Type
REMARK                         _______ _______ _______ _____ _____    ______ ____
ROOT
ATOM      1  S1  UNL     1     -26.443  -4.932 -26.502  0.00  0.00    +0.000 S 
ATOM      2  C1  UNL     1     -27.943  -4.460 -27.183  0.00  0.00    +0.000 A 
ATOM      3  N1  UNL     1     -27.881  -3.671 -28.234  0.00  0.00    +0.000 NA
ATOM      4  C2  UNL     1     -26.554  -3.417 -28.528  0.00  0.00    +0.000 A 
ATOM      5  C3  UNL     1     -25.625  -4.015 -27.698  0.00  0.00    +0.000 A 
ENDROOT
BRANCH   5   6
ATOM      6  C4  UNL     1     -24.201  -3.921 -27.775  0.00  0.00    +0.000 A 
ATOM      7  N2  UNL     1     -23.528  -3.313 -28.736  0.00  0.00    +0.000 NA
ATOM      8  N3  UNL     1     -22.187  -3.448 -28.442  0.00  0.00    +0.000 NA
ATOM      9  C5  UNL     1     -22.131  -4.128 -27.325  0.00  0.00    +0.000 A 
ATOM     10  O1  UNL     1     -23.353  -4.467 -26.835  0.00  0.00    +0.000 OA
ENDBRANCH   5   6
TORSDOF 1
ENDMDL
MODEL 5
REMARK VINA RESULT:    -3.225     15.824     16.445
REMARK INTER + INTRA:          -3.467
REMARK INTER:                  -3.415
REMARK INTRA:                  -0.053
REMARK UNBOUND:                -0.053
REMARK  Name = /home/anacleto/Desktop/manuscript_Mpro/naturecomm/supplementary_file_S2/6-chemical-library/molecular_docking/3D_ligand_structure/1352.pdb
REMARK  1 active torsions:
REMARK  status: ('A' for Active; 'I' for Inactive)
REMARK    1  A    between atoms: C3_5  and  C4_6
REMARK                            x       y       z     vdW  Elec       q    Type
REMARK                         _______ _______ _______ _____ _____    ______ ____
ROOT
ATOM      1  S1  UNL     1     -23.560  -4.602 -26.379  0.00  0.00    +0.000 S 
ATOM      2  C1  UNL     1     -22.099  -4.246 -27.200  0.00  0.00    +0.000 A 
ATOM      3  N1  UNL     1     -22.220  -3.715 -28.398  0.00  0.00    +0.000 NA
ATOM      4  C2  UNL     1     -23.564  -3.577 -28.695  0.00  0.00    +0.000 A 
ATOM      5  C3  UNL     1     -24.446  -4.004 -27.720  0.00  0.00    +0.000 A 
ENDROOT
BRANCH   5   6
ATOM      6  C4  UNL     1     -25.873  -3.977 -27.768  0.00  0.00    +0.000 A 
ATOM      7  N2  UNL     1     -26.595  -3.294 -28.640  0.00  0.00    +0.000 NA
ATOM      8  N3  UNL     1     -27.922  -3.534 -28.347  0.00  0.00    +0.000 NA
ATOM      9  C5  UNL     1     -27.922  -4.343 -27.318  0.00  0.00    +0.000 A 
ATOM     10  O1  UNL     1     -26.675  -4.674 -26.888  0.00  0.00    +0.000 OA
ENDBRANCH   5   6
TORSDOF 1
ENDMDL
MODEL 6
REMARK VINA RESULT:    -3.144      2.645      4.589
REMARK INTER + INTRA:          -3.381
REMARK INTER:                  -3.330
REMARK INTRA:                  -0.051
REMARK UNBOUND:                -0.053
REMARK  Name = /home/anacleto/Desktop/manuscript_Mpro/naturecomm/supplementary_file_S2/6-chemical-library/molecular_docking/3D_ligand_structure/1352.pdb
REMARK  1 active torsions:
REMARK  status: ('A' for Active; 'I' for Inactive)
REMARK    1  A    between atoms: C3_5  and  C4_6
REMARK                            x       y       z     vdW  Elec       q    Type
REMARK                         _______ _______ _______ _____ _____    ______ ____
ROOT
ATOM      1  S1  UNL     1     -22.672   8.149 -38.587  0.00  0.00    +0.000 S 
ATOM      2  C1  UNL     1     -23.946   8.857 -37.685  0.00  0.00    +0.000 A 
ATOM      3  N1  UNL     1     -23.618   9.868 -36.911  0.00  0.00    +0.000 NA
ATOM      4  C2  UNL     1     -22.261  10.108 -37.034  0.00  0.00    +0.000 A 
ATOM      5  C3  UNL     1     -21.577   9.275 -37.900  0.00  0.00    +0.000 A 
ENDROOT
BRANCH   5   6
ATOM      6  C4  UNL     1     -20.182   9.303 -38.212  0.00  0.00    +0.000 A 
ATOM      7  N2  UNL     1     -19.465   8.261 -38.595  0.00  0.00    +0.000 NA
ATOM      8  N3  UNL     1     -18.175   8.705 -38.796  0.00  0.00    +0.000 NA
ATOM      9  C5  UNL     1     -18.189   9.985 -38.521  0.00  0.00    +0.000 A 
ATOM     10  O1  UNL     1     -19.412  10.445 -38.145  0.00  0.00    +0.000 OA
ENDBRANCH   5   6
TORSDOF 1
ENDMDL
MODEL 7
REMARK VINA RESULT:    -3.093      3.573      4.867
REMARK INTER + INTRA:          -3.327
REMARK INTER:                  -3.280
REMARK INTRA:                  -0.047
REMARK UNBOUND:                -0.053
REMARK  Name = /home/anacleto/Desktop/manuscript_Mpro/naturecomm/supplementary_file_S2/6-chemical-library/molecular_docking/3D_ligand_structure/1352.pdb
REMARK  1 active torsions:
REMARK  status: ('A' for Active; 'I' for Inactive)
REMARK    1  A    between atoms: C3_5  and  C4_6
REMARK                            x       y       z     vdW  Elec       q    Type
REMARK                         _______ _______ _______ _____ _____    ______ ____
ROOT
ATOM      1  S1  UNL     1     -23.815   5.987 -40.276  0.00  0.00    +0.000 S 
ATOM      2  C1  UNL     1     -22.456   6.685 -39.501  0.00  0.00    +0.000 A 
ATOM      3  N1  UNL     1     -22.291   6.379 -38.232  0.00  0.00    +0.000 NA
ATOM      4  C2  UNL     1     -23.309   5.532 -37.837  0.00  0.00    +0.000 A 
ATOM      5  C3  UNL     1     -24.235   5.204 -38.810  0.00  0.00    +0.000 A 
ENDROOT
BRANCH   5   6
ATOM      6  C4  UNL     1     -25.377   4.356 -38.673  0.00  0.00    +0.000 A 
ATOM      7  N2  UNL     1     -26.633   4.734 -38.834  0.00  0.00    +0.000 NA
ATOM      8  N3  UNL     1     -27.424   3.626 -38.616  0.00  0.00    +0.000 NA
ATOM      9  C5  UNL     1     -26.601   2.647 -38.336  0.00  0.00    +0.000 A 
ATOM     10  O1  UNL     1     -25.293   3.017 -38.350  0.00  0.00    +0.000 OA
ENDBRANCH   5   6
TORSDOF 1
ENDMDL
MODEL 8
REMARK VINA RESULT:    -3.047      3.098      4.745
REMARK INTER + INTRA:          -3.279
REMARK INTER:                  -3.231
REMARK INTRA:                  -0.048
REMARK UNBOUND:                -0.053
REMARK  Name = /home/anacleto/Desktop/manuscript_Mpro/naturecomm/supplementary_file_S2/6-chemical-library/molecular_docking/3D_ligand_structure/1352.pdb
REMARK  1 active torsions:
REMARK  status: ('A' for Active; 'I' for Inactive)
REMARK    1  A    between atoms: C3_5  and  C4_6
REMARK                            x       y       z     vdW  Elec       q    Type
REMARK                         _______ _______ _______ _____ _____    ______ ____
ROOT
ATOM      1  S1  UNL     1     -24.842   7.302 -39.386  0.00  0.00    +0.000 S 
ATOM      2  C1  UNL     1     -25.134   5.614 -39.341  0.00  0.00    +0.000 A 
ATOM      3  N1  UNL     1     -24.370   4.914 -38.531  0.00  0.00    +0.000 NA
ATOM      4  C2  UNL     1     -23.487   5.767 -37.895  0.00  0.00    +0.000 A 
ATOM      5  C3  UNL     1     -23.591   7.104 -38.230  0.00  0.00    +0.000 A 
ENDROOT
BRANCH   5   6
ATOM      6  C4  UNL     1     -22.809   8.189 -37.728  0.00  0.00    +0.000 A 
ATOM      7  N2  UNL     1     -21.489   8.258 -37.756  0.00  0.00    +0.000 NA
ATOM      8  N3  UNL     1     -21.131   9.457 -37.177  0.00  0.00    +0.000 NA
ATOM      9  C5  UNL     1     -22.252  10.040 -36.834  0.00  0.00    +0.000 A 
ATOM     10  O1  UNL     1     -23.358   9.312 -37.143  0.00  0.00    +0.000 OA
ENDBRANCH   5   6
TORSDOF 1
ENDMDL
MODEL 9
REMARK VINA RESULT:    -2.962     17.023     18.512
REMARK INTER + INTRA:          -3.189
REMARK INTER:                  -3.135
REMARK INTRA:                  -0.053
REMARK UNBOUND:                -0.053
REMARK  Name = /home/anacleto/Desktop/manuscript_Mpro/naturecomm/supplementary_file_S2/6-chemical-library/molecular_docking/3D_ligand_structure/1352.pdb
REMARK  1 active torsions:
REMARK  status: ('A' for Active; 'I' for Inactive)
REMARK    1  A    between atoms: C3_5  and  C4_6
REMARK                            x       y       z     vdW  Elec       q    Type
REMARK                         _______ _______ _______ _____ _____    ______ ____
ROOT
ATOM      1  S1  UNL     1     -27.757  -4.889 -26.706  0.00  0.00    +0.000 S 
ATOM      2  C1  UNL     1     -27.782  -3.988 -28.164  0.00  0.00    +0.000 A 
ATOM      3  N1  UNL     1     -26.644  -3.434 -28.524  0.00  0.00    +0.000 NA
ATOM      4  C2  UNL     1     -25.677  -3.740 -27.583  0.00  0.00    +0.000 A 
ATOM      5  C3  UNL     1     -26.093  -4.521 -26.521  0.00  0.00    +0.000 A 
ENDROOT
BRANCH   5   6
ATOM      6  C4  UNL     1     -25.307  -4.979 -25.419  0.00  0.00    +0.000 A 
ATOM      7  N2  UNL     1     -24.023  -4.722 -25.239  0.00  0.00    +0.000 NA
ATOM      8  N3  UNL     1     -23.644  -5.342 -24.066  0.00  0.00    +0.000 NA
ATOM      9  C5  UNL     1     -24.719  -5.934 -23.610  0.00  0.00    +0.000 A 
ATOM     10  O1  UNL     1     -25.812  -5.757 -24.399  0.00  0.00    +0.000 OA
ENDBRANCH   5   6
TORSDOF 1
ENDMDL
