MODEL 1
REMARK VINA RESULT:    -2.671      0.000      0.000
REMARK INTER + INTRA:          -2.671
REMARK INTER:                  -2.671
REMARK INTRA:                   0.000
REMARK UNBOUND:                 0.000
REMARK  Name = /home/anacleto/Desktop/manuscript_Mpro/naturecomm/supplementary_file_S2/6-chemical-library/molecular_docking/3D_ligand_structure/121.pdb
REMARK  0 active torsions:
REMARK  status: ('A' for Active; 'I' for Inactive)
REMARK                            x       y       z     vdW  Elec       q    Type
REMARK                         _______ _______ _______ _____ _____    ______ ____
ROOT
ATOM      1  C1  UNL     1      13.999  12.418  -5.085  0.00  0.00    +0.000 A 
ATOM      2  C2  UNL     1      13.110  11.451  -5.573  0.00  0.00    +0.000 A 
ATOM      3  N1  UNL     1      13.317  10.290  -4.945  0.00  0.00    +0.000 NA
ATOM      4  N2  UNL     1      14.320  10.616  -4.111  0.00  0.00    +0.000 N 
ATOM      5  N3  UNL     1      14.780  11.879  -4.142  0.00  0.00    +0.000 NA
ATOM      6  H3  UNL     1      14.719   9.928  -3.476  0.00  0.00    +0.000 HD
ENDROOT
TORSDOF 0
ENDMDL
MODEL 2
REMARK VINA RESULT:    -2.666      0.118      1.707
REMARK INTER + INTRA:          -2.666
REMARK INTER:                  -2.666
REMARK INTRA:                   0.000
REMARK UNBOUND:                 0.000
REMARK  Name = /home/anacleto/Desktop/manuscript_Mpro/naturecomm/supplementary_file_S2/6-chemical-library/molecular_docking/3D_ligand_structure/121.pdb
REMARK  0 active torsions:
REMARK  status: ('A' for Active; 'I' for Inactive)
REMARK                            x       y       z     vdW  Elec       q    Type
REMARK                         _______ _______ _______ _____ _____    ______ ____
ROOT
ATOM      1  C1  UNL     1      13.151  11.440  -5.707  0.00  0.00    +0.000 A 
ATOM      2  C2  UNL     1      13.982  12.398  -5.113  0.00  0.00    +0.000 A 
ATOM      3  N1  UNL     1      14.677  11.838  -4.118  0.00  0.00    +0.000 NA
ATOM      4  N2  UNL     1      14.229  10.571  -4.163  0.00  0.00    +0.000 N 
ATOM      5  N3  UNL     1      13.310  10.261  -5.095  0.00  0.00    +0.000 NA
ATOM      6  H3  UNL     1      14.575   9.868  -3.513  0.00  0.00    +0.000 HD
ENDROOT
TORSDOF 0
ENDMDL
MODEL 3
REMARK VINA RESULT:    -2.461      1.920      2.339
REMARK INTER + INTRA:          -2.461
REMARK INTER:                  -2.461
REMARK INTRA:                   0.000
REMARK UNBOUND:                 0.000
REMARK  Name = /home/anacleto/Desktop/manuscript_Mpro/naturecomm/supplementary_file_S2/6-chemical-library/molecular_docking/3D_ligand_structure/121.pdb
REMARK  0 active torsions:
REMARK  status: ('A' for Active; 'I' for Inactive)
REMARK                            x       y       z     vdW  Elec       q    Type
REMARK                         _______ _______ _______ _____ _____    ______ ____
ROOT
ATOM      1  C1  UNL     1      14.507  12.062  -6.554  0.00  0.00    +0.000 A 
ATOM      2  C2  UNL     1      13.562  12.275  -5.543  0.00  0.00    +0.000 A 
ATOM      3  N1  UNL     1      12.511  11.470  -5.731  0.00  0.00    +0.000 NA
ATOM      4  N2  UNL     1      12.876  10.815  -6.847  0.00  0.00    +0.000 N 
ATOM      5  N3  UNL     1      14.066  11.121  -7.395  0.00  0.00    +0.000 NA
ATOM      6  H3  UNL     1      12.272  10.109  -7.262  0.00  0.00    +0.000 HD
ENDROOT
TORSDOF 0
ENDMDL
MODEL 4
REMARK VINA RESULT:    -2.366     16.213     16.545
REMARK INTER + INTRA:          -2.366
REMARK INTER:                  -2.366
REMARK INTRA:                   0.000
REMARK UNBOUND:                 0.000
REMARK  Name = /home/anacleto/Desktop/manuscript_Mpro/naturecomm/supplementary_file_S2/6-chemical-library/molecular_docking/3D_ligand_structure/121.pdb
REMARK  0 active torsions:
REMARK  status: ('A' for Active; 'I' for Inactive)
REMARK                            x       y       z     vdW  Elec       q    Type
REMARK                         _______ _______ _______ _____ _____    ______ ____
ROOT
ATOM      1  C1  UNL     1      20.204   6.540  10.544  0.00  0.00    +0.000 A 
ATOM      2  C2  UNL     1      19.418   7.142   9.553  0.00  0.00    +0.000 A 
ATOM      3  N1  UNL     1      20.166   7.982   8.831  0.00  0.00    +0.000 NA
ATOM      4  N2  UNL     1      21.365   7.843   9.424  0.00  0.00    +0.000 N 
ATOM      5  N3  UNL     1      21.460   6.992  10.461  0.00  0.00    +0.000 NA
ATOM      6  H3  UNL     1      22.175   8.366   9.098  0.00  0.00    +0.000 HD
ENDROOT
TORSDOF 0
ENDMDL
MODEL 5
REMARK VINA RESULT:    -2.260     15.130     15.437
REMARK INTER + INTRA:          -2.260
REMARK INTER:                  -2.260
REMARK INTRA:                   0.000
REMARK UNBOUND:                 0.000
REMARK  Name = /home/anacleto/Desktop/manuscript_Mpro/naturecomm/supplementary_file_S2/6-chemical-library/molecular_docking/3D_ligand_structure/121.pdb
REMARK  0 active torsions:
REMARK  status: ('A' for Active; 'I' for Inactive)
REMARK                            x       y       z     vdW  Elec       q    Type
REMARK                         _______ _______ _______ _____ _____    ______ ____
ROOT
ATOM      1  C1  UNL     1      20.088   7.620   9.067  0.00  0.00    +0.000 A 
ATOM      2  C2  UNL     1      20.962   6.532   8.949  0.00  0.00    +0.000 A 
ATOM      3  N1  UNL     1      20.367   5.547   8.268  0.00  0.00    +0.000 NA
ATOM      4  N2  UNL     1      19.165   6.092   8.012  0.00  0.00    +0.000 N 
ATOM      5  N3  UNL     1      18.929   7.337   8.463  0.00  0.00    +0.000 NA
ATOM      6  H3  UNL     1      18.455   5.579   7.493  0.00  0.00    +0.000 HD
ENDROOT
TORSDOF 0
ENDMDL
MODEL 6
REMARK VINA RESULT:    -2.139     17.236     17.508
REMARK INTER + INTRA:          -2.139
REMARK INTER:                  -2.139
REMARK INTRA:                   0.000
REMARK UNBOUND:                 0.000
REMARK  Name = /home/anacleto/Desktop/manuscript_Mpro/naturecomm/supplementary_file_S2/6-chemical-library/molecular_docking/3D_ligand_structure/121.pdb
REMARK  0 active torsions:
REMARK  status: ('A' for Active; 'I' for Inactive)
REMARK                            x       y       z     vdW  Elec       q    Type
REMARK                         _______ _______ _______ _____ _____    ______ ____
ROOT
ATOM      1  C1  UNL     1      14.459   0.586   9.204  0.00  0.00    +0.000 A 
ATOM      2  C2  UNL     1      13.459   0.369  10.161  0.00  0.00    +0.000 A 
ATOM      3  N1  UNL     1      12.303   0.887   9.732  0.00  0.00    +0.000 NA
ATOM      4  N2  UNL     1      12.666   1.390   8.539  0.00  0.00    +0.000 N 
ATOM      5  N3  UNL     1      13.948   1.245   8.158  0.00  0.00    +0.000 NA
ATOM      6  H3  UNL     1      11.992   1.865   7.943  0.00  0.00    +0.000 HD
ENDROOT
TORSDOF 0
ENDMDL
MODEL 7
REMARK VINA RESULT:    -2.039      2.838      3.332
REMARK INTER + INTRA:          -2.039
REMARK INTER:                  -2.039
REMARK INTRA:                   0.000
REMARK UNBOUND:                 0.000
REMARK  Name = /home/anacleto/Desktop/manuscript_Mpro/naturecomm/supplementary_file_S2/6-chemical-library/molecular_docking/3D_ligand_structure/121.pdb
REMARK  0 active torsions:
REMARK  status: ('A' for Active; 'I' for Inactive)
REMARK                            x       y       z     vdW  Elec       q    Type
REMARK                         _______ _______ _______ _____ _____    ______ ____
ROOT
ATOM      1  C1  UNL     1      15.311  11.566  -2.673  0.00  0.00    +0.000 A 
ATOM      2  C2  UNL     1      16.291  10.898  -1.927  0.00  0.00    +0.000 A 
ATOM      3  N1  UNL     1      16.965  10.056  -2.717  0.00  0.00    +0.000 NA
ATOM      4  N2  UNL     1      16.356  10.260  -3.899  0.00  0.00    +0.000 N 
ATOM      5  N3  UNL     1      15.352  11.154  -3.945  0.00  0.00    +0.000 NA
ATOM      6  H3  UNL     1      16.646   9.752  -4.732  0.00  0.00    +0.000 HD
ENDROOT
TORSDOF 0
ENDMDL
MODEL 8
REMARK VINA RESULT:    -2.025      8.150      8.682
REMARK INTER + INTRA:          -2.025
REMARK INTER:                  -2.025
REMARK INTRA:                   0.000
REMARK UNBOUND:                 0.000
REMARK  Name = /home/anacleto/Desktop/manuscript_Mpro/naturecomm/supplementary_file_S2/6-chemical-library/molecular_docking/3D_ligand_structure/121.pdb
REMARK  0 active torsions:
REMARK  status: ('A' for Active; 'I' for Inactive)
REMARK                            x       y       z     vdW  Elec       q    Type
REMARK                         _______ _______ _______ _____ _____    ______ ____
ROOT
ATOM      1  C1  UNL     1      18.057  15.281  -0.003  0.00  0.00    +0.000 A 
ATOM      2  C2  UNL     1      17.265  16.181   0.720  0.00  0.00    +0.000 A 
ATOM      3  N1  UNL     1      18.002  16.773   1.666  0.00  0.00    +0.000 NA
ATOM      4  N2  UNL     1      19.201  16.198   1.463  0.00  0.00    +0.000 N 
ATOM      5  N3  UNL     1      19.306  15.291   0.475  0.00  0.00    +0.000 NA
ATOM      6  H3  UNL     1      20.004  16.442   2.039  0.00  0.00    +0.000 HD
ENDROOT
TORSDOF 0
ENDMDL
MODEL 9
REMARK VINA RESULT:    -2.018      8.538      8.866
REMARK INTER + INTRA:          -2.018
REMARK INTER:                  -2.018
REMARK INTRA:                   0.000
REMARK UNBOUND:                 0.000
REMARK  Name = /home/anacleto/Desktop/manuscript_Mpro/naturecomm/supplementary_file_S2/6-chemical-library/molecular_docking/3D_ligand_structure/121.pdb
REMARK  0 active torsions:
REMARK  status: ('A' for Active; 'I' for Inactive)
REMARK                            x       y       z     vdW  Elec       q    Type
REMARK                         _______ _______ _______ _____ _____    ______ ____
ROOT
ATOM      1  C1  UNL     1      11.410  20.433  -5.536  0.00  0.00    +0.000 A 
ATOM      2  C2  UNL     1      12.293  20.665  -4.474  0.00  0.00    +0.000 A 
ATOM      3  N1  UNL     1      12.318  19.600  -3.665  0.00  0.00    +0.000 NA
ATOM      4  N2  UNL     1      11.448  18.781  -4.282  0.00  0.00    +0.000 N 
ATOM      5  N3  UNL     1      10.865  19.218  -5.412  0.00  0.00    +0.000 NA
ATOM      6  H3  UNL     1      11.238  17.860  -3.905  0.00  0.00    +0.000 HD
ENDROOT
TORSDOF 0
ENDMDL
