MODEL 1
REMARK VINA RESULT:    -5.340      0.000      0.000
REMARK INTER + INTRA:          -6.151
REMARK INTER:                  -5.908
REMARK INTRA:                  -0.243
REMARK UNBOUND:                -0.187
REMARK  Name = /home/anacleto/Desktop/manuscript_Mpro/naturecomm/supplementary_file_S2/6-chemical-library/molecular_docking/3D_ligand_structure/823.pdb
REMARK  2 active torsions:
REMARK  status: ('A' for Active; 'I' for Inactive)
REMARK    1  A    between atoms: C2_7  and  C3_9
REMARK    2  A    between atoms: C3_9  and  C4_10
REMARK                            x       y       z     vdW  Elec       q    Type
REMARK                         _______ _______ _______ _____ _____    ______ ____
ROOT
ATOM      1  N1  UNL     1      13.846  16.826  -2.447  0.00  0.00    +0.000 N 
ATOM      2  N2  UNL     1      12.999  17.721  -1.921  0.00  0.00    +0.000 NA
ATOM      3  N3  UNL     1      12.057  16.995  -1.332  0.00  0.00    +0.000 NA
ATOM      4  N4  UNL     1      12.302  15.648  -1.483  0.00  0.00    +0.000 NA
ATOM      5  C1  UNL     1      13.413  15.557  -2.176  0.00  0.00    +0.000 A 
ATOM      6  N5  UNL     1      14.043  14.402  -2.565  0.00  0.00    +0.000 N 
ATOM      7  C2  UNL     1      15.196  14.424  -3.317  0.00  0.00    +0.000 C 
ATOM      8  O1  UNL     1      15.755  15.468  -3.666  0.00  0.00    +0.000 OA
ATOM      9  H1  UNL     1      14.670  17.115  -2.963  0.00  0.00    +0.000 HD
ATOM     10  H2  UNL     1      13.585  13.533  -2.315  0.00  0.00    +0.000 HD
ENDROOT
BRANCH   7  11
ATOM     11  C3  UNL     1      15.799  13.063  -3.632  0.00  0.00    +0.000 C 
BRANCH  11  12
ATOM     12  C4  UNL     1      15.110  12.308  -4.743  0.00  0.00    +0.000 A 
ATOM     13  C5  UNL     1      14.290  11.207  -4.455  0.00  0.00    +0.000 A 
ATOM     14  C6  UNL     1      13.633  10.530  -5.482  0.00  0.00    +0.000 A 
ATOM     15  C7  UNL     1      13.791  10.943  -6.805  0.00  0.00    +0.000 A 
ATOM     16  C8  UNL     1      14.609  12.031  -7.102  0.00  0.00    +0.000 A 
ATOM     17  C9  UNL     1      15.267  12.710  -6.077  0.00  0.00    +0.000 A 
ENDBRANCH  11  12
ENDBRANCH   7  11
TORSDOF 2
ENDMDL
MODEL 2
REMARK VINA RESULT:    -5.311      4.227      6.233
REMARK INTER + INTRA:          -6.118
REMARK INTER:                  -5.921
REMARK INTRA:                  -0.198
REMARK UNBOUND:                -0.187
REMARK  Name = /home/anacleto/Desktop/manuscript_Mpro/naturecomm/supplementary_file_S2/6-chemical-library/molecular_docking/3D_ligand_structure/823.pdb
REMARK  2 active torsions:
REMARK  status: ('A' for Active; 'I' for Inactive)
REMARK    1  A    between atoms: C2_7  and  C3_9
REMARK    2  A    between atoms: C3_9  and  C4_10
REMARK                            x       y       z     vdW  Elec       q    Type
REMARK                         _______ _______ _______ _____ _____    ______ ____
ROOT
ATOM      1  N1  UNL     1      14.922  11.346  -6.106  0.00  0.00    +0.000 N 
ATOM      2  N2  UNL     1      14.228  11.306  -7.251  0.00  0.00    +0.000 NA
ATOM      3  N3  UNL     1      13.097  10.684  -6.943  0.00  0.00    +0.000 NA
ATOM      4  N4  UNL     1      13.071  10.331  -5.612  0.00  0.00    +0.000 NA
ATOM      5  C1  UNL     1      14.208  10.748  -5.105  0.00  0.00    +0.000 A 
ATOM      6  N5  UNL     1      14.622  10.615  -3.803  0.00  0.00    +0.000 N 
ATOM      7  C2  UNL     1      15.853  11.067  -3.385  0.00  0.00    +0.000 C 
ATOM      8  O1  UNL     1      16.650  11.642  -4.131  0.00  0.00    +0.000 OA
ATOM      9  H1  UNL     1      15.841  11.773  -6.058  0.00  0.00    +0.000 HD
ATOM     10  H2  UNL     1      13.994  10.120  -3.180  0.00  0.00    +0.000 HD
ENDROOT
BRANCH   7  11
ATOM     11  C3  UNL     1      16.147  10.887  -1.903  0.00  0.00    +0.000 C 
BRANCH  11  12
ATOM     12  C4  UNL     1      17.067  11.925  -1.310  0.00  0.00    +0.000 A 
ATOM     13  C5  UNL     1      18.412  11.622  -1.049  0.00  0.00    +0.000 A 
ATOM     14  C6  UNL     1      19.265  12.594  -0.528  0.00  0.00    +0.000 A 
ATOM     15  C7  UNL     1      18.785  13.876  -0.259  0.00  0.00    +0.000 A 
ATOM     16  C8  UNL     1      17.450  14.185  -0.510  0.00  0.00    +0.000 A 
ATOM     17  C9  UNL     1      16.593  13.215  -1.030  0.00  0.00    +0.000 A 
ENDBRANCH  11  12
ENDBRANCH   7  11
TORSDOF 2
ENDMDL
MODEL 3
REMARK VINA RESULT:    -5.284      4.480      6.567
REMARK INTER + INTRA:          -6.089
REMARK INTER:                  -5.919
REMARK INTRA:                  -0.170
REMARK UNBOUND:                -0.187
REMARK  Name = /home/anacleto/Desktop/manuscript_Mpro/naturecomm/supplementary_file_S2/6-chemical-library/molecular_docking/3D_ligand_structure/823.pdb
REMARK  2 active torsions:
REMARK  status: ('A' for Active; 'I' for Inactive)
REMARK    1  A    between atoms: C2_7  and  C3_9
REMARK    2  A    between atoms: C3_9  and  C4_10
REMARK                            x       y       z     vdW  Elec       q    Type
REMARK                         _______ _______ _______ _____ _____    ______ ____
ROOT
ATOM      1  N1  UNL     1      14.447  10.572  -3.830  0.00  0.00    +0.000 N 
ATOM      2  N2  UNL     1      13.597  10.490  -4.863  0.00  0.00    +0.000 NA
ATOM      3  N3  UNL     1      14.269  10.975  -5.899  0.00  0.00    +0.000 NA
ATOM      4  N4  UNL     1      15.538  11.363  -5.529  0.00  0.00    +0.000 NA
ATOM      5  C1  UNL     1      15.635  11.108  -4.244  0.00  0.00    +0.000 A 
ATOM      6  N5  UNL     1      16.728  11.331  -3.446  0.00  0.00    +0.000 N 
ATOM      7  C2  UNL     1      16.710  11.050  -2.098  0.00  0.00    +0.000 C 
ATOM      8  O1  UNL     1      15.735  10.556  -1.525  0.00  0.00    +0.000 OA
ATOM      9  H1  UNL     1      14.183  10.265  -2.900  0.00  0.00    +0.000 HD
ATOM     10  H2  UNL     1      17.530  11.764  -3.890  0.00  0.00    +0.000 HD
ENDROOT
BRANCH   7  11
ATOM     11  C3  UNL     1      18.012  11.312  -1.357  0.00  0.00    +0.000 C 
BRANCH  11  12
ATOM     12  C4  UNL     1      18.159  12.711  -0.810  0.00  0.00    +0.000 A 
ATOM     13  C5  UNL     1      17.032  13.525  -0.622  0.00  0.00    +0.000 A 
ATOM     14  C6  UNL     1      17.170  14.806  -0.090  0.00  0.00    +0.000 A 
ATOM     15  C7  UNL     1      18.432  15.288   0.257  0.00  0.00    +0.000 A 
ATOM     16  C8  UNL     1      19.558  14.489   0.068  0.00  0.00    +0.000 A 
ATOM     17  C9  UNL     1      19.424  13.207  -0.465  0.00  0.00    +0.000 A 
ENDBRANCH  11  12
ENDBRANCH   7  11
TORSDOF 2
ENDMDL
MODEL 4
REMARK VINA RESULT:    -4.934     16.478     17.508
REMARK INTER + INTRA:          -5.698
REMARK INTER:                  -5.536
REMARK INTRA:                  -0.162
REMARK UNBOUND:                -0.187
REMARK  Name = /home/anacleto/Desktop/manuscript_Mpro/naturecomm/supplementary_file_S2/6-chemical-library/molecular_docking/3D_ligand_structure/823.pdb
REMARK  2 active torsions:
REMARK  status: ('A' for Active; 'I' for Inactive)
REMARK    1  A    between atoms: C2_7  and  C3_9
REMARK    2  A    between atoms: C3_9  and  C4_10
REMARK                            x       y       z     vdW  Elec       q    Type
REMARK                         _______ _______ _______ _____ _____    ______ ____
ROOT
ATOM      1  N1  UNL     1      18.686   4.658  10.736  0.00  0.00    +0.000 N 
ATOM      2  N2  UNL     1      19.618   5.395  11.356  0.00  0.00    +0.000 NA
ATOM      3  N3  UNL     1      20.156   6.141  10.399  0.00  0.00    +0.000 NA
ATOM      4  N4  UNL     1      19.572   5.880   9.179  0.00  0.00    +0.000 NA
ATOM      5  C1  UNL     1      18.663   4.959   9.402  0.00  0.00    +0.000 A 
ATOM      6  N5  UNL     1      17.828   4.391   8.473  0.00  0.00    +0.000 N 
ATOM      7  C2  UNL     1      16.927   3.408   8.815  0.00  0.00    +0.000 C 
ATOM      8  O1  UNL     1      16.785   2.994   9.968  0.00  0.00    +0.000 OA
ATOM      9  H1  UNL     1      18.116   3.989  11.242  0.00  0.00    +0.000 HD
ATOM     10  H2  UNL     1      17.949   4.695   7.514  0.00  0.00    +0.000 HD
ENDROOT
BRANCH   7  11
ATOM     11  C3  UNL     1      16.042   2.909   7.682  0.00  0.00    +0.000 C 
BRANCH  11  12
ATOM     12  C4  UNL     1      15.288   1.637   7.982  0.00  0.00    +0.000 A 
ATOM     13  C5  UNL     1      14.004   1.685   8.545  0.00  0.00    +0.000 A 
ATOM     14  C6  UNL     1      13.299   0.507   8.794  0.00  0.00    +0.000 A 
ATOM     15  C7  UNL     1      13.870  -0.728   8.486  0.00  0.00    +0.000 A 
ATOM     16  C8  UNL     1      15.147  -0.786   7.933  0.00  0.00    +0.000 A 
ATOM     17  C9  UNL     1      15.855   0.390   7.683  0.00  0.00    +0.000 A 
ENDBRANCH  11  12
ENDBRANCH   7  11
TORSDOF 2
ENDMDL
MODEL 5
REMARK VINA RESULT:    -4.804      3.860      4.665
REMARK INTER + INTRA:          -5.552
REMARK INTER:                  -5.309
REMARK INTRA:                  -0.243
REMARK UNBOUND:                -0.187
REMARK  Name = /home/anacleto/Desktop/manuscript_Mpro/naturecomm/supplementary_file_S2/6-chemical-library/molecular_docking/3D_ligand_structure/823.pdb
REMARK  2 active torsions:
REMARK  status: ('A' for Active; 'I' for Inactive)
REMARK    1  A    between atoms: C2_7  and  C3_9
REMARK    2  A    between atoms: C3_9  and  C4_10
REMARK                            x       y       z     vdW  Elec       q    Type
REMARK                         _______ _______ _______ _____ _____    ______ ____
ROOT
ATOM      1  N1  UNL     1      19.152  13.282  -0.170  0.00  0.00    +0.000 N 
ATOM      2  N2  UNL     1      19.759  14.347   0.371  0.00  0.00    +0.000 NA
ATOM      3  N3  UNL     1      18.851  15.314   0.334  0.00  0.00    +0.000 NA
ATOM      4  N4  UNL     1      17.674  14.868  -0.226  0.00  0.00    +0.000 NA
ATOM      5  C1  UNL     1      17.875  13.607  -0.534  0.00  0.00    +0.000 A 
ATOM      6  N5  UNL     1      16.972  12.753  -1.116  0.00  0.00    +0.000 N 
ATOM      7  C2  UNL     1      17.300  11.452  -1.421  0.00  0.00    +0.000 C 
ATOM      8  O1  UNL     1      18.402  10.957  -1.171  0.00  0.00    +0.000 OA
ATOM      9  H1  UNL     1      19.629  12.392  -0.267  0.00  0.00    +0.000 HD
ATOM     10  H2  UNL     1      16.070  13.148  -1.357  0.00  0.00    +0.000 HD
ENDROOT
BRANCH   7  11
ATOM     11  C3  UNL     1      16.178  10.618  -2.023  0.00  0.00    +0.000 C 
BRANCH  11  12
ATOM     12  C4  UNL     1      15.919  10.870  -3.488  0.00  0.00    +0.000 A 
ATOM     13  C5  UNL     1      16.983  10.935  -4.400  0.00  0.00    +0.000 A 
ATOM     14  C6  UNL     1      16.736  11.140  -5.758  0.00  0.00    +0.000 A 
ATOM     15  C7  UNL     1      15.427  11.284  -6.217  0.00  0.00    +0.000 A 
ATOM     16  C8  UNL     1      14.364  11.227  -5.318  0.00  0.00    +0.000 A 
ATOM     17  C9  UNL     1      14.607  11.023  -3.960  0.00  0.00    +0.000 A 
ENDBRANCH  11  12
ENDBRANCH   7  11
TORSDOF 2
ENDMDL
MODEL 6
REMARK VINA RESULT:    -4.787      6.022      7.588
REMARK INTER + INTRA:          -5.534
REMARK INTER:                  -5.272
REMARK INTRA:                  -0.262
REMARK UNBOUND:                -0.187
REMARK  Name = /home/anacleto/Desktop/manuscript_Mpro/naturecomm/supplementary_file_S2/6-chemical-library/molecular_docking/3D_ligand_structure/823.pdb
REMARK  2 active torsions:
REMARK  status: ('A' for Active; 'I' for Inactive)
REMARK    1  A    between atoms: C2_7  and  C3_9
REMARK    2  A    between atoms: C3_9  and  C4_10
REMARK                            x       y       z     vdW  Elec       q    Type
REMARK                         _______ _______ _______ _____ _____    ______ ____
ROOT
ATOM      1  N1  UNL     1      20.352  10.219  -7.262  0.00  0.00    +0.000 N 
ATOM      2  N2  UNL     1      21.282   9.261  -7.379  0.00  0.00    +0.000 NA
ATOM      3  N3  UNL     1      20.632   8.211  -7.866  0.00  0.00    +0.000 NA
ATOM      4  N4  UNL     1      19.299   8.498  -8.058  0.00  0.00    +0.000 NA
ATOM      5  C1  UNL     1      19.138   9.745  -7.680  0.00  0.00    +0.000 A 
ATOM      6  N5  UNL     1      17.968  10.461  -7.696  0.00  0.00    +0.000 N 
ATOM      7  C2  UNL     1      17.909  11.761  -7.248  0.00  0.00    +0.000 C 
ATOM      8  O1  UNL     1      18.894  12.378  -6.834  0.00  0.00    +0.000 OA
ATOM      9  H1  UNL     1      20.581  11.140  -6.907  0.00  0.00    +0.000 HD
ATOM     10  H2  UNL     1      17.141   9.965  -8.005  0.00  0.00    +0.000 HD
ENDROOT
BRANCH   7  11
ATOM     11  C3  UNL     1      16.551  12.435  -7.371  0.00  0.00    +0.000 C 
BRANCH  11  12
ATOM     12  C4  UNL     1      15.442  11.772  -6.591  0.00  0.00    +0.000 A 
ATOM     13  C5  UNL     1      15.525  11.652  -5.195  0.00  0.00    +0.000 A 
ATOM     14  C6  UNL     1      14.485  11.064  -4.476  0.00  0.00    +0.000 A 
ATOM     15  C7  UNL     1      13.356  10.587  -5.141  0.00  0.00    +0.000 A 
ATOM     16  C8  UNL     1      13.267  10.695  -6.527  0.00  0.00    +0.000 A 
ATOM     17  C9  UNL     1      14.306  11.283  -7.250  0.00  0.00    +0.000 A 
ENDBRANCH  11  12
ENDBRANCH   7  11
TORSDOF 2
ENDMDL
MODEL 7
REMARK VINA RESULT:    -4.768     16.422     17.567
REMARK INTER + INTRA:          -5.512
REMARK INTER:                  -5.284
REMARK INTRA:                  -0.228
REMARK UNBOUND:                -0.187
REMARK  Name = /home/anacleto/Desktop/manuscript_Mpro/naturecomm/supplementary_file_S2/6-chemical-library/molecular_docking/3D_ligand_structure/823.pdb
REMARK  2 active torsions:
REMARK  status: ('A' for Active; 'I' for Inactive)
REMARK    1  A    between atoms: C2_7  and  C3_9
REMARK    2  A    between atoms: C3_9  and  C4_10
REMARK                            x       y       z     vdW  Elec       q    Type
REMARK                         _______ _______ _______ _____ _____    ______ ____
ROOT
ATOM      1  N1  UNL     1      14.819   2.418   9.980  0.00  0.00    +0.000 N 
ATOM      2  N2  UNL     1      13.575   1.942   9.833  0.00  0.00    +0.000 NA
ATOM      3  N3  UNL     1      13.580   1.330   8.656  0.00  0.00    +0.000 NA
ATOM      4  N4  UNL     1      14.818   1.416   8.057  0.00  0.00    +0.000 NA
ATOM      5  C1  UNL     1      15.576   2.093   8.889  0.00  0.00    +0.000 A 
ATOM      6  N5  UNL     1      16.896   2.422   8.710  0.00  0.00    +0.000 N 
ATOM      7  C2  UNL     1      17.589   3.163   9.640  0.00  0.00    +0.000 C 
ATOM      8  O1  UNL     1      17.092   3.553  10.699  0.00  0.00    +0.000 OA
ATOM      9  H1  UNL     1      15.093   2.938  10.807  0.00  0.00    +0.000 HD
ATOM     10  H2  UNL     1      17.316   2.137   7.833  0.00  0.00    +0.000 HD
ENDROOT
BRANCH   7  11
ATOM     11  C3  UNL     1      19.056   3.409   9.319  0.00  0.00    +0.000 C 
BRANCH  11  12
ATOM     12  C4  UNL     1      19.457   4.863   9.266  0.00  0.00    +0.000 A 
ATOM     13  C5  UNL     1      20.515   5.340  10.054  0.00  0.00    +0.000 A 
ATOM     14  C6  UNL     1      20.900   6.679   9.980  0.00  0.00    +0.000 A 
ATOM     15  C7  UNL     1      20.233   7.553   9.122  0.00  0.00    +0.000 A 
ATOM     16  C8  UNL     1      19.177   7.089   8.340  0.00  0.00    +0.000 A 
ATOM     17  C9  UNL     1      18.789   5.751   8.412  0.00  0.00    +0.000 A 
ENDBRANCH  11  12
ENDBRANCH   7  11
TORSDOF 2
ENDMDL
MODEL 8
REMARK VINA RESULT:    -4.737     17.257     18.161
REMARK INTER + INTRA:          -5.478
REMARK INTER:                  -5.291
REMARK INTRA:                  -0.187
REMARK UNBOUND:                -0.187
REMARK  Name = /home/anacleto/Desktop/manuscript_Mpro/naturecomm/supplementary_file_S2/6-chemical-library/molecular_docking/3D_ligand_structure/823.pdb
REMARK  2 active torsions:
REMARK  status: ('A' for Active; 'I' for Inactive)
REMARK    1  A    between atoms: C2_7  and  C3_9
REMARK    2  A    between atoms: C3_9  and  C4_10
REMARK                            x       y       z     vdW  Elec       q    Type
REMARK                         _______ _______ _______ _____ _____    ______ ____
ROOT
ATOM      1  N1  UNL     1      16.020   6.049  14.192  0.00  0.00    +0.000 N 
ATOM      2  N2  UNL     1      14.987   5.935  15.038  0.00  0.00    +0.000 NA
ATOM      3  N3  UNL     1      14.829   7.150  15.549  0.00  0.00    +0.000 NA
ATOM      4  N4  UNL     1      15.754   8.030  15.033  0.00  0.00    +0.000 NA
ATOM      5  C1  UNL     1      16.486   7.335  14.193  0.00  0.00    +0.000 A 
ATOM      6  N5  UNL     1      17.534   7.801  13.440  0.00  0.00    +0.000 N 
ATOM      7  C2  UNL     1      18.253   6.972  12.609  0.00  0.00    +0.000 C 
ATOM      8  O1  UNL     1      17.993   5.776  12.459  0.00  0.00    +0.000 OA
ATOM      9  H1  UNL     1      16.358   5.255  13.659  0.00  0.00    +0.000 HD
ATOM     10  H2  UNL     1      17.784   8.775  13.571  0.00  0.00    +0.000 HD
ENDROOT
BRANCH   7  11
ATOM     11  C3  UNL     1      19.357   7.647  11.808  0.00  0.00    +0.000 C 
BRANCH  11  12
ATOM     12  C4  UNL     1      19.781   6.904  10.565  0.00  0.00    +0.000 A 
ATOM     13  C5  UNL     1      19.029   7.002   9.384  0.00  0.00    +0.000 A 
ATOM     14  C6  UNL     1      19.440   6.337   8.230  0.00  0.00    +0.000 A 
ATOM     15  C7  UNL     1      20.602   5.566   8.243  0.00  0.00    +0.000 A 
ATOM     16  C8  UNL     1      21.352   5.457   9.412  0.00  0.00    +0.000 A 
ATOM     17  C9  UNL     1      20.943   6.121  10.568  0.00  0.00    +0.000 A 
ENDBRANCH  11  12
ENDBRANCH   7  11
TORSDOF 2
ENDMDL
MODEL 9
REMARK VINA RESULT:    -4.729      5.141      6.249
REMARK INTER + INTRA:          -5.469
REMARK INTER:                  -5.231
REMARK INTRA:                  -0.238
REMARK UNBOUND:                -0.187
REMARK  Name = /home/anacleto/Desktop/manuscript_Mpro/naturecomm/supplementary_file_S2/6-chemical-library/molecular_docking/3D_ligand_structure/823.pdb
REMARK  2 active torsions:
REMARK  status: ('A' for Active; 'I' for Inactive)
REMARK    1  A    between atoms: C2_7  and  C3_9
REMARK    2  A    between atoms: C3_9  and  C4_10
REMARK                            x       y       z     vdW  Elec       q    Type
REMARK                         _______ _______ _______ _____ _____    ______ ____
ROOT
ATOM      1  N1  UNL     1      14.446  10.581  -4.751  0.00  0.00    +0.000 N 
ATOM      2  N2  UNL     1      13.107  10.529  -4.778  0.00  0.00    +0.000 NA
ATOM      3  N3  UNL     1      12.760  11.229  -5.850  0.00  0.00    +0.000 NA
ATOM      4  N4  UNL     1      13.868  11.723  -6.501  0.00  0.00    +0.000 NA
ATOM      5  C1  UNL     1      14.907  11.314  -5.809  0.00  0.00    +0.000 A 
ATOM      6  N5  UNL     1      16.227  11.567  -6.087  0.00  0.00    +0.000 N 
ATOM      7  C2  UNL     1      17.238  11.109  -5.273  0.00  0.00    +0.000 C 
ATOM      8  O1  UNL     1      17.037  10.423  -4.267  0.00  0.00    +0.000 OA
ATOM      9  H1  UNL     1      14.980  10.121  -4.021  0.00  0.00    +0.000 HD
ATOM     10  H2  UNL     1      16.413  12.154  -6.892  0.00  0.00    +0.000 HD
ENDROOT
BRANCH   7  11
ATOM     11  C3  UNL     1      18.650  11.434  -5.738  0.00  0.00    +0.000 C 
BRANCH  11  12
ATOM     12  C4  UNL     1      19.466  10.239  -6.164  0.00  0.00    +0.000 A 
ATOM     13  C5  UNL     1      19.111   9.502  -7.304  0.00  0.00    +0.000 A 
ATOM     14  C6  UNL     1      19.886   8.415  -7.709  0.00  0.00    +0.000 A 
ATOM     15  C7  UNL     1      21.018   8.052  -6.981  0.00  0.00    +0.000 A 
ATOM     16  C8  UNL     1      21.376   8.774  -5.844  0.00  0.00    +0.000 A 
ATOM     17  C9  UNL     1      20.603   9.861  -5.435  0.00  0.00    +0.000 A 
ENDBRANCH  11  12
ENDBRANCH   7  11
TORSDOF 2
ENDMDL
