MODEL 1
REMARK VINA RESULT:    -5.339      0.000      0.000
REMARK INTER + INTRA:          -5.339
REMARK INTER:                  -5.339
REMARK INTRA:                   0.000
REMARK UNBOUND:                 0.000
REMARK  Name = /home/anacleto/Desktop/manuscript_Mpro/naturecomm/supplementary_file_S2/6-chemical-library/molecular_docking/3D_ligand_structure/1437.pdb
REMARK  0 active torsions:
REMARK  status: ('A' for Active; 'I' for Inactive)
REMARK                            x       y       z     vdW  Elec       q    Type
REMARK                         _______ _______ _______ _____ _____    ______ ____
ROOT
ATOM      1  C1  UNL     1     -35.544  10.591 -32.695  0.00  0.00    +0.000 A 
ATOM      2  C2  UNL     1     -34.387  10.936 -33.274  0.00  0.00    +0.000 A 
ATOM      3  C3  UNL     1     -33.679  12.175 -32.867  0.00  0.00    +0.000 A 
ATOM      4  O1  UNL     1     -32.619  12.495 -33.394  0.00  0.00    +0.000 OA
ATOM      5  C4  UNL     1     -34.289  13.010 -31.807  0.00  0.00    +0.000 A 
ATOM      6  C5  UNL     1     -35.447  12.651 -31.238  0.00  0.00    +0.000 A 
ATOM      7  C6  UNL     1     -36.130  11.424 -31.654  0.00  0.00    +0.000 A 
ATOM      8  O2  UNL     1     -36.000  13.451 -30.244  0.00  0.00    +0.000 OA
ATOM      9  C7  UNL     1     -37.190  13.073 -29.665  0.00  0.00    +0.000 A 
ATOM     10  C8  UNL     1     -37.865  11.909 -30.042  0.00  0.00    +0.000 A 
ATOM     11  C9  UNL     1     -37.291  11.064 -31.083  0.00  0.00    +0.000 A 
ATOM     12  C10 UNL     1     -39.071  11.582 -29.413  0.00  0.00    +0.000 A 
ATOM     13  C11 UNL     1     -39.591  12.415 -28.420  0.00  0.00    +0.000 A 
ATOM     14  C12 UNL     1     -38.911  13.576 -28.050  0.00  0.00    +0.000 A 
ATOM     15  C13 UNL     1     -37.708  13.906 -28.674  0.00  0.00    +0.000 A 
ENDROOT
TORSDOF 0
ENDMDL
MODEL 2
REMARK VINA RESULT:    -5.220     14.804     15.760
REMARK INTER + INTRA:          -5.220
REMARK INTER:                  -5.220
REMARK INTRA:                   0.000
REMARK UNBOUND:                 0.000
REMARK  Name = /home/anacleto/Desktop/manuscript_Mpro/naturecomm/supplementary_file_S2/6-chemical-library/molecular_docking/3D_ligand_structure/1437.pdb
REMARK  0 active torsions:
REMARK  status: ('A' for Active; 'I' for Inactive)
REMARK                            x       y       z     vdW  Elec       q    Type
REMARK                         _______ _______ _______ _____ _____    ______ ____
ROOT
ATOM      1  C1  UNL     1     -24.324   7.897 -39.231  0.00  0.00    +0.000 A 
ATOM      2  C2  UNL     1     -23.073   8.213 -38.875  0.00  0.00    +0.000 A 
ATOM      3  C3  UNL     1     -22.196   7.207 -38.226  0.00  0.00    +0.000 A 
ATOM      4  O1  UNL     1     -21.049   7.491 -37.899  0.00  0.00    +0.000 OA
ATOM      5  C4  UNL     1     -22.747   5.853 -37.987  0.00  0.00    +0.000 A 
ATOM      6  C5  UNL     1     -24.002   5.555 -38.348  0.00  0.00    +0.000 A 
ATOM      7  C6  UNL     1     -24.850   6.562 -38.988  0.00  0.00    +0.000 A 
ATOM      8  O2  UNL     1     -24.497   4.276 -38.114  0.00  0.00    +0.000 OA
ATOM      9  C7  UNL     1     -25.787   3.978 -38.489  0.00  0.00    +0.000 A 
ATOM     10  C8  UNL     1     -26.620   4.919 -39.100  0.00  0.00    +0.000 A 
ATOM     11  C9  UNL     1     -26.108   6.262 -39.351  0.00  0.00    +0.000 A 
ATOM     12  C10 UNL     1     -27.921   4.552 -39.458  0.00  0.00    +0.000 A 
ATOM     13  C11 UNL     1     -28.378   3.256 -39.203  0.00  0.00    +0.000 A 
ATOM     14  C12 UNL     1     -27.540   2.324 -38.591  0.00  0.00    +0.000 A 
ATOM     15  C13 UNL     1     -26.241   2.685 -38.234  0.00  0.00    +0.000 A 
ENDROOT
TORSDOF 0
ENDMDL
MODEL 3
REMARK VINA RESULT:    -5.112     14.331     15.552
REMARK INTER + INTRA:          -5.112
REMARK INTER:                  -5.112
REMARK INTRA:                   0.000
REMARK UNBOUND:                 0.000
REMARK  Name = /home/anacleto/Desktop/manuscript_Mpro/naturecomm/supplementary_file_S2/6-chemical-library/molecular_docking/3D_ligand_structure/1437.pdb
REMARK  0 active torsions:
REMARK  status: ('A' for Active; 'I' for Inactive)
REMARK                            x       y       z     vdW  Elec       q    Type
REMARK                         _______ _______ _______ _____ _____    ______ ____
ROOT
ATOM      1  C1  UNL     1     -22.571   5.809 -37.896  0.00  0.00    +0.000 A 
ATOM      2  C2  UNL     1     -22.016   7.023 -37.990  0.00  0.00    +0.000 A 
ATOM      3  C3  UNL     1     -22.801   8.175 -38.498  0.00  0.00    +0.000 A 
ATOM      4  O1  UNL     1     -22.298   9.290 -38.586  0.00  0.00    +0.000 OA
ATOM      5  C4  UNL     1     -24.208   7.938 -38.895  0.00  0.00    +0.000 A 
ATOM      6  C5  UNL     1     -24.748   6.717 -38.795  0.00  0.00    +0.000 A 
ATOM      7  C6  UNL     1     -23.956   5.593 -38.291  0.00  0.00    +0.000 A 
ATOM      8  O2  UNL     1     -26.072   6.519 -39.173  0.00  0.00    +0.000 OA
ATOM      9  C7  UNL     1     -26.618   5.260 -39.067  0.00  0.00    +0.000 A 
ATOM     10  C8  UNL     1     -25.886   4.169 -38.590  0.00  0.00    +0.000 A 
ATOM     11  C9  UNL     1     -24.497   4.368 -38.191  0.00  0.00    +0.000 A 
ATOM     12  C10 UNL     1     -26.501   2.916 -38.506  0.00  0.00    +0.000 A 
ATOM     13  C11 UNL     1     -27.833   2.762 -38.897  0.00  0.00    +0.000 A 
ATOM     14  C12 UNL     1     -28.556   3.856 -39.373  0.00  0.00    +0.000 A 
ATOM     15  C13 UNL     1     -27.948   5.109 -39.458  0.00  0.00    +0.000 A 
ENDROOT
TORSDOF 0
ENDMDL
MODEL 4
REMARK VINA RESULT:    -5.080     14.583     15.940
REMARK INTER + INTRA:          -5.080
REMARK INTER:                  -5.080
REMARK INTRA:                   0.000
REMARK UNBOUND:                 0.000
REMARK  Name = /home/anacleto/Desktop/manuscript_Mpro/naturecomm/supplementary_file_S2/6-chemical-library/molecular_docking/3D_ligand_structure/1437.pdb
REMARK  0 active torsions:
REMARK  status: ('A' for Active; 'I' for Inactive)
REMARK                            x       y       z     vdW  Elec       q    Type
REMARK                         _______ _______ _______ _____ _____    ______ ____
ROOT
ATOM      1  C1  UNL     1     -26.082   2.832 -38.635  0.00  0.00    +0.000 A 
ATOM      2  C2  UNL     1     -27.340   2.611 -39.037  0.00  0.00    +0.000 A 
ATOM      3  C3  UNL     1     -28.187   3.730 -39.519  0.00  0.00    +0.000 A 
ATOM      4  O1  UNL     1     -29.339   3.533 -39.889  0.00  0.00    +0.000 OA
ATOM      5  C4  UNL     1     -27.600   5.090 -39.538  0.00  0.00    +0.000 A 
ATOM      6  C5  UNL     1     -26.340   5.294 -39.131  0.00  0.00    +0.000 A 
ATOM      7  C6  UNL     1     -25.521   4.175 -38.661  0.00  0.00    +0.000 A 
ATOM      8  O2  UNL     1     -25.810   6.580 -39.159  0.00  0.00    +0.000 OA
ATOM      9  C7  UNL     1     -24.515   6.780 -38.739  0.00  0.00    +0.000 A 
ATOM     10  C8  UNL     1     -23.710   5.732 -38.284  0.00  0.00    +0.000 A 
ATOM     11  C9  UNL     1     -24.258   4.380 -38.252  0.00  0.00    +0.000 A 
ATOM     12  C10 UNL     1     -22.401   6.003 -37.872  0.00  0.00    +0.000 A 
ATOM     13  C11 UNL     1     -21.910   7.309 -37.916  0.00  0.00    +0.000 A 
ATOM     14  C12 UNL     1     -22.721   8.350 -38.371  0.00  0.00    +0.000 A 
ATOM     15  C13 UNL     1     -24.027   8.085 -38.784  0.00  0.00    +0.000 A 
ENDROOT
TORSDOF 0
ENDMDL
MODEL 5
REMARK VINA RESULT:    -5.018     14.551     16.023
REMARK INTER + INTRA:          -5.018
REMARK INTER:                  -5.018
REMARK INTRA:                   0.000
REMARK UNBOUND:                 0.000
REMARK  Name = /home/anacleto/Desktop/manuscript_Mpro/naturecomm/supplementary_file_S2/6-chemical-library/molecular_docking/3D_ligand_structure/1437.pdb
REMARK  0 active torsions:
REMARK  status: ('A' for Active; 'I' for Inactive)
REMARK                            x       y       z     vdW  Elec       q    Type
REMARK                         _______ _______ _______ _____ _____    ______ ____
ROOT
ATOM      1  C1  UNL     1     -27.669   5.477 -39.486  0.00  0.00    +0.000 A 
ATOM      2  C2  UNL     1     -28.267   4.280 -39.478  0.00  0.00    +0.000 A 
ATOM      3  C3  UNL     1     -27.529   3.070 -39.039  0.00  0.00    +0.000 A 
ATOM      4  O1  UNL     1     -28.072   1.970 -39.029  0.00  0.00    +0.000 OA
ATOM      5  C4  UNL     1     -26.120   3.230 -38.614  0.00  0.00    +0.000 A 
ATOM      6  C5  UNL     1     -25.536   4.435 -38.629  0.00  0.00    +0.000 A 
ATOM      7  C6  UNL     1     -26.282   5.617 -39.065  0.00  0.00    +0.000 A 
ATOM      8  O2  UNL     1     -24.210   4.561 -38.224  0.00  0.00    +0.000 OA
ATOM      9  C7  UNL     1     -23.620   5.803 -38.243  0.00  0.00    +0.000 A 
ATOM     10  C8  UNL     1     -24.307   6.948 -38.655  0.00  0.00    +0.000 A 
ATOM     11  C9  UNL     1     -25.697   6.825 -39.080  0.00  0.00    +0.000 A 
ATOM     12  C10 UNL     1     -23.648   8.182 -38.650  0.00  0.00    +0.000 A 
ATOM     13  C11 UNL     1     -22.316   8.263 -38.236  0.00  0.00    +0.000 A 
ATOM     14  C12 UNL     1     -21.637   7.114 -37.827  0.00  0.00    +0.000 A 
ATOM     15  C13 UNL     1     -22.290   5.881 -37.830  0.00  0.00    +0.000 A 
ENDROOT
TORSDOF 0
ENDMDL
MODEL 6
REMARK VINA RESULT:    -4.829     16.717     20.051
REMARK INTER + INTRA:          -4.829
REMARK INTER:                  -4.829
REMARK INTRA:                   0.000
REMARK UNBOUND:                 0.000
REMARK  Name = /home/anacleto/Desktop/manuscript_Mpro/naturecomm/supplementary_file_S2/6-chemical-library/molecular_docking/3D_ligand_structure/1437.pdb
REMARK  0 active torsions:
REMARK  status: ('A' for Active; 'I' for Inactive)
REMARK                            x       y       z     vdW  Elec       q    Type
REMARK                         _______ _______ _______ _____ _____    ______ ____
ROOT
ATOM      1  C1  UNL     1     -21.319   9.527 -37.589  0.00  0.00    +0.000 A 
ATOM      2  C2  UNL     1     -21.999   8.374 -37.546  0.00  0.00    +0.000 A 
ATOM      3  C3  UNL     1     -21.402   7.125 -38.080  0.00  0.00    +0.000 A 
ATOM      4  O1  UNL     1     -22.021   6.067 -38.042  0.00  0.00    +0.000 OA
ATOM      5  C4  UNL     1     -20.041   7.195 -38.659  0.00  0.00    +0.000 A 
ATOM      6  C5  UNL     1     -19.375   8.356 -38.696  0.00  0.00    +0.000 A 
ATOM      7  C6  UNL     1     -19.981   9.578 -38.163  0.00  0.00    +0.000 A 
ATOM      8  O2  UNL     1     -18.097   8.397 -39.244  0.00  0.00    +0.000 OA
ATOM      9  C7  UNL     1     -17.421   9.595 -39.277  0.00  0.00    +0.000 A 
ATOM     10  C8  UNL     1     -17.974  10.777 -38.777  0.00  0.00    +0.000 A 
ATOM     11  C9  UNL     1     -19.313  10.742 -38.200  0.00  0.00    +0.000 A 
ATOM     12  C10 UNL     1     -17.233  11.961 -38.840  0.00  0.00    +0.000 A 
ATOM     13  C11 UNL     1     -15.953  11.957 -39.400  0.00  0.00    +0.000 A 
ATOM     14  C12 UNL     1     -15.409  10.772 -39.899  0.00  0.00    +0.000 A 
ATOM     15  C13 UNL     1     -16.143   9.588 -39.837  0.00  0.00    +0.000 A 
ENDROOT
TORSDOF 0
ENDMDL
MODEL 7
REMARK VINA RESULT:    -4.817     20.197     20.920
REMARK INTER + INTRA:          -4.817
REMARK INTER:                  -4.817
REMARK INTRA:                   0.000
REMARK UNBOUND:                 0.000
REMARK  Name = /home/anacleto/Desktop/manuscript_Mpro/naturecomm/supplementary_file_S2/6-chemical-library/molecular_docking/3D_ligand_structure/1437.pdb
REMARK  0 active torsions:
REMARK  status: ('A' for Active; 'I' for Inactive)
REMARK                            x       y       z     vdW  Elec       q    Type
REMARK                         _______ _______ _______ _____ _____    ______ ____
ROOT
ATOM      1  C1  UNL     1     -25.275  -4.034 -28.646  0.00  0.00    +0.000 A 
ATOM      2  C2  UNL     1     -24.045  -3.600 -28.949  0.00  0.00    +0.000 A 
ATOM      3  C3  UNL     1     -22.963  -3.625 -27.933  0.00  0.00    +0.000 A 
ATOM      4  O1  UNL     1     -21.835  -3.229 -28.205  0.00  0.00    +0.000 OA
ATOM      5  C4  UNL     1     -23.287  -4.142 -26.583  0.00  0.00    +0.000 A 
ATOM      6  C5  UNL     1     -24.523  -4.571 -26.296  0.00  0.00    +0.000 A 
ATOM      7  C6  UNL     1     -25.576  -4.539 -27.314  0.00  0.00    +0.000 A 
ATOM      8  O2  UNL     1     -24.804  -5.053 -25.022  0.00  0.00    +0.000 OA
ATOM      9  C7  UNL     1     -26.076  -5.493 -24.737  0.00  0.00    +0.000 A 
ATOM     10  C8  UNL     1     -27.101  -5.472 -25.687  0.00  0.00    +0.000 A 
ATOM     11  C9  UNL     1     -26.815  -4.969 -27.026  0.00  0.00    +0.000 A 
ATOM     12  C10 UNL     1     -28.372  -5.934 -25.333  0.00  0.00    +0.000 A 
ATOM     13  C11 UNL     1     -28.610  -6.409 -24.041  0.00  0.00    +0.000 A 
ATOM     14  C12 UNL     1     -27.581  -6.425 -23.098  0.00  0.00    +0.000 A 
ATOM     15  C13 UNL     1     -26.311  -5.966 -23.446  0.00  0.00    +0.000 A 
ENDROOT
TORSDOF 0
ENDMDL
MODEL 8
REMARK VINA RESULT:    -4.766     15.754     19.061
REMARK INTER + INTRA:          -4.766
REMARK INTER:                  -4.766
REMARK INTRA:                   0.000
REMARK UNBOUND:                 0.000
REMARK  Name = /home/anacleto/Desktop/manuscript_Mpro/naturecomm/supplementary_file_S2/6-chemical-library/molecular_docking/3D_ligand_structure/1437.pdb
REMARK  0 active torsions:
REMARK  status: ('A' for Active; 'I' for Inactive)
REMARK                            x       y       z     vdW  Elec       q    Type
REMARK                         _______ _______ _______ _____ _____    ______ ____
ROOT
ATOM      1  C1  UNL     1     -21.127   6.827 -38.652  0.00  0.00    +0.000 A 
ATOM      2  C2  UNL     1     -22.414   6.837 -38.283  0.00  0.00    +0.000 A 
ATOM      3  C3  UNL     1     -23.069   8.099 -37.858  0.00  0.00    +0.000 A 
ATOM      4  O1  UNL     1     -24.247   8.113 -37.520  0.00  0.00    +0.000 OA
ATOM      5  C4  UNL     1     -22.257   9.337 -37.853  0.00  0.00    +0.000 A 
ATOM      6  C5  UNL     1     -20.970   9.310 -38.223  0.00  0.00    +0.000 A 
ATOM      7  C6  UNL     1     -20.343   8.055 -38.641  0.00  0.00    +0.000 A 
ATOM      8  O2  UNL     1     -20.227  10.487 -38.211  0.00  0.00    +0.000 OA
ATOM      9  C7  UNL     1     -18.906  10.449 -38.594  0.00  0.00    +0.000 A 
ATOM     10  C8  UNL     1     -18.281   9.266 -38.996  0.00  0.00    +0.000 A 
ATOM     11  C9  UNL     1     -19.053   8.028 -39.012  0.00  0.00    +0.000 A 
ATOM     12  C10 UNL     1     -16.935   9.296 -39.374  0.00  0.00    +0.000 A 
ATOM     13  C11 UNL     1     -16.227  10.499 -39.346  0.00  0.00    +0.000 A 
ATOM     14  C12 UNL     1     -16.859  11.676 -38.942  0.00  0.00    +0.000 A 
ATOM     15  C13 UNL     1     -18.201  11.652 -38.566  0.00  0.00    +0.000 A 
ENDROOT
TORSDOF 0
ENDMDL
MODEL 9
REMARK VINA RESULT:    -4.747     14.792     16.644
REMARK INTER + INTRA:          -4.747
REMARK INTER:                  -4.747
REMARK INTRA:                   0.000
REMARK UNBOUND:                 0.000
REMARK  Name = /home/anacleto/Desktop/manuscript_Mpro/naturecomm/supplementary_file_S2/6-chemical-library/molecular_docking/3D_ligand_structure/1437.pdb
REMARK  0 active torsions:
REMARK  status: ('A' for Active; 'I' for Inactive)
REMARK                            x       y       z     vdW  Elec       q    Type
REMARK                         _______ _______ _______ _____ _____    ______ ____
ROOT
ATOM      1  C1  UNL     1     -24.129   4.885 -38.436  0.00  0.00    +0.000 A 
ATOM      2  C2  UNL     1     -25.415   4.689 -38.753  0.00  0.00    +0.000 A 
ATOM      3  C3  UNL     1     -26.266   5.824 -39.187  0.00  0.00    +0.000 A 
ATOM      4  O1  UNL     1     -27.445   5.651 -39.479  0.00  0.00    +0.000 OA
ATOM      5  C4  UNL     1     -25.652   7.169 -39.257  0.00  0.00    +0.000 A 
ATOM      6  C5  UNL     1     -24.364   7.348 -38.936  0.00  0.00    +0.000 A 
ATOM      7  C6  UNL     1     -23.540   6.214 -38.510  0.00  0.00    +0.000 A 
ATOM      8  O2  UNL     1     -23.808   8.621 -39.010  0.00  0.00    +0.000 OA
ATOM      9  C7  UNL     1     -22.484   8.794 -38.678  0.00  0.00    +0.000 A 
ATOM     10  C8  UNL     1     -21.674   7.732 -38.268  0.00  0.00    +0.000 A 
ATOM     11  C9  UNL     1     -22.249   6.394 -38.188  0.00  0.00    +0.000 A 
ATOM     12  C10 UNL     1     -20.335   7.976 -37.945  0.00  0.00    +0.000 A 
ATOM     13  C11 UNL     1     -19.819   9.270 -38.033  0.00  0.00    +0.000 A 
ATOM     14  C12 UNL     1     -20.635  10.326 -38.443  0.00  0.00    +0.000 A 
ATOM     15  C13 UNL     1     -21.970  10.088 -38.767  0.00  0.00    +0.000 A 
ENDROOT
TORSDOF 0
ENDMDL
