MODEL 1
REMARK VINA RESULT:    -3.809      0.000      0.000
REMARK INTER + INTRA:          -3.809
REMARK INTER:                  -3.809
REMARK INTRA:                   0.000
REMARK UNBOUND:                 0.000
REMARK  Name = /home/anacleto/Desktop/manuscript_Mpro/naturecomm/supplementary_file_S2/6-chemical-library/molecular_docking/3D_ligand_structure/280.pdb
REMARK  0 active torsions:
REMARK  status: ('A' for Active; 'I' for Inactive)
REMARK                            x       y       z     vdW  Elec       q    Type
REMARK                         _______ _______ _______ _____ _____    ______ ____
ROOT
ATOM      1  C1  UNL     1     -39.473   8.758 -14.053  0.00  0.00    +0.000 C 
ATOM      2  C2  UNL     1     -40.278   7.390 -14.046  0.00  0.00    +0.000 C 
ATOM      3  C3  UNL     1     -39.390   6.055 -13.879  0.00  0.00    +0.000 C 
ATOM      4  C4  UNL     1     -37.943   6.115 -14.533  0.00  0.00    +0.000 C 
ATOM      5  C5  UNL     1     -37.855   7.536 -14.993  0.00  0.00    +0.000 C 
ATOM      6  N1  UNL     1     -38.108   8.354 -13.781  0.00  0.00    +0.000 NA
ATOM      7  C6  UNL     1     -37.131   8.448 -15.950  0.00  0.00    +0.000 C 
ATOM      8  N2  UNL     1     -38.005   9.679 -16.103  0.00  0.00    +0.000 NA
ATOM      9  C7  UNL     1     -39.378   9.572 -15.441  0.00  0.00    +0.000 C 
ATOM     10  H9  UNL     1     -38.039   7.823 -12.918  0.00  0.00    +0.000 HD
ATOM     11  H12 UNL     1     -38.113   9.914 -17.087  0.00  0.00    +0.000 HD
ENDROOT
TORSDOF 0
ENDMDL
MODEL 2
REMARK VINA RESULT:    -3.774     15.805     17.440
REMARK INTER + INTRA:          -3.774
REMARK INTER:                  -3.774
REMARK INTRA:                   0.000
REMARK UNBOUND:                 0.000
REMARK  Name = /home/anacleto/Desktop/manuscript_Mpro/naturecomm/supplementary_file_S2/6-chemical-library/molecular_docking/3D_ligand_structure/280.pdb
REMARK  0 active torsions:
REMARK  status: ('A' for Active; 'I' for Inactive)
REMARK                            x       y       z     vdW  Elec       q    Type
REMARK                         _______ _______ _______ _____ _____    ______ ____
ROOT
ATOM      1  C1  UNL     1     -35.520  13.163 -31.571  0.00  0.00    +0.000 C 
ATOM      2  C2  UNL     1     -34.615  12.182 -32.429  0.00  0.00    +0.000 C 
ATOM      3  C3  UNL     1     -35.395  10.986 -33.180  0.00  0.00    +0.000 C 
ATOM      4  C4  UNL     1     -36.667  10.420 -32.416  0.00  0.00    +0.000 C 
ATOM      5  C5  UNL     1     -36.782  11.347 -31.248  0.00  0.00    +0.000 C 
ATOM      6  N1  UNL     1     -36.869  12.707 -31.836  0.00  0.00    +0.000 NA
ATOM      7  C6  UNL     1     -37.364  11.472 -29.862  0.00  0.00    +0.000 C 
ATOM      8  N2  UNL     1     -36.591  12.584 -29.178  0.00  0.00    +0.000 NA
ATOM      9  C7  UNL     1     -35.388  13.102 -29.965  0.00  0.00    +0.000 C 
ATOM     10  H9  UNL     1     -37.073  12.700 -32.831  0.00  0.00    +0.000 HD
ATOM     11  H12 UNL     1     -36.296  12.290 -28.250  0.00  0.00    +0.000 HD
ENDROOT
TORSDOF 0
ENDMDL
MODEL 3
REMARK VINA RESULT:    -3.765     27.003     28.288
REMARK INTER + INTRA:          -3.765
REMARK INTER:                  -3.765
REMARK INTRA:                   0.000
REMARK UNBOUND:                 0.000
REMARK  Name = /home/anacleto/Desktop/manuscript_Mpro/naturecomm/supplementary_file_S2/6-chemical-library/molecular_docking/3D_ligand_structure/280.pdb
REMARK  0 active torsions:
REMARK  status: ('A' for Active; 'I' for Inactive)
REMARK                            x       y       z     vdW  Elec       q    Type
REMARK                         _______ _______ _______ _____ _____    ______ ____
ROOT
ATOM      1  C1  UNL     1     -21.557   9.479 -37.948  0.00  0.00    +0.000 C 
ATOM      2  C2  UNL     1     -20.741   8.182 -37.539  0.00  0.00    +0.000 C 
ATOM      3  C3  UNL     1     -21.212   6.807 -38.238  0.00  0.00    +0.000 C 
ATOM      4  C4  UNL     1     -22.768   6.697 -38.540  0.00  0.00    +0.000 C 
ATOM      5  C5  UNL     1     -23.267   8.056 -38.164  0.00  0.00    +0.000 C 
ATOM      6  N1  UNL     1     -22.464   9.005 -38.974  0.00  0.00    +0.000 NA
ATOM      7  C6  UNL     1     -24.508   8.815 -37.769  0.00  0.00    +0.000 C 
ATOM      8  N2  UNL     1     -24.029  10.086 -37.093  0.00  0.00    +0.000 NA
ATOM      9  C7  UNL     1     -22.523  10.146 -36.842  0.00  0.00    +0.000 C 
ATOM     10  H9  UNL     1     -21.965   8.557 -39.737  0.00  0.00    +0.000 HD
ATOM     11  H12 UNL     1     -24.530  10.231 -36.220  0.00  0.00    +0.000 HD
ENDROOT
TORSDOF 0
ENDMDL
MODEL 4
REMARK VINA RESULT:    -3.760     27.935     29.026
REMARK INTER + INTRA:          -3.760
REMARK INTER:                  -3.760
REMARK INTRA:                   0.000
REMARK UNBOUND:                 0.000
REMARK  Name = /home/anacleto/Desktop/manuscript_Mpro/naturecomm/supplementary_file_S2/6-chemical-library/molecular_docking/3D_ligand_structure/280.pdb
REMARK  0 active torsions:
REMARK  status: ('A' for Active; 'I' for Inactive)
REMARK                            x       y       z     vdW  Elec       q    Type
REMARK                         _______ _______ _______ _____ _____    ______ ____
ROOT
ATOM      1  C1  UNL     1     -22.217   9.143 -37.109  0.00  0.00    +0.000 C 
ATOM      2  C2  UNL     1     -22.783   7.912 -37.935  0.00  0.00    +0.000 C 
ATOM      3  C3  UNL     1     -21.721   6.745 -38.269  0.00  0.00    +0.000 C 
ATOM      4  C4  UNL     1     -20.227   7.232 -38.505  0.00  0.00    +0.000 C 
ATOM      5  C5  UNL     1     -20.308   8.690 -38.181  0.00  0.00    +0.000 C 
ATOM      6  N1  UNL     1     -20.855   8.754 -36.803  0.00  0.00    +0.000 NA
ATOM      7  C6  UNL     1     -19.617  10.012 -38.401  0.00  0.00    +0.000 C 
ATOM      8  N2  UNL     1     -20.649  11.084 -38.104  0.00  0.00    +0.000 NA
ATOM      9  C7  UNL     1     -22.065  10.557 -37.869  0.00  0.00    +0.000 C 
ATOM     10  H9  UNL     1     -20.820   7.863 -36.317  0.00  0.00    +0.000 HD
ATOM     11  H12 UNL     1     -20.658  11.780 -38.845  0.00  0.00    +0.000 HD
ENDROOT
TORSDOF 0
ENDMDL
MODEL 5
REMARK VINA RESULT:    -3.757     27.886     29.077
REMARK INTER + INTRA:          -3.757
REMARK INTER:                  -3.757
REMARK INTRA:                   0.000
REMARK UNBOUND:                 0.000
REMARK  Name = /home/anacleto/Desktop/manuscript_Mpro/naturecomm/supplementary_file_S2/6-chemical-library/molecular_docking/3D_ligand_structure/280.pdb
REMARK  0 active torsions:
REMARK  status: ('A' for Active; 'I' for Inactive)
REMARK                            x       y       z     vdW  Elec       q    Type
REMARK                         _______ _______ _______ _____ _____    ______ ____
ROOT
ATOM      1  C1  UNL     1     -21.249   7.614 -37.597  0.00  0.00    +0.000 C 
ATOM      2  C2  UNL     1     -20.149   7.631 -38.741  0.00  0.00    +0.000 C 
ATOM      3  C3  UNL     1     -19.083   8.839 -38.670  0.00  0.00    +0.000 C 
ATOM      4  C4  UNL     1     -19.645  10.209 -38.097  0.00  0.00    +0.000 C 
ATOM      5  C5  UNL     1     -21.029   9.838 -37.670  0.00  0.00    +0.000 C 
ATOM      6  N1  UNL     1     -20.856   8.705 -36.727  0.00  0.00    +0.000 NA
ATOM      7  C6  UNL     1     -22.389  10.412 -37.362  0.00  0.00    +0.000 C 
ATOM      8  N2  UNL     1     -23.368   9.257 -37.463  0.00  0.00    +0.000 NA
ATOM      9  C7  UNL     1     -22.770   7.959 -38.005  0.00  0.00    +0.000 C 
ATOM     10  H9  UNL     1     -19.900   8.598 -36.401  0.00  0.00    +0.000 HD
ATOM     11  H12 UNL     1     -24.174   9.526 -38.023  0.00  0.00    +0.000 HD
ENDROOT
TORSDOF 0
ENDMDL
MODEL 6
REMARK VINA RESULT:    -3.693     20.877     21.728
REMARK INTER + INTRA:          -3.693
REMARK INTER:                  -3.693
REMARK INTRA:                   0.000
REMARK UNBOUND:                 0.000
REMARK  Name = /home/anacleto/Desktop/manuscript_Mpro/naturecomm/supplementary_file_S2/6-chemical-library/molecular_docking/3D_ligand_structure/280.pdb
REMARK  0 active torsions:
REMARK  status: ('A' for Active; 'I' for Inactive)
REMARK                            x       y       z     vdW  Elec       q    Type
REMARK                         _______ _______ _______ _____ _____    ______ ____
ROOT
ATOM      1  C1  UNL     1     -26.205  -4.548 -26.239  0.00  0.00    +0.000 C 
ATOM      2  C2  UNL     1     -24.887  -5.274 -26.744  0.00  0.00    +0.000 C 
ATOM      3  C3  UNL     1     -23.989  -4.444 -27.795  0.00  0.00    +0.000 C 
ATOM      4  C4  UNL     1     -24.797  -3.501 -28.785  0.00  0.00    +0.000 C 
ATOM      5  C5  UNL     1     -26.198  -3.621 -28.274  0.00  0.00    +0.000 C 
ATOM      6  N1  UNL     1     -26.125  -3.233 -26.843  0.00  0.00    +0.000 NA
ATOM      7  C6  UNL     1     -27.642  -3.439 -28.666  0.00  0.00    +0.000 C 
ATOM      8  N2  UNL     1     -28.455  -4.252 -27.675  0.00  0.00    +0.000 NA
ATOM      9  C7  UNL     1     -27.625  -5.128 -26.737  0.00  0.00    +0.000 C 
ATOM     10  H9  UNL     1     -25.259  -2.762 -26.599  0.00  0.00    +0.000 HD
ATOM     11  H12 UNL     1     -29.139  -4.823 -28.165  0.00  0.00    +0.000 HD
ENDROOT
TORSDOF 0
ENDMDL
MODEL 7
REMARK VINA RESULT:    -3.680     17.131     18.164
REMARK INTER + INTRA:          -3.680
REMARK INTER:                  -3.680
REMARK INTRA:                   0.000
REMARK UNBOUND:                 0.000
REMARK  Name = /home/anacleto/Desktop/manuscript_Mpro/naturecomm/supplementary_file_S2/6-chemical-library/molecular_docking/3D_ligand_structure/280.pdb
REMARK  0 active torsions:
REMARK  status: ('A' for Active; 'I' for Inactive)
REMARK                            x       y       z     vdW  Elec       q    Type
REMARK                         _______ _______ _______ _____ _____    ______ ____
ROOT
ATOM      1  C1  UNL     1     -34.776  12.286 -33.161  0.00  0.00    +0.000 C 
ATOM      2  C2  UNL     1     -35.244  10.772 -33.074  0.00  0.00    +0.000 C 
ATOM      3  C3  UNL     1     -36.644  10.514 -32.315  0.00  0.00    +0.000 C 
ATOM      4  C4  UNL     1     -36.959  11.507 -31.115  0.00  0.00    +0.000 C 
ATOM      5  C5  UNL     1     -35.831  12.485 -31.200  0.00  0.00    +0.000 C 
ATOM      6  N1  UNL     1     -35.882  13.021 -32.583  0.00  0.00    +0.000 NA
ATOM      7  C6  UNL     1     -35.060  13.506 -30.402  0.00  0.00    +0.000 C 
ATOM      8  N2  UNL     1     -33.743  13.704 -31.128  0.00  0.00    +0.000 NA
ATOM      9  C7  UNL     1     -33.500  12.733 -32.283  0.00  0.00    +0.000 C 
ATOM     10  H9  UNL     1     -36.756  12.818 -33.059  0.00  0.00    +0.000 HD
ATOM     11  H12 UNL     1     -32.968  13.660 -30.471  0.00  0.00    +0.000 HD
ENDROOT
TORSDOF 0
ENDMDL
MODEL 8
REMARK VINA RESULT:    -3.632     23.641     24.654
REMARK INTER + INTRA:          -3.632
REMARK INTER:                  -3.632
REMARK INTRA:                   0.000
REMARK UNBOUND:                 0.000
REMARK  Name = /home/anacleto/Desktop/manuscript_Mpro/naturecomm/supplementary_file_S2/6-chemical-library/molecular_docking/3D_ligand_structure/280.pdb
REMARK  0 active torsions:
REMARK  status: ('A' for Active; 'I' for Inactive)
REMARK                            x       y       z     vdW  Elec       q    Type
REMARK                         _______ _______ _______ _____ _____    ______ ____
ROOT
ATOM      1  C1  UNL     1     -36.158  -1.902 -38.468  0.00  0.00    +0.000 C 
ATOM      2  C2  UNL     1     -37.666  -1.406 -38.460  0.00  0.00    +0.000 C 
ATOM      3  C3  UNL     1     -37.932   0.014 -37.744  0.00  0.00    +0.000 C 
ATOM      4  C4  UNL     1     -36.989   0.340 -36.509  0.00  0.00    +0.000 C 
ATOM      5  C5  UNL     1     -36.028  -0.806 -36.524  0.00  0.00    +0.000 C 
ATOM      6  N1  UNL     1     -35.430  -0.795 -37.882  0.00  0.00    +0.000 NA
ATOM      7  C6  UNL     1     -35.057  -1.575 -35.664  0.00  0.00    +0.000 C 
ATOM      8  N2  UNL     1     -34.850  -2.912 -36.351  0.00  0.00    +0.000 NA
ATOM      9  C7  UNL     1     -35.773  -3.165 -37.543  0.00  0.00    +0.000 C 
ATOM     10  H9  UNL     1     -35.596   0.071 -38.386  0.00  0.00    +0.000 HD
ATOM     11  H12 UNL     1     -34.937  -3.671 -35.680  0.00  0.00    +0.000 HD
ENDROOT
TORSDOF 0
ENDMDL
MODEL 9
REMARK VINA RESULT:    -3.519     25.913     27.321
REMARK INTER + INTRA:          -3.519
REMARK INTER:                  -3.519
REMARK INTRA:                   0.000
REMARK UNBOUND:                 0.000
REMARK  Name = /home/anacleto/Desktop/manuscript_Mpro/naturecomm/supplementary_file_S2/6-chemical-library/molecular_docking/3D_ligand_structure/280.pdb
REMARK  0 active torsions:
REMARK  status: ('A' for Active; 'I' for Inactive)
REMARK                            x       y       z     vdW  Elec       q    Type
REMARK                         _______ _______ _______ _____ _____    ______ ____
ROOT
ATOM      1  C1  UNL     1     -28.385   2.167 -40.088  0.00  0.00    +0.000 C 
ATOM      2  C2  UNL     1     -26.893   2.363 -40.593  0.00  0.00    +0.000 C 
ATOM      3  C3  UNL     1     -25.820   2.779 -39.463  0.00  0.00    +0.000 C 
ATOM      4  C4  UNL     1     -26.383   3.695 -38.294  0.00  0.00    +0.000 C 
ATOM      5  C5  UNL     1     -27.846   3.747 -38.601  0.00  0.00    +0.000 C 
ATOM      6  N1  UNL     1     -28.285   2.330 -38.652  0.00  0.00    +0.000 NA
ATOM      7  C6  UNL     1     -29.100   4.547 -38.355  0.00  0.00    +0.000 C 
ATOM      8  N2  UNL     1     -30.076   4.152 -39.448  0.00  0.00    +0.000 NA
ATOM      9  C7  UNL     1     -29.484   3.257 -40.537  0.00  0.00    +0.000 C 
ATOM     10  H9  UNL     1     -27.610   1.688 -38.247  0.00  0.00    +0.000 HD
ATOM     11  H12 UNL     1     -30.488   4.981 -39.869  0.00  0.00    +0.000 HD
ENDROOT
TORSDOF 0
ENDMDL
