MODEL 1
REMARK VINA RESULT:    -3.267      0.000      0.000
REMARK INTER + INTRA:          -3.267
REMARK INTER:                  -3.267
REMARK INTRA:                   0.000
REMARK UNBOUND:                 0.000
REMARK  Name = /home/anacleto/Desktop/manuscript_Mpro/naturecomm/supplementary_file_S2/6-chemical-library/molecular_docking/3D_ligand_structure/72.pdb
REMARK  0 active torsions:
REMARK  status: ('A' for Active; 'I' for Inactive)
REMARK                            x       y       z     vdW  Elec       q    Type
REMARK                         _______ _______ _______ _____ _____    ______ ____
ROOT
ATOM      1  C1  UNL     1      19.574   5.544   8.516  0.00  0.00    +0.000 C 
ATOM      2  C2  UNL     1      19.188   7.011   8.358  0.00  0.00    +0.000 C 
ATOM      3  C3  UNL     1      19.947   7.892   9.350  0.00  0.00    +0.000 C 
ATOM      4  N1  UNL     1      21.397   7.717   9.235  0.00  0.00    +0.000 NA
ATOM      5  C4  UNL     1      21.776   6.320   9.463  0.00  0.00    +0.000 C 
ATOM      6  C5  UNL     1      21.090   5.377   8.476  0.00  0.00    +0.000 C 
ATOM      7  H7  UNL     1      21.689   7.988   8.296  0.00  0.00    +0.000 HD
ENDROOT
TORSDOF 0
ENDMDL
MODEL 2
REMARK VINA RESULT:    -3.155     15.569     16.464
REMARK INTER + INTRA:          -3.155
REMARK INTER:                  -3.155
REMARK INTRA:                   0.000
REMARK UNBOUND:                 0.000
REMARK  Name = /home/anacleto/Desktop/manuscript_Mpro/naturecomm/supplementary_file_S2/6-chemical-library/molecular_docking/3D_ligand_structure/72.pdb
REMARK  0 active torsions:
REMARK  status: ('A' for Active; 'I' for Inactive)
REMARK                            x       y       z     vdW  Elec       q    Type
REMARK                         _______ _______ _______ _____ _____    ______ ____
ROOT
ATOM      1  C1  UNL     1      15.198  11.854  -6.461  0.00  0.00    +0.000 C 
ATOM      2  C2  UNL     1      15.796  11.163  -5.240  0.00  0.00    +0.000 C 
ATOM      3  C3  UNL     1      14.759  11.012  -4.128  0.00  0.00    +0.000 C 
ATOM      4  N1  UNL     1      13.561  10.309  -4.592  0.00  0.00    +0.000 NA
ATOM      5  C4  UNL     1      12.942  11.013  -5.717  0.00  0.00    +0.000 C 
ATOM      6  C5  UNL     1      13.906  11.165  -6.892  0.00  0.00    +0.000 C 
ATOM      7  H7  UNL     1      13.826   9.372  -4.897  0.00  0.00    +0.000 HD
ENDROOT
TORSDOF 0
ENDMDL
MODEL 3
REMARK VINA RESULT:    -3.058     16.814     17.419
REMARK INTER + INTRA:          -3.058
REMARK INTER:                  -3.058
REMARK INTRA:                   0.000
REMARK UNBOUND:                 0.000
REMARK  Name = /home/anacleto/Desktop/manuscript_Mpro/naturecomm/supplementary_file_S2/6-chemical-library/molecular_docking/3D_ligand_structure/72.pdb
REMARK  0 active torsions:
REMARK  status: ('A' for Active; 'I' for Inactive)
REMARK                            x       y       z     vdW  Elec       q    Type
REMARK                         _______ _______ _______ _____ _____    ______ ____
ROOT
ATOM      1  C1  UNL     1      15.360  11.544  -6.940  0.00  0.00    +0.000 C 
ATOM      2  C2  UNL     1      14.018  10.971  -7.386  0.00  0.00    +0.000 C 
ATOM      3  C3  UNL     1      13.015  10.952  -6.234  0.00  0.00    +0.000 C 
ATOM      4  N1  UNL     1      12.845  12.280  -5.638  0.00  0.00    +0.000 NA
ATOM      5  C4  UNL     1      14.121  12.799  -5.140  0.00  0.00    +0.000 C 
ATOM      6  C5  UNL     1      15.168  12.891  -6.249  0.00  0.00    +0.000 C 
ATOM      7  H7  UNL     1      12.486  12.917  -6.349  0.00  0.00    +0.000 HD
ENDROOT
TORSDOF 0
ENDMDL
MODEL 4
REMARK VINA RESULT:    -2.958      0.878      2.075
REMARK INTER + INTRA:          -2.958
REMARK INTER:                  -2.958
REMARK INTRA:                   0.000
REMARK UNBOUND:                 0.000
REMARK  Name = /home/anacleto/Desktop/manuscript_Mpro/naturecomm/supplementary_file_S2/6-chemical-library/molecular_docking/3D_ligand_structure/72.pdb
REMARK  0 active torsions:
REMARK  status: ('A' for Active; 'I' for Inactive)
REMARK                            x       y       z     vdW  Elec       q    Type
REMARK                         _______ _______ _______ _____ _____    ______ ____
ROOT
ATOM      1  C1  UNL     1      20.767   5.270   8.435  0.00  0.00    +0.000 C 
ATOM      2  C2  UNL     1      21.643   6.119   9.351  0.00  0.00    +0.000 C 
ATOM      3  C3  UNL     1      21.330   7.606   9.193  0.00  0.00    +0.000 C 
ATOM      4  N1  UNL     1      19.910   7.890   9.416  0.00  0.00    +0.000 NA
ATOM      5  C4  UNL     1      19.071   7.133   8.485  0.00  0.00    +0.000 C 
ATOM      6  C5  UNL     1      19.294   5.627   8.615  0.00  0.00    +0.000 C 
ATOM      7  H7  UNL     1      19.666   7.624  10.370  0.00  0.00    +0.000 HD
ENDROOT
TORSDOF 0
ENDMDL
MODEL 5
REMARK VINA RESULT:    -2.908     15.410     16.224
REMARK INTER + INTRA:          -2.908
REMARK INTER:                  -2.908
REMARK INTRA:                   0.000
REMARK UNBOUND:                 0.000
REMARK  Name = /home/anacleto/Desktop/manuscript_Mpro/naturecomm/supplementary_file_S2/6-chemical-library/molecular_docking/3D_ligand_structure/72.pdb
REMARK  0 active torsions:
REMARK  status: ('A' for Active; 'I' for Inactive)
REMARK                            x       y       z     vdW  Elec       q    Type
REMARK                         _______ _______ _______ _____ _____    ______ ____
ROOT
ATOM      1  C1  UNL     1      14.742  11.669  -6.816  0.00  0.00    +0.000 C 
ATOM      2  C2  UNL     1      13.383  11.441  -6.161  0.00  0.00    +0.000 C 
ATOM      3  C3  UNL     1      13.473  10.396  -5.050  0.00  0.00    +0.000 C 
ATOM      4  N1  UNL     1      14.484  10.751  -4.050  0.00  0.00    +0.000 NA
ATOM      5  C4  UNL     1      15.804  10.895  -4.666  0.00  0.00    +0.000 C 
ATOM      6  C5  UNL     1      15.806  11.959  -5.762  0.00  0.00    +0.000 C 
ATOM      7  H7  UNL     1      14.223  11.638  -3.619  0.00  0.00    +0.000 HD
ENDROOT
TORSDOF 0
ENDMDL
MODEL 6
REMARK VINA RESULT:    -2.898      9.592     10.023
REMARK INTER + INTRA:          -2.898
REMARK INTER:                  -2.898
REMARK INTRA:                   0.000
REMARK UNBOUND:                 0.000
REMARK  Name = /home/anacleto/Desktop/manuscript_Mpro/naturecomm/supplementary_file_S2/6-chemical-library/molecular_docking/3D_ligand_structure/72.pdb
REMARK  0 active torsions:
REMARK  status: ('A' for Active; 'I' for Inactive)
REMARK                            x       y       z     vdW  Elec       q    Type
REMARK                         _______ _______ _______ _____ _____    ______ ____
ROOT
ATOM      1  C1  UNL     1      22.412  16.743  12.098  0.00  0.00    +0.000 C 
ATOM      2  C2  UNL     1      22.978  16.041  10.867  0.00  0.00    +0.000 C 
ATOM      3  C3  UNL     1      24.174  15.164  11.232  0.00  0.00    +0.000 C 
ATOM      4  N1  UNL     1      23.839  14.195  12.279  0.00  0.00    +0.000 NA
ATOM      5  C4  UNL     1      23.367  14.872  13.489  0.00  0.00    +0.000 C 
ATOM      6  C5  UNL     1      22.140  15.738  13.213  0.00  0.00    +0.000 C 
ATOM      7  H7  UNL     1      23.099  13.581  11.936  0.00  0.00    +0.000 HD
ENDROOT
TORSDOF 0
ENDMDL
MODEL 7
REMARK VINA RESULT:    -2.674     10.332     11.345
REMARK INTER + INTRA:          -2.674
REMARK INTER:                  -2.674
REMARK INTRA:                   0.000
REMARK UNBOUND:                 0.000
REMARK  Name = /home/anacleto/Desktop/manuscript_Mpro/naturecomm/supplementary_file_S2/6-chemical-library/molecular_docking/3D_ligand_structure/72.pdb
REMARK  0 active torsions:
REMARK  status: ('A' for Active; 'I' for Inactive)
REMARK                            x       y       z     vdW  Elec       q    Type
REMARK                         _______ _______ _______ _____ _____    ______ ____
ROOT
ATOM      1  C1  UNL     1      27.273  17.071   9.160  0.00  0.00    +0.000 C 
ATOM      2  C2  UNL     1      27.659  16.170   7.991  0.00  0.00    +0.000 C 
ATOM      3  C3  UNL     1      27.117  14.755   8.181  0.00  0.00    +0.000 C 
ATOM      4  N1  UNL     1      25.667  14.751   8.388  0.00  0.00    +0.000 NA
ATOM      5  C4  UNL     1      25.301  15.554   9.557  0.00  0.00    +0.000 C 
ATOM      6  C5  UNL     1      25.771  17.001   9.422  0.00  0.00    +0.000 C 
ATOM      7  H7  UNL     1      25.215  15.146   7.563  0.00  0.00    +0.000 HD
ENDROOT
TORSDOF 0
ENDMDL
MODEL 8
REMARK VINA RESULT:    -2.653      8.513      9.578
REMARK INTER + INTRA:          -2.653
REMARK INTER:                  -2.653
REMARK INTRA:                   0.000
REMARK UNBOUND:                 0.000
REMARK  Name = /home/anacleto/Desktop/manuscript_Mpro/naturecomm/supplementary_file_S2/6-chemical-library/molecular_docking/3D_ligand_structure/72.pdb
REMARK  0 active torsions:
REMARK  status: ('A' for Active; 'I' for Inactive)
REMARK                            x       y       z     vdW  Elec       q    Type
REMARK                         _______ _______ _______ _____ _____    ______ ____
ROOT
ATOM      1  C1  UNL     1      14.586   1.584   8.774  0.00  0.00    +0.000 C 
ATOM      2  C2  UNL     1      15.062   0.628   7.685  0.00  0.00    +0.000 C 
ATOM      3  C3  UNL     1      14.615  -0.805   7.972  0.00  0.00    +0.000 C 
ATOM      4  N1  UNL     1      13.164  -0.896   8.151  0.00  0.00    +0.000 NA
ATOM      5  C4  UNL     1      12.715  -0.036   9.248  0.00  0.00    +0.000 C 
ATOM      6  C5  UNL     1      13.087   1.427   9.011  0.00  0.00    +0.000 C 
ATOM      7  H7  UNL     1      12.706  -0.597   7.290  0.00  0.00    +0.000 HD
ENDROOT
TORSDOF 0
ENDMDL
MODEL 9
REMARK VINA RESULT:    -2.511      9.664     10.035
REMARK INTER + INTRA:          -2.511
REMARK INTER:                  -2.511
REMARK INTRA:                   0.000
REMARK UNBOUND:                 0.000
REMARK  Name = /home/anacleto/Desktop/manuscript_Mpro/naturecomm/supplementary_file_S2/6-chemical-library/molecular_docking/3D_ligand_structure/72.pdb
REMARK  0 active torsions:
REMARK  status: ('A' for Active; 'I' for Inactive)
REMARK                            x       y       z     vdW  Elec       q    Type
REMARK                         _______ _______ _______ _____ _____    ______ ____
ROOT
ATOM      1  C1  UNL     1      24.281  15.724  13.013  0.00  0.00    +0.000 C 
ATOM      2  C2  UNL     1      22.892  15.394  12.475  0.00  0.00    +0.000 C 
ATOM      3  C3  UNL     1      22.771  15.758  10.996  0.00  0.00    +0.000 C 
ATOM      4  N1  UNL     1      23.812  15.113  10.190  0.00  0.00    +0.000 NA
ATOM      5  C4  UNL     1      25.147  15.491  10.659  0.00  0.00    +0.000 C 
ATOM      6  C5  UNL     1      25.362  15.117  12.124  0.00  0.00    +0.000 C 
ATOM      7  H7  UNL     1      23.710  14.101  10.269  0.00  0.00    +0.000 HD
ENDROOT
TORSDOF 0
ENDMDL
