MODEL 1
REMARK VINA RESULT:    -5.278      0.000      0.000
REMARK INTER + INTRA:          -6.160
REMARK INTER:                  -5.949
REMARK INTRA:                  -0.211
REMARK UNBOUND:                -0.265
REMARK  Name = /home/anacleto/Desktop/manuscript_Mpro/naturecomm/supplementary_file_S2/6-chemical-library/molecular_docking/3D_ligand_structure/586.pdb
REMARK  2 active torsions:
REMARK  status: ('A' for Active; 'I' for Inactive)
REMARK    1  A    between atoms: N1_5  and  C5_9
REMARK    2  A    between atoms: C5_9  and  C6_10
REMARK                            x       y       z     vdW  Elec       q    Type
REMARK                         _______ _______ _______ _____ _____    ______ ____
ROOT
ATOM      1  C5  UNL     1      15.335  13.645  -5.079  0.00  0.00    +0.000 C 
ENDROOT
BRANCH   1   6
ATOM      2  O1  UNL     1      12.853   9.728  -7.965  0.00  0.00    +0.000 OA
ATOM      3  C1  UNL     1      13.409  10.609  -7.319  0.00  0.00    +0.000 A 
ATOM      4  C2  UNL     1      12.786  11.171  -6.111  0.00  0.00    +0.000 A 
ATOM      5  C3  UNL     1      13.440  12.113  -5.428  0.00  0.00    +0.000 A 
ATOM      6  N1  UNL     1      14.683  12.565  -5.820  0.00  0.00    +0.000 N 
ATOM      7  C4  UNL     1      15.303  12.100  -6.972  0.00  0.00    +0.000 A 
ATOM      8  O2  UNL     1      16.394  12.499  -7.374  0.00  0.00    +0.000 OA
ATOM      9  N2  UNL     1      14.625  11.126  -7.657  0.00  0.00    +0.000 N 
ATOM     10  H3  UNL     1      15.062  10.772  -8.492  0.00  0.00    +0.000 HD
ENDBRANCH   1   6
BRANCH   1  11
ATOM     11  C6  UNL     1      15.262  13.424  -3.559  0.00  0.00    +0.000 C 
ATOM     12  O3  UNL     1      14.412  13.986  -2.863  0.00  0.00    +0.000 OA
ATOM     13  N3  UNL     1      16.155  12.510  -3.014  0.00  0.00    +0.000 N 
ATOM     14  C7  UNL     1      16.182  12.323  -1.561  0.00  0.00    +0.000 C 
ATOM     15  C8  UNL     1      17.584  11.943  -1.051  0.00  0.00    +0.000 C 
ATOM     16  N4  UNL     1      18.190  10.766  -1.696  0.00  0.00    +0.000 NA
ATOM     17  C9  UNL     1      17.619  10.492  -3.023  0.00  0.00    +0.000 C 
ATOM     18  C10 UNL     1      17.144  11.744  -3.780  0.00  0.00    +0.000 C 
ATOM     19  H10 UNL     1      18.068   9.945  -1.104  0.00  0.00    +0.000 HD
ENDBRANCH   1  11
TORSDOF 2
ENDMDL
MODEL 2
REMARK VINA RESULT:    -5.175      3.122      4.086
REMARK INTER + INTRA:          -6.045
REMARK INTER:                  -5.827
REMARK INTRA:                  -0.218
REMARK UNBOUND:                -0.265
REMARK  Name = /home/anacleto/Desktop/manuscript_Mpro/naturecomm/supplementary_file_S2/6-chemical-library/molecular_docking/3D_ligand_structure/586.pdb
REMARK  2 active torsions:
REMARK  status: ('A' for Active; 'I' for Inactive)
REMARK    1  A    between atoms: N1_5  and  C5_9
REMARK    2  A    between atoms: C5_9  and  C6_10
REMARK                            x       y       z     vdW  Elec       q    Type
REMARK                         _______ _______ _______ _____ _____    ______ ____
ROOT
ATOM      1  C5  UNL     1      17.416  12.963  -2.500  0.00  0.00    +0.000 C 
ENDROOT
BRANCH   1   6
ATOM      2  O1  UNL     1      13.419  10.594  -5.370  0.00  0.00    +0.000 OA
ATOM      3  C1  UNL     1      14.318  11.124  -4.727  0.00  0.00    +0.000 A 
ATOM      4  C2  UNL     1      14.935  12.381  -5.180  0.00  0.00    +0.000 A 
ATOM      5  C3  UNL     1      15.895  12.932  -4.435  0.00  0.00    +0.000 A 
ATOM      6  N1  UNL     1      16.316  12.359  -3.252  0.00  0.00    +0.000 N 
ATOM      7  C4  UNL     1      15.799  11.155  -2.794  0.00  0.00    +0.000 A 
ATOM      8  O2  UNL     1      16.169  10.596  -1.764  0.00  0.00    +0.000 OA
ATOM      9  N2  UNL     1      14.807  10.606  -3.564  0.00  0.00    +0.000 N 
ATOM     10  H3  UNL     1      14.415   9.735  -3.245  0.00  0.00    +0.000 HD
ENDBRANCH   1   6
BRANCH   1  11
ATOM     11  C6  UNL     1      16.919  14.031  -1.511  0.00  0.00    +0.000 C 
ATOM     12  O3  UNL     1      15.722  14.313  -1.412  0.00  0.00    +0.000 OA
ATOM     13  N3  UNL     1      17.872  14.617  -0.688  0.00  0.00    +0.000 N 
ATOM     14  C7  UNL     1      17.463  15.697   0.214  0.00  0.00    +0.000 C 
ATOM     15  C8  UNL     1      18.599  16.707   0.461  0.00  0.00    +0.000 C 
ATOM     16  N4  UNL     1      19.861  16.125   0.951  0.00  0.00    +0.000 NA
ATOM     17  C9  UNL     1      19.992  14.698   0.621  0.00  0.00    +0.000 C 
ATOM     18  C10 UNL     1      19.300  14.284  -0.689  0.00  0.00    +0.000 C 
ATOM     19  H10 UNL     1      19.927  16.242   1.961  0.00  0.00    +0.000 HD
ENDBRANCH   1  11
TORSDOF 2
ENDMDL
MODEL 3
REMARK VINA RESULT:    -5.056      2.295      6.334
REMARK INTER + INTRA:          -5.912
REMARK INTER:                  -5.609
REMARK INTRA:                  -0.303
REMARK UNBOUND:                -0.265
REMARK  Name = /home/anacleto/Desktop/manuscript_Mpro/naturecomm/supplementary_file_S2/6-chemical-library/molecular_docking/3D_ligand_structure/586.pdb
REMARK  2 active torsions:
REMARK  status: ('A' for Active; 'I' for Inactive)
REMARK    1  A    between atoms: N1_5  and  C5_9
REMARK    2  A    between atoms: C5_9  and  C6_10
REMARK                            x       y       z     vdW  Elec       q    Type
REMARK                         _______ _______ _______ _____ _____    ______ ____
ROOT
ATOM      1  C5  UNL     1      16.535  10.822  -2.479  0.00  0.00    +0.000 C 
ENDROOT
BRANCH   1   6
ATOM      2  O1  UNL     1      18.996  14.820   0.311  0.00  0.00    +0.000 OA
ATOM      3  C1  UNL     1      18.445  13.924  -0.317  0.00  0.00    +0.000 A 
ATOM      4  C2  UNL     1      19.101  12.622  -0.515  0.00  0.00    +0.000 A 
ATOM      5  C3  UNL     1      18.451  11.670  -1.188  0.00  0.00    +0.000 A 
ATOM      6  N1  UNL     1      17.183  11.872  -1.693  0.00  0.00    +0.000 N 
ATOM      7  C4  UNL     1      16.530  13.090  -1.571  0.00  0.00    +0.000 A 
ATOM      8  O2  UNL     1      15.414  13.322  -2.033  0.00  0.00    +0.000 OA
ATOM      9  N2  UNL     1      17.204  14.056  -0.870  0.00  0.00    +0.000 N 
ATOM     10  H3  UNL     1      16.744  14.945  -0.765  0.00  0.00    +0.000 HD
ENDBRANCH   1   6
BRANCH   1  11
ATOM     11  C6  UNL     1      16.791  10.991  -3.986  0.00  0.00    +0.000 C 
ATOM     12  O3  UNL     1      17.933  10.999  -4.451  0.00  0.00    +0.000 OA
ATOM     13  N3  UNL     1      15.674  11.067  -4.808  0.00  0.00    +0.000 N 
ATOM     14  C7  UNL     1      15.861  11.309  -6.240  0.00  0.00    +0.000 C 
ATOM     15  C8  UNL     1      14.686  12.092  -6.855  0.00  0.00    +0.000 C 
ATOM     16  N4  UNL     1      13.355  11.499  -6.640  0.00  0.00    +0.000 NA
ATOM     17  C9  UNL     1      13.318  10.600  -5.477  0.00  0.00    +0.000 C 
ATOM     18  C10 UNL     1      14.284  10.988  -4.344  0.00  0.00    +0.000 C 
ATOM     19  H10 UNL     1      13.068  10.981  -7.471  0.00  0.00    +0.000 HD
ENDBRANCH   1  11
TORSDOF 2
ENDMDL
MODEL 4
REMARK VINA RESULT:    -4.996      3.509      5.105
REMARK INTER + INTRA:          -5.845
REMARK INTER:                  -5.504
REMARK INTRA:                  -0.342
REMARK UNBOUND:                -0.265
REMARK  Name = /home/anacleto/Desktop/manuscript_Mpro/naturecomm/supplementary_file_S2/6-chemical-library/molecular_docking/3D_ligand_structure/586.pdb
REMARK  2 active torsions:
REMARK  status: ('A' for Active; 'I' for Inactive)
REMARK    1  A    between atoms: N1_5  and  C5_9
REMARK    2  A    between atoms: C5_9  and  C6_10
REMARK                            x       y       z     vdW  Elec       q    Type
REMARK                         _______ _______ _______ _____ _____    ______ ____
ROOT
ATOM      1  C5  UNL     1      16.874  13.440  -0.624  0.00  0.00    +0.000 C 
ENDROOT
BRANCH   1   6
ATOM      2  O1  UNL     1      14.022  12.695  -5.223  0.00  0.00    +0.000 OA
ATOM      3  C1  UNL     1      14.664  12.861  -4.192  0.00  0.00    +0.000 A 
ATOM      4  C2  UNL     1      15.228  14.178  -3.854  0.00  0.00    +0.000 A 
ATOM      5  C3  UNL     1      15.901  14.315  -2.709  0.00  0.00    +0.000 A 
ATOM      6  N1  UNL     1      16.075  13.261  -1.836  0.00  0.00    +0.000 N 
ATOM      7  C4  UNL     1      15.600  11.988  -2.119  0.00  0.00    +0.000 A 
ATOM      8  O2  UNL     1      15.760  11.015  -1.385  0.00  0.00    +0.000 OA
ATOM      9  N2  UNL     1      14.902  11.863  -3.293  0.00  0.00    +0.000 N 
ATOM     10  H3  UNL     1      14.544  10.948  -3.512  0.00  0.00    +0.000 HD
ENDBRANCH   1   6
BRANCH   1  11
ATOM     11  C6  UNL     1      18.382  13.427  -0.923  0.00  0.00    +0.000 C 
ATOM     12  O3  UNL     1      18.892  12.564  -1.642  0.00  0.00    +0.000 OA
ATOM     13  N3  UNL     1      19.135  14.472  -0.400  0.00  0.00    +0.000 N 
ATOM     14  C7  UNL     1      20.588  14.462  -0.587  0.00  0.00    +0.000 C 
ATOM     15  C8  UNL     1      21.327  15.144   0.579  0.00  0.00    +0.000 C 
ATOM     16  N4  UNL     1      20.892  16.518   0.881  0.00  0.00    +0.000 NA
ATOM     17  C9  UNL     1      19.530  16.798   0.402  0.00  0.00    +0.000 C 
ATOM     18  C10 UNL     1      18.595  15.576   0.399  0.00  0.00    +0.000 C 
ATOM     19  H10 UNL     1      21.537  17.187   0.461  0.00  0.00    +0.000 HD
ENDBRANCH   1  11
TORSDOF 2
ENDMDL
MODEL 5
REMARK VINA RESULT:    -4.948      1.818      2.391
REMARK INTER + INTRA:          -5.792
REMARK INTER:                  -5.420
REMARK INTRA:                  -0.372
REMARK UNBOUND:                -0.265
REMARK  Name = /home/anacleto/Desktop/manuscript_Mpro/naturecomm/supplementary_file_S2/6-chemical-library/molecular_docking/3D_ligand_structure/586.pdb
REMARK  2 active torsions:
REMARK  status: ('A' for Active; 'I' for Inactive)
REMARK    1  A    between atoms: N1_5  and  C5_9
REMARK    2  A    between atoms: C5_9  and  C6_10
REMARK                            x       y       z     vdW  Elec       q    Type
REMARK                         _______ _______ _______ _____ _____    ______ ____
ROOT
ATOM      1  C5  UNL     1      16.128  13.875  -5.304  0.00  0.00    +0.000 C 
ENDROOT
BRANCH   1   6
ATOM      2  O1  UNL     1      12.945  10.066  -7.583  0.00  0.00    +0.000 OA
ATOM      3  C1  UNL     1      13.658  10.922  -7.073  0.00  0.00    +0.000 A 
ATOM      4  C2  UNL     1      13.245  11.622  -5.847  0.00  0.00    +0.000 A 
ATOM      5  C3  UNL     1      14.065  12.531  -5.317  0.00  0.00    +0.000 A 
ATOM      6  N1  UNL     1      15.289  12.825  -5.883  0.00  0.00    +0.000 N 
ATOM      7  C4  UNL     1      15.715  12.226  -7.060  0.00  0.00    +0.000 A 
ATOM      8  O2  UNL     1      16.782  12.483  -7.614  0.00  0.00    +0.000 OA
ATOM      9  N2  UNL     1      14.867  11.288  -7.588  0.00  0.00    +0.000 N 
ATOM     10  H3  UNL     1      15.163  10.838  -8.439  0.00  0.00    +0.000 HD
ENDBRANCH   1   6
BRANCH   1  11
ATOM     11  C6  UNL     1      17.057  13.329  -4.208  0.00  0.00    +0.000 C 
ATOM     12  O3  UNL     1      17.947  12.513  -4.461  0.00  0.00    +0.000 OA
ATOM     13  N3  UNL     1      16.892  13.848  -2.930  0.00  0.00    +0.000 N 
ATOM     14  C7  UNL     1      17.697  13.303  -1.833  0.00  0.00    +0.000 C 
ATOM     15  C8  UNL     1      16.956  13.364  -0.484  0.00  0.00    +0.000 C 
ATOM     16  N4  UNL     1      16.462  14.697  -0.099  0.00  0.00    +0.000 NA
ATOM     17  C9  UNL     1      16.290  15.592  -1.253  0.00  0.00    +0.000 C 
ATOM     18  C10 UNL     1      15.912  14.874  -2.561  0.00  0.00    +0.000 C 
ATOM     19  H10 UNL     1      17.106  15.128   0.563  0.00  0.00    +0.000 HD
ENDBRANCH   1  11
TORSDOF 2
ENDMDL
MODEL 6
REMARK VINA RESULT:    -4.878      3.591      7.127
REMARK INTER + INTRA:          -5.713
REMARK INTER:                  -5.306
REMARK INTRA:                  -0.408
REMARK UNBOUND:                -0.265
REMARK  Name = /home/anacleto/Desktop/manuscript_Mpro/naturecomm/supplementary_file_S2/6-chemical-library/molecular_docking/3D_ligand_structure/586.pdb
REMARK  2 active torsions:
REMARK  status: ('A' for Active; 'I' for Inactive)
REMARK    1  A    between atoms: N1_5  and  C5_9
REMARK    2  A    between atoms: C5_9  and  C6_10
REMARK                            x       y       z     vdW  Elec       q    Type
REMARK                         _______ _______ _______ _____ _____    ______ ____
ROOT
ATOM      1  C5  UNL     1      16.828  13.515  -0.631  0.00  0.00    +0.000 C 
ENDROOT
BRANCH   1   6
ATOM      2  O1  UNL     1      21.230  16.408   0.812  0.00  0.00    +0.000 OA
ATOM      3  C1  UNL     1      20.242  15.760   0.486  0.00  0.00    +0.000 A 
ATOM      4  C2  UNL     1      20.375  14.411  -0.085  0.00  0.00    +0.000 A 
ATOM      5  C3  UNL     1      19.269  13.735  -0.405  0.00  0.00    +0.000 A 
ATOM      6  N1  UNL     1      18.010  14.265  -0.207  0.00  0.00    +0.000 N 
ATOM      7  C4  UNL     1      17.824  15.547   0.292  0.00  0.00    +0.000 A 
ATOM      8  O2  UNL     1      16.722  16.068   0.454  0.00  0.00    +0.000 OA
ATOM      9  N2  UNL     1      18.967  16.225   0.625  0.00  0.00    +0.000 N 
ATOM     10  H3  UNL     1      18.851  17.154   0.995  0.00  0.00    +0.000 HD
ENDBRANCH   1   6
BRANCH   1  11
ATOM     11  C6  UNL     1      16.632  13.564  -2.155  0.00  0.00    +0.000 C 
ATOM     12  O3  UNL     1      16.296  14.601  -2.731  0.00  0.00    +0.000 OA
ATOM     13  N3  UNL     1      16.916  12.402  -2.862  0.00  0.00    +0.000 N 
ATOM     14  C7  UNL     1      16.669  12.371  -4.306  0.00  0.00    +0.000 C 
ATOM     15  C8  UNL     1      16.290  10.963  -4.799  0.00  0.00    +0.000 C 
ATOM     16  N4  UNL     1      17.248   9.898  -4.454  0.00  0.00    +0.000 NA
ATOM     17  C9  UNL     1      18.084  10.243  -3.295  0.00  0.00    +0.000 C 
ATOM     18  C10 UNL     1      17.393  11.151  -2.263  0.00  0.00    +0.000 C 
ATOM     19  H10 UNL     1      17.850   9.702  -5.253  0.00  0.00    +0.000 HD
ENDBRANCH   1  11
TORSDOF 2
ENDMDL
MODEL 7
REMARK VINA RESULT:    -4.877      2.487      6.098
REMARK INTER + INTRA:          -5.713
REMARK INTER:                  -5.490
REMARK INTRA:                  -0.223
REMARK UNBOUND:                -0.265
REMARK  Name = /home/anacleto/Desktop/manuscript_Mpro/naturecomm/supplementary_file_S2/6-chemical-library/molecular_docking/3D_ligand_structure/586.pdb
REMARK  2 active torsions:
REMARK  status: ('A' for Active; 'I' for Inactive)
REMARK    1  A    between atoms: N1_5  and  C5_9
REMARK    2  A    between atoms: C5_9  and  C6_10
REMARK                            x       y       z     vdW  Elec       q    Type
REMARK                         _______ _______ _______ _____ _____    ______ ____
ROOT
ATOM      1  C5  UNL     1      15.733  11.835  -2.080  0.00  0.00    +0.000 C 
ENDROOT
BRANCH   1   6
ATOM      2  O1  UNL     1      20.095  14.065   0.336  0.00  0.00    +0.000 OA
ATOM      3  C1  UNL     1      19.115  13.564  -0.204  0.00  0.00    +0.000 A 
ATOM      4  C2  UNL     1      17.837  14.288  -0.281  0.00  0.00    +0.000 A 
ATOM      5  C3  UNL     1      16.805  13.710  -0.898  0.00  0.00    +0.000 A 
ATOM      6  N1  UNL     1      16.908  12.458  -1.470  0.00  0.00    +0.000 N 
ATOM      7  C4  UNL     1      18.075  11.711  -1.395  0.00  0.00    +0.000 A 
ATOM      8  O2  UNL     1      18.199  10.581  -1.863  0.00  0.00    +0.000 OA
ATOM      9  N2  UNL     1      19.130  12.322  -0.767  0.00  0.00    +0.000 N 
ATOM     10  H3  UNL     1      19.987  11.797  -0.709  0.00  0.00    +0.000 HD
ENDBRANCH   1   6
BRANCH   1  11
ATOM     11  C6  UNL     1      15.181  12.670  -3.247  0.00  0.00    +0.000 C 
ATOM     12  O3  UNL     1      14.506  13.684  -3.055  0.00  0.00    +0.000 OA
ATOM     13  N3  UNL     1      15.533  12.266  -4.529  0.00  0.00    +0.000 N 
ATOM     14  C7  UNL     1      14.968  12.978  -5.678  0.00  0.00    +0.000 C 
ATOM     15  C8  UNL     1      14.794  12.059  -6.902  0.00  0.00    +0.000 C 
ATOM     16  N4  UNL     1      16.010  11.347  -7.330  0.00  0.00    +0.000 NA
ATOM     17  C9  UNL     1      17.001  11.218  -6.251  0.00  0.00    +0.000 C 
ATOM     18  C10 UNL     1      16.393  11.119  -4.841  0.00  0.00    +0.000 C 
ATOM     19  H10 UNL     1      16.437  11.833  -8.118  0.00  0.00    +0.000 HD
ENDBRANCH   1  11
TORSDOF 2
ENDMDL
MODEL 8
REMARK VINA RESULT:    -4.823     15.692     16.931
REMARK INTER + INTRA:          -5.652
REMARK INTER:                  -5.320
REMARK INTRA:                  -0.332
REMARK UNBOUND:                -0.265
REMARK  Name = /home/anacleto/Desktop/manuscript_Mpro/naturecomm/supplementary_file_S2/6-chemical-library/molecular_docking/3D_ligand_structure/586.pdb
REMARK  2 active torsions:
REMARK  status: ('A' for Active; 'I' for Inactive)
REMARK    1  A    between atoms: N1_5  and  C5_9
REMARK    2  A    between atoms: C5_9  and  C6_10
REMARK                            x       y       z     vdW  Elec       q    Type
REMARK                         _______ _______ _______ _____ _____    ______ ____
ROOT
ATOM      1  C5  UNL     1      17.931   4.030  10.574  0.00  0.00    +0.000 C 
ENDROOT
BRANCH   1   6
ATOM      2  O1  UNL     1      14.713   0.722   7.652  0.00  0.00    +0.000 OA
ATOM      3  C1  UNL     1      15.437   1.463   8.307  0.00  0.00    +0.000 A 
ATOM      4  C2  UNL     1      16.109   2.613   7.683  0.00  0.00    +0.000 A 
ATOM      5  C3  UNL     1      16.871   3.404   8.443  0.00  0.00    +0.000 A 
ATOM      6  N1  UNL     1      17.036   3.175   9.793  0.00  0.00    +0.000 N 
ATOM      7  C4  UNL     1      16.459   2.085  10.429  0.00  0.00    +0.000 A 
ATOM      8  O2  UNL     1      16.607   1.827  11.622  0.00  0.00    +0.000 OA
ATOM      9  N2  UNL     1      15.672   1.287   9.640  0.00  0.00    +0.000 N 
ATOM     10  H3  UNL     1      15.239   0.495  10.085  0.00  0.00    +0.000 HD
ENDBRANCH   1   6
BRANCH   1  11
ATOM     11  C6  UNL     1      19.361   4.034  10.009  0.00  0.00    +0.000 C 
ATOM     12  O3  UNL     1      19.964   2.985   9.768  0.00  0.00    +0.000 OA
ATOM     13  N3  UNL     1      19.918   5.273   9.718  0.00  0.00    +0.000 N 
ATOM     14  C7  UNL     1      21.306   5.337   9.255  0.00  0.00    +0.000 C 
ATOM     15  C8  UNL     1      22.002   6.640   9.687  0.00  0.00    +0.000 C 
ATOM     16  N4  UNL     1      21.310   7.881   9.299  0.00  0.00    +0.000 NA
ATOM     17  C9  UNL     1      19.876   7.675   9.053  0.00  0.00    +0.000 C 
ATOM     18  C10 UNL     1      19.240   6.561   9.903  0.00  0.00    +0.000 C 
ATOM     19  H10 UNL     1      21.740   8.269   8.459  0.00  0.00    +0.000 HD
ENDBRANCH   1  11
TORSDOF 2
ENDMDL
MODEL 9
REMARK VINA RESULT:    -4.768     15.845     17.726
REMARK INTER + INTRA:          -5.590
REMARK INTER:                  -5.325
REMARK INTRA:                  -0.265
REMARK UNBOUND:                -0.265
REMARK  Name = /home/anacleto/Desktop/manuscript_Mpro/naturecomm/supplementary_file_S2/6-chemical-library/molecular_docking/3D_ligand_structure/586.pdb
REMARK  2 active torsions:
REMARK  status: ('A' for Active; 'I' for Inactive)
REMARK    1  A    between atoms: N1_5  and  C5_9
REMARK    2  A    between atoms: C5_9  and  C6_10
REMARK                            x       y       z     vdW  Elec       q    Type
REMARK                         _______ _______ _______ _____ _____    ______ ____
ROOT
ATOM      1  C5  UNL     1      16.786   2.418  10.732  0.00  0.00    +0.000 C 
ENDROOT
BRANCH   1   6
ATOM      2  O1  UNL     1      19.587   6.814   9.100  0.00  0.00    +0.000 OA
ATOM      3  C1  UNL     1      18.961   5.826   9.466  0.00  0.00    +0.000 A 
ATOM      4  C2  UNL     1      18.872   5.468  10.890  0.00  0.00    +0.000 A 
ATOM      5  C3  UNL     1      18.160   4.395  11.242  0.00  0.00    +0.000 A 
ATOM      6  N1  UNL     1      17.502   3.621  10.309  0.00  0.00    +0.000 N 
ATOM      7  C4  UNL     1      17.580   3.887   8.948  0.00  0.00    +0.000 A 
ATOM      8  O2  UNL     1      17.036   3.204   8.082  0.00  0.00    +0.000 OA
ATOM      9  N2  UNL     1      18.307   4.997   8.603  0.00  0.00    +0.000 N 
ATOM     10  H3  UNL     1      18.370   5.209   7.621  0.00  0.00    +0.000 HD
ENDBRANCH   1   6
BRANCH   1  11
ATOM     11  C6  UNL     1      15.261   2.600  10.659  0.00  0.00    +0.000 C 
ATOM     12  O3  UNL     1      14.700   3.571  11.173  0.00  0.00    +0.000 OA
ATOM     13  N3  UNL     1      14.550   1.656   9.929  0.00  0.00    +0.000 N 
ATOM     14  C7  UNL     1      13.088   1.738   9.896  0.00  0.00    +0.000 C 
ATOM     15  C8  UNL     1      12.432   0.351   9.755  0.00  0.00    +0.000 C 
ATOM     16  N4  UNL     1      12.893  -0.449   8.607  0.00  0.00    +0.000 NA
ATOM     17  C9  UNL     1      14.220  -0.036   8.128  0.00  0.00    +0.000 C 
ATOM     18  C10 UNL     1      15.148   0.516   9.225  0.00  0.00    +0.000 C 
ATOM     19  H10 UNL     1      12.224  -0.374   7.842  0.00  0.00    +0.000 HD
ENDBRANCH   1  11
TORSDOF 2
ENDMDL
