MODEL 1
REMARK VINA RESULT:    -4.756      0.000      0.000
REMARK INTER + INTRA:          -5.636
REMARK INTER:                  -5.300
REMARK INTRA:                  -0.336
REMARK UNBOUND:                -0.324
REMARK  Name = /home/anacleto/Desktop/manuscript_Mpro/naturecomm/supplementary_file_S2/6-chemical-library/molecular_docking/3D_ligand_structure/639.pdb
REMARK  2 active torsions:
REMARK  status: ('A' for Active; 'I' for Inactive)
REMARK    1  A    between atoms: C4_5  and  S2_6
REMARK    2  A    between atoms: S2_6  and  N1_9
REMARK                            x       y       z     vdW  Elec       q    Type
REMARK                         _______ _______ _______ _____ _____    ______ ____
ROOT
ATOM      1  S2  UNL     1      16.223  12.389  -2.695  0.00  0.00    +0.000 S 
ATOM      2  O1  UNL     1      15.736  11.448  -1.710  0.00  0.00    +0.000 OA
ATOM      3  O2  UNL     1      17.620  12.765  -2.752  0.00  0.00    +0.000 OA
ENDROOT
BRANCH   1   4
ATOM      4  N1  UNL     1      15.789  11.836  -4.247  0.00  0.00    +0.000 NA
ATOM      5  C5  UNL     1      14.900  10.656  -4.314  0.00  0.00    +0.000 C 
ATOM      6  C6  UNL     1      13.597  11.065  -4.980  0.00  0.00    +0.000 C 
ATOM      7  C7  UNL     1      16.795  11.974  -5.321  0.00  0.00    +0.000 C 
ATOM      8  C8  UNL     1      16.225  11.718  -6.719  0.00  0.00    +0.000 C 
ATOM      9  C9  UNL     1      14.820  12.269  -6.929  0.00  0.00    +0.000 C 
ATOM     10  C10 UNL     1      13.784  11.264  -6.465  0.00  0.00    +0.000 C 
ATOM     11  O3  UNL     1      13.108  10.629  -7.277  0.00  0.00    +0.000 OA
ENDBRANCH   1   4
BRANCH   1  16
ATOM     12  S1  UNL     1      16.054  14.984  -1.231  0.00  0.00    +0.000 S 
ATOM     13  C1  UNL     1      14.810  16.138  -1.450  0.00  0.00    +0.000 A 
ATOM     14  C2  UNL     1      13.891  15.733  -2.392  0.00  0.00    +0.000 A 
ATOM     15  C3  UNL     1      14.216  14.458  -2.936  0.00  0.00    +0.000 A 
ATOM     16  C4  UNL     1      15.372  13.928  -2.392  0.00  0.00    +0.000 A 
ENDBRANCH   1  16
TORSDOF 2
ENDMDL
MODEL 2
REMARK VINA RESULT:    -4.678      1.992      2.598
REMARK INTER + INTRA:          -5.550
REMARK INTER:                  -5.334
REMARK INTRA:                  -0.215
REMARK UNBOUND:                -0.324
REMARK  Name = /home/anacleto/Desktop/manuscript_Mpro/naturecomm/supplementary_file_S2/6-chemical-library/molecular_docking/3D_ligand_structure/639.pdb
REMARK  2 active torsions:
REMARK  status: ('A' for Active; 'I' for Inactive)
REMARK    1  A    between atoms: C4_5  and  S2_6
REMARK    2  A    between atoms: S2_6  and  N1_9
REMARK                            x       y       z     vdW  Elec       q    Type
REMARK                         _______ _______ _______ _____ _____    ______ ____
ROOT
ATOM      1  S2  UNL     1      15.359  12.739  -2.950  0.00  0.00    +0.000 S 
ATOM      2  O1  UNL     1      14.566  13.948  -2.993  0.00  0.00    +0.000 OA
ATOM      3  O2  UNL     1      15.171  11.752  -1.907  0.00  0.00    +0.000 OA
ENDROOT
BRANCH   1   4
ATOM      4  N1  UNL     1      15.210  11.928  -4.441  0.00  0.00    +0.000 NA
ATOM      5  C5  UNL     1      14.313  10.754  -4.479  0.00  0.00    +0.000 C 
ATOM      6  C6  UNL     1      13.173  11.041  -5.442  0.00  0.00    +0.000 C 
ATOM      7  C7  UNL     1      16.405  11.883  -5.309  0.00  0.00    +0.000 C 
ATOM      8  C8  UNL     1      16.103  11.390  -6.727  0.00  0.00    +0.000 C 
ATOM      9  C9  UNL     1      14.782  11.895  -7.294  0.00  0.00    +0.000 C 
ATOM     10  C10 UNL     1      13.645  10.983  -6.874  0.00  0.00    +0.000 C 
ATOM     11  O3  UNL     1      13.116  10.218  -7.684  0.00  0.00    +0.000 OA
ENDBRANCH   1   4
BRANCH   1  16
ATOM     12  S1  UNL     1      18.117  12.169  -1.965  0.00  0.00    +0.000 S 
ATOM     13  C1  UNL     1      19.442  13.238  -2.129  0.00  0.00    +0.000 A 
ATOM     14  C2  UNL     1      19.091  14.400  -2.779  0.00  0.00    +0.000 A 
ATOM     15  C3  UNL     1      17.714  14.407  -3.144  0.00  0.00    +0.000 A 
ATOM     16  C4  UNL     1      17.057  13.252  -2.759  0.00  0.00    +0.000 A 
ENDBRANCH   1  16
TORSDOF 2
ENDMDL
MODEL 3
REMARK VINA RESULT:    -4.649      2.753      5.278
REMARK INTER + INTRA:          -5.517
REMARK INTER:                  -5.171
REMARK INTRA:                  -0.345
REMARK UNBOUND:                -0.324
REMARK  Name = /home/anacleto/Desktop/manuscript_Mpro/naturecomm/supplementary_file_S2/6-chemical-library/molecular_docking/3D_ligand_structure/639.pdb
REMARK  2 active torsions:
REMARK  status: ('A' for Active; 'I' for Inactive)
REMARK    1  A    between atoms: C4_5  and  S2_6
REMARK    2  A    between atoms: S2_6  and  N1_9
REMARK                            x       y       z     vdW  Elec       q    Type
REMARK                         _______ _______ _______ _____ _____    ______ ____
ROOT
ATOM      1  S2  UNL     1      17.354  11.551  -5.369  0.00  0.00    +0.000 S 
ATOM      2  O1  UNL     1      17.789  12.685  -6.154  0.00  0.00    +0.000 OA
ATOM      3  O2  UNL     1      17.901  10.228  -5.588  0.00  0.00    +0.000 OA
ENDROOT
BRANCH   1   4
ATOM      4  N1  UNL     1      17.563  11.912  -3.717  0.00  0.00    +0.000 NA
ATOM      5  C5  UNL     1      17.870  13.317  -3.371  0.00  0.00    +0.000 C 
ATOM      6  C6  UNL     1      16.739  13.867  -2.518  0.00  0.00    +0.000 C 
ATOM      7  C7  UNL     1      18.172  10.868  -2.868  0.00  0.00    +0.000 C 
ATOM      8  C8  UNL     1      18.061  11.167  -1.370  0.00  0.00    +0.000 C 
ATOM      9  C9  UNL     1      16.734  11.792  -0.957  0.00  0.00    +0.000 C 
ATOM     10  C10 UNL     1      16.786  13.298  -1.121  0.00  0.00    +0.000 C 
ATOM     11  O3  UNL     1      16.861  14.040  -0.139  0.00  0.00    +0.000 OA
ENDBRANCH   1   4
BRANCH   1  16
ATOM     12  S1  UNL     1      14.601  11.044  -4.336  0.00  0.00    +0.000 S 
ATOM     13  C1  UNL     1      13.200  10.972  -5.315  0.00  0.00    +0.000 A 
ATOM     14  C2  UNL     1      13.487  11.184  -6.645  0.00  0.00    +0.000 A 
ATOM     15  C3  UNL     1      14.878  11.406  -6.857  0.00  0.00    +0.000 A 
ATOM     16  C4  UNL     1      15.609  11.355  -5.683  0.00  0.00    +0.000 A 
ENDBRANCH   1  16
TORSDOF 2
ENDMDL
MODEL 4
REMARK VINA RESULT:    -4.618      2.385      5.558
REMARK INTER + INTRA:          -5.482
REMARK INTER:                  -5.153
REMARK INTRA:                  -0.329
REMARK UNBOUND:                -0.324
REMARK  Name = /home/anacleto/Desktop/manuscript_Mpro/naturecomm/supplementary_file_S2/6-chemical-library/molecular_docking/3D_ligand_structure/639.pdb
REMARK  2 active torsions:
REMARK  status: ('A' for Active; 'I' for Inactive)
REMARK    1  A    between atoms: C4_5  and  S2_6
REMARK    2  A    between atoms: S2_6  and  N1_9
REMARK                            x       y       z     vdW  Elec       q    Type
REMARK                         _______ _______ _______ _____ _____    ______ ____
ROOT
ATOM      1  S2  UNL     1      14.610  11.788  -4.882  0.00  0.00    +0.000 S 
ATOM      2  O1  UNL     1      13.950  10.579  -4.441  0.00  0.00    +0.000 OA
ATOM      3  O2  UNL     1      14.012  12.652  -5.880  0.00  0.00    +0.000 OA
ENDROOT
BRANCH   1   4
ATOM      4  N1  UNL     1      14.955  12.756  -3.523  0.00  0.00    +0.000 NA
ATOM      5  C5  UNL     1      15.153  12.056  -2.235  0.00  0.00    +0.000 C 
ATOM      6  C6  UNL     1      16.576  12.302  -1.761  0.00  0.00    +0.000 C 
ATOM      7  C7  UNL     1      14.326  14.092  -3.467  0.00  0.00    +0.000 C 
ATOM      8  C8  UNL     1      14.908  14.987  -2.369  0.00  0.00    +0.000 C 
ATOM      9  C9  UNL     1      16.416  14.858  -2.195  0.00  0.00    +0.000 C 
ATOM     10  C10 UNL     1      16.743  13.714  -1.255  0.00  0.00    +0.000 C 
ATOM     11  O3  UNL     1      17.141  13.930  -0.107  0.00  0.00    +0.000 OA
ENDBRANCH   1   4
BRANCH   1  16
ATOM     12  S1  UNL     1      16.422  11.712  -7.252  0.00  0.00    +0.000 S 
ATOM     13  C1  UNL     1      17.959  10.959  -7.270  0.00  0.00    +0.000 A 
ATOM     14  C2  UNL     1      18.271  10.394  -6.054  0.00  0.00    +0.000 A 
ATOM     15  C3  UNL     1      17.230  10.583  -5.099  0.00  0.00    +0.000 A 
ATOM     16  C4  UNL     1      16.156  11.284  -5.617  0.00  0.00    +0.000 A 
ENDBRANCH   1  16
TORSDOF 2
ENDMDL
MODEL 5
REMARK VINA RESULT:    -4.576      2.153      5.611
REMARK INTER + INTRA:          -5.436
REMARK INTER:                  -5.153
REMARK INTRA:                  -0.282
REMARK UNBOUND:                -0.324
REMARK  Name = /home/anacleto/Desktop/manuscript_Mpro/naturecomm/supplementary_file_S2/6-chemical-library/molecular_docking/3D_ligand_structure/639.pdb
REMARK  2 active torsions:
REMARK  status: ('A' for Active; 'I' for Inactive)
REMARK    1  A    between atoms: C4_5  and  S2_6
REMARK    2  A    between atoms: S2_6  and  N1_9
REMARK                            x       y       z     vdW  Elec       q    Type
REMARK                         _______ _______ _______ _____ _____    ______ ____
ROOT
ATOM      1  S2  UNL     1      16.685  12.774  -3.997  0.00  0.00    +0.000 S 
ATOM      2  O1  UNL     1      17.223  13.683  -4.984  0.00  0.00    +0.000 OA
ATOM      3  O2  UNL     1      17.485  11.699  -3.447  0.00  0.00    +0.000 OA
ENDROOT
BRANCH   1   4
ATOM      4  N1  UNL     1      16.089  13.679  -2.681  0.00  0.00    +0.000 NA
ATOM      5  C5  UNL     1      16.386  13.166  -1.327  0.00  0.00    +0.000 C 
ATOM      6  C6  UNL     1      17.242  14.188  -0.597  0.00  0.00    +0.000 C 
ATOM      7  C7  UNL     1      14.795  14.368  -2.866  0.00  0.00    +0.000 C 
ATOM      8  C8  UNL     1      14.481  15.371  -1.751  0.00  0.00    +0.000 C 
ATOM      9  C9  UNL     1      15.691  16.160  -1.265  0.00  0.00    +0.000 C 
ATOM     10  C10 UNL     1      16.425  15.388  -0.186  0.00  0.00    +0.000 C 
ATOM     11  O3  UNL     1      16.361  15.735   0.995  0.00  0.00    +0.000 OA
ENDBRANCH   1   4
BRANCH   1  16
ATOM     12  S1  UNL     1      14.898  12.417  -6.360  0.00  0.00    +0.000 S 
ATOM     13  C1  UNL     1      13.608  11.295  -6.435  0.00  0.00    +0.000 A 
ATOM     14  C2  UNL     1      13.491  10.565  -5.274  0.00  0.00    +0.000 A 
ATOM     15  C3  UNL     1      14.475  10.936  -4.313  0.00  0.00    +0.000 A 
ATOM     16  C4  UNL     1      15.311  11.939  -4.770  0.00  0.00    +0.000 A 
ENDBRANCH   1  16
TORSDOF 2
ENDMDL
MODEL 6
REMARK VINA RESULT:    -4.550     16.782     18.527
REMARK INTER + INTRA:          -5.406
REMARK INTER:                  -5.081
REMARK INTRA:                  -0.325
REMARK UNBOUND:                -0.324
REMARK  Name = /home/anacleto/Desktop/manuscript_Mpro/naturecomm/supplementary_file_S2/6-chemical-library/molecular_docking/3D_ligand_structure/639.pdb
REMARK  2 active torsions:
REMARK  status: ('A' for Active; 'I' for Inactive)
REMARK    1  A    between atoms: C4_5  and  S2_6
REMARK    2  A    between atoms: S2_6  and  N1_9
REMARK                            x       y       z     vdW  Elec       q    Type
REMARK                         _______ _______ _______ _____ _____    ______ ____
ROOT
ATOM      1  S2  UNL     1      21.094   6.349  12.033  0.00  0.00    +0.000 S 
ATOM      2  O1  UNL     1      22.198   7.271  11.891  0.00  0.00    +0.000 OA
ATOM      3  O2  UNL     1      21.315   4.947  12.325  0.00  0.00    +0.000 OA
ENDROOT
BRANCH   1   4
ATOM      4  N1  UNL     1      20.025   6.946  13.218  0.00  0.00    +0.000 NA
ATOM      5  C5  UNL     1      19.058   7.978  12.789  0.00  0.00    +0.000 C 
ATOM      6  C6  UNL     1      17.651   7.427  12.957  0.00  0.00    +0.000 C 
ATOM      7  C7  UNL     1      20.536   7.043  14.601  0.00  0.00    +0.000 C 
ATOM      8  C8  UNL     1      19.436   7.316  15.633  0.00  0.00    +0.000 C 
ATOM      9  C9  UNL     1      18.132   6.575  15.363  0.00  0.00    +0.000 C 
ATOM     10  C10 UNL     1      17.259   7.372  14.413  0.00  0.00    +0.000 C 
ATOM     11  O3  UNL     1      16.252   7.957  14.819  0.00  0.00    +0.000 OA
ENDBRANCH   1   4
BRANCH   1  16
ATOM     12  S1  UNL     1      19.263   4.972  10.120  0.00  0.00    +0.000 S 
ATOM     13  C1  UNL     1      18.812   5.598   8.593  0.00  0.00    +0.000 A 
ATOM     14  C2  UNL     1      19.390   6.824   8.347  0.00  0.00    +0.000 A 
ATOM     15  C3  UNL     1      20.213   7.249   9.429  0.00  0.00    +0.000 A 
ATOM     16  C4  UNL     1      20.240   6.333  10.466  0.00  0.00    +0.000 A 
ENDBRANCH   1  16
TORSDOF 2
ENDMDL
MODEL 7
REMARK VINA RESULT:    -4.538      2.076      5.137
REMARK INTER + INTRA:          -5.393
REMARK INTER:                  -5.136
REMARK INTRA:                  -0.257
REMARK UNBOUND:                -0.324
REMARK  Name = /home/anacleto/Desktop/manuscript_Mpro/naturecomm/supplementary_file_S2/6-chemical-library/molecular_docking/3D_ligand_structure/639.pdb
REMARK  2 active torsions:
REMARK  status: ('A' for Active; 'I' for Inactive)
REMARK    1  A    between atoms: C4_5  and  S2_6
REMARK    2  A    between atoms: S2_6  and  N1_9
REMARK                            x       y       z     vdW  Elec       q    Type
REMARK                         _______ _______ _______ _____ _____    ______ ____
ROOT
ATOM      1  S2  UNL     1      16.347  11.747  -3.650  0.00  0.00    +0.000 S 
ATOM      2  O1  UNL     1      17.717  11.550  -4.067  0.00  0.00    +0.000 OA
ATOM      3  O2  UNL     1      15.736  10.903  -2.644  0.00  0.00    +0.000 OA
ENDROOT
BRANCH   1   4
ATOM      4  N1  UNL     1      16.153  13.361  -3.136  0.00  0.00    +0.000 NA
ATOM      5  C5  UNL     1      15.121  14.164  -3.826  0.00  0.00    +0.000 C 
ATOM      6  C6  UNL     1      14.060  14.566  -2.815  0.00  0.00    +0.000 C 
ATOM      7  C7  UNL     1      17.364  14.076  -2.683  0.00  0.00    +0.000 C 
ATOM      8  C8  UNL     1      17.054  15.403  -1.983  0.00  0.00    +0.000 C 
ATOM      9  C9  UNL     1      15.825  15.360  -1.083  0.00  0.00    +0.000 C 
ATOM     10  C10 UNL     1      14.572  15.642  -1.889  0.00  0.00    +0.000 C 
ATOM     11  O3  UNL     1      13.982  16.720  -1.786  0.00  0.00    +0.000 OA
ENDBRANCH   1   4
BRANCH   1  16
ATOM     12  S1  UNL     1      13.791  10.797  -4.863  0.00  0.00    +0.000 S 
ATOM     13  C1  UNL     1      13.436  10.851  -6.535  0.00  0.00    +0.000 A 
ATOM     14  C2  UNL     1      14.470  11.395  -7.265  0.00  0.00    +0.000 A 
ATOM     15  C3  UNL     1      15.565  11.768  -6.435  0.00  0.00    +0.000 A 
ATOM     16  C4  UNL     1      15.334  11.496  -5.098  0.00  0.00    +0.000 A 
ENDBRANCH   1  16
TORSDOF 2
ENDMDL
MODEL 8
REMARK VINA RESULT:    -4.523      2.412      2.731
REMARK INTER + INTRA:          -5.376
REMARK INTER:                  -5.114
REMARK INTRA:                  -0.262
REMARK UNBOUND:                -0.324
REMARK  Name = /home/anacleto/Desktop/manuscript_Mpro/naturecomm/supplementary_file_S2/6-chemical-library/molecular_docking/3D_ligand_structure/639.pdb
REMARK  2 active torsions:
REMARK  status: ('A' for Active; 'I' for Inactive)
REMARK    1  A    between atoms: C4_5  and  S2_6
REMARK    2  A    between atoms: S2_6  and  N1_9
REMARK                            x       y       z     vdW  Elec       q    Type
REMARK                         _______ _______ _______ _____ _____    ______ ____
ROOT
ATOM      1  S2  UNL     1      17.074  11.775  -1.548  0.00  0.00    +0.000 S 
ATOM      2  O1  UNL     1      16.012  11.254  -0.715  0.00  0.00    +0.000 OA
ATOM      3  O2  UNL     1      18.289  11.022  -1.780  0.00  0.00    +0.000 OA
ENDROOT
BRANCH   1   4
ATOM      4  N1  UNL     1      16.431  12.175  -3.075  0.00  0.00    +0.000 NA
ATOM      5  C5  UNL     1      15.974  11.053  -3.923  0.00  0.00    +0.000 C 
ATOM      6  C6  UNL     1      14.479  11.198  -4.156  0.00  0.00    +0.000 C 
ATOM      7  C7  UNL     1      17.013  13.342  -3.769  0.00  0.00    +0.000 C 
ATOM      8  C8  UNL     1      16.196  13.791  -4.984  0.00  0.00    +0.000 C 
ATOM      9  C9  UNL     1      14.688  13.709  -4.785  0.00  0.00    +0.000 C 
ATOM     10  C10 UNL     1      14.186  12.319  -5.123  0.00  0.00    +0.000 C 
ATOM     11  O3  UNL     1      13.549  12.109  -6.159  0.00  0.00    +0.000 OA
ENDBRANCH   1   4
BRANCH   1  16
ATOM     12  S1  UNL     1      19.324  13.451  -0.532  0.00  0.00    +0.000 S 
ATOM     13  C1  UNL     1      19.133  14.984   0.203  0.00  0.00    +0.000 A 
ATOM     14  C2  UNL     1      17.811  15.364   0.267  0.00  0.00    +0.000 A 
ATOM     15  C3  UNL     1      16.949  14.379  -0.295  0.00  0.00    +0.000 A 
ATOM     16  C4  UNL     1      17.639  13.278  -0.768  0.00  0.00    +0.000 A 
ENDBRANCH   1  16
TORSDOF 2
ENDMDL
MODEL 9
REMARK VINA RESULT:    -4.433     15.980     17.405
REMARK INTER + INTRA:          -5.276
REMARK INTER:                  -4.951
REMARK INTRA:                  -0.324
REMARK UNBOUND:                -0.324
REMARK  Name = /home/anacleto/Desktop/manuscript_Mpro/naturecomm/supplementary_file_S2/6-chemical-library/molecular_docking/3D_ligand_structure/639.pdb
REMARK  2 active torsions:
REMARK  status: ('A' for Active; 'I' for Inactive)
REMARK    1  A    between atoms: C4_5  and  S2_6
REMARK    2  A    between atoms: S2_6  and  N1_9
REMARK                            x       y       z     vdW  Elec       q    Type
REMARK                         _______ _______ _______ _____ _____    ______ ____
ROOT
ATOM      1  S2  UNL     1      17.370   3.538  11.510  0.00  0.00    +0.000 S 
ATOM      2  O1  UNL     1      18.059   2.376  12.026  0.00  0.00    +0.000 OA
ATOM      3  O2  UNL     1      16.265   4.140  12.228  0.00  0.00    +0.000 OA
ENDROOT
BRANCH   1   4
ATOM      4  N1  UNL     1      18.509   4.771  11.217  0.00  0.00    +0.000 NA
ATOM      5  C5  UNL     1      19.884   4.345  10.880  0.00  0.00    +0.000 C 
ATOM      6  C6  UNL     1      20.211   4.823   9.475  0.00  0.00    +0.000 C 
ATOM      7  C7  UNL     1      18.368   6.020  11.993  0.00  0.00    +0.000 C 
ATOM      8  C8  UNL     1      19.248   7.159  11.469  0.00  0.00    +0.000 C 
ATOM      9  C9  UNL     1      19.341   7.224   9.949  0.00  0.00    +0.000 C 
ATOM     10  C10 UNL     1      20.446   6.314   9.449  0.00  0.00    +0.000 C 
ATOM     11  O3  UNL     1      21.507   6.779   9.027  0.00  0.00    +0.000 OA
ENDBRANCH   1   4
BRANCH   1  16
ATOM     12  S1  UNL     1      15.282   2.036   9.997  0.00  0.00    +0.000 S 
ATOM     13  C1  UNL     1      15.170   1.990   8.290  0.00  0.00    +0.000 A 
ATOM     14  C2  UNL     1      16.158   2.738   7.688  0.00  0.00    +0.000 A 
ATOM     15  C3  UNL     1      17.015   3.352   8.645  0.00  0.00    +0.000 A 
ATOM     16  C4  UNL     1      16.656   3.053   9.948  0.00  0.00    +0.000 A 
ENDBRANCH   1  16
TORSDOF 2
ENDMDL
