MODEL 1
REMARK VINA RESULT:    -2.760      0.000      0.000
REMARK INTER + INTRA:          -2.760
REMARK INTER:                  -2.760
REMARK INTRA:                   0.000
REMARK UNBOUND:                 0.000
REMARK  Name = /home/anacleto/Desktop/manuscript_Mpro/naturecomm/supplementary_file_S2/6-chemical-library/molecular_docking/3D_ligand_structure/64.pdb
REMARK  0 active torsions:
REMARK  status: ('A' for Active; 'I' for Inactive)
REMARK                            x       y       z     vdW  Elec       q    Type
REMARK                         _______ _______ _______ _____ _____    ______ ____
ROOT
ATOM      1  C1  UNL     1      13.997  11.325  -6.944  0.00  0.00    +0.000 C 
ATOM      2  C2  UNL     1      12.924  11.248  -5.871  0.00  0.00    +0.000 C 
ATOM      3  O1  UNL     1      13.374  10.447  -4.784  0.00  0.00    +0.000 OA
ATOM      4  C3  UNL     1      14.588  10.954  -4.245  0.00  0.00    +0.000 C 
ATOM      5  O2  UNL     1      15.635  10.964  -5.209  0.00  0.00    +0.000 OA
ATOM      6  C4  UNL     1      15.299  11.793  -6.317  0.00  0.00    +0.000 C 
ENDROOT
TORSDOF 0
ENDMDL
MODEL 2
REMARK VINA RESULT:    -2.709     15.735     16.378
REMARK INTER + INTRA:          -2.709
REMARK INTER:                  -2.709
REMARK INTRA:                   0.000
REMARK UNBOUND:                 0.000
REMARK  Name = /home/anacleto/Desktop/manuscript_Mpro/naturecomm/supplementary_file_S2/6-chemical-library/molecular_docking/3D_ligand_structure/64.pdb
REMARK  0 active torsions:
REMARK  status: ('A' for Active; 'I' for Inactive)
REMARK                            x       y       z     vdW  Elec       q    Type
REMARK                         _______ _______ _______ _____ _____    ______ ____
ROOT
ATOM      1  C1  UNL     1      20.955   5.352   8.464  0.00  0.00    +0.000 C 
ATOM      2  C2  UNL     1      21.654   6.350   9.372  0.00  0.00    +0.000 C 
ATOM      3  O1  UNL     1      21.305   7.679   9.000  0.00  0.00    +0.000 OA
ATOM      4  C3  UNL     1      19.896   7.866   9.039  0.00  0.00    +0.000 C 
ATOM      5  O2  UNL     1      19.219   6.997   8.139  0.00  0.00    +0.000 OA
ATOM      6  C4  UNL     1      19.462   5.634   8.468  0.00  0.00    +0.000 C 
ENDROOT
TORSDOF 0
ENDMDL
MODEL 3
REMARK VINA RESULT:    -2.688      1.182      2.318
REMARK INTER + INTRA:          -2.688
REMARK INTER:                  -2.688
REMARK INTRA:                   0.000
REMARK UNBOUND:                 0.000
REMARK  Name = /home/anacleto/Desktop/manuscript_Mpro/naturecomm/supplementary_file_S2/6-chemical-library/molecular_docking/3D_ligand_structure/64.pdb
REMARK  0 active torsions:
REMARK  status: ('A' for Active; 'I' for Inactive)
REMARK                            x       y       z     vdW  Elec       q    Type
REMARK                         _______ _______ _______ _____ _____    ______ ____
ROOT
ATOM      1  C1  UNL     1      15.664  11.297  -5.669  0.00  0.00    +0.000 C 
ATOM      2  C2  UNL     1      15.000  11.885  -6.903  0.00  0.00    +0.000 C 
ATOM      3  O1  UNL     1      13.854  11.119  -7.256  0.00  0.00    +0.000 OA
ATOM      4  C3  UNL     1      12.933  11.051  -6.175  0.00  0.00    +0.000 C 
ATOM      5  O2  UNL     1      13.503  10.432  -5.029  0.00  0.00    +0.000 OA
ATOM      6  C4  UNL     1      14.632  11.164  -4.562  0.00  0.00    +0.000 C 
ENDROOT
TORSDOF 0
ENDMDL
MODEL 4
REMARK VINA RESULT:    -2.604      1.137      2.027
REMARK INTER + INTRA:          -2.604
REMARK INTER:                  -2.604
REMARK INTRA:                   0.000
REMARK UNBOUND:                 0.000
REMARK  Name = /home/anacleto/Desktop/manuscript_Mpro/naturecomm/supplementary_file_S2/6-chemical-library/molecular_docking/3D_ligand_structure/64.pdb
REMARK  0 active torsions:
REMARK  status: ('A' for Active; 'I' for Inactive)
REMARK                            x       y       z     vdW  Elec       q    Type
REMARK                         _______ _______ _______ _____ _____    ______ ____
ROOT
ATOM      1  C1  UNL     1      15.352  11.817  -6.600  0.00  0.00    +0.000 C 
ATOM      2  C2  UNL     1      15.723  11.142  -5.290  0.00  0.00    +0.000 C 
ATOM      3  O1  UNL     1      14.610  11.146  -4.403  0.00  0.00    +0.000 OA
ATOM      4  C3  UNL     1      13.485  10.509  -4.995  0.00  0.00    +0.000 C 
ATOM      5  O2  UNL     1      13.065  11.167  -6.184  0.00  0.00    +0.000 OA
ATOM      6  C4  UNL     1      14.100  11.163  -7.161  0.00  0.00    +0.000 C 
ENDROOT
TORSDOF 0
ENDMDL
MODEL 5
REMARK VINA RESULT:    -2.521      1.231      2.017
REMARK INTER + INTRA:          -2.521
REMARK INTER:                  -2.521
REMARK INTRA:                   0.000
REMARK UNBOUND:                 0.000
REMARK  Name = /home/anacleto/Desktop/manuscript_Mpro/naturecomm/supplementary_file_S2/6-chemical-library/molecular_docking/3D_ligand_structure/64.pdb
REMARK  0 active torsions:
REMARK  status: ('A' for Active; 'I' for Inactive)
REMARK                            x       y       z     vdW  Elec       q    Type
REMARK                         _______ _______ _______ _____ _____    ______ ____
ROOT
ATOM      1  C1  UNL     1      14.622  10.995  -4.328  0.00  0.00    +0.000 C 
ATOM      2  C2  UNL     1      13.470  10.526  -5.199  0.00  0.00    +0.000 C 
ATOM      3  O1  UNL     1      13.263  11.438  -6.272  0.00  0.00    +0.000 OA
ATOM      4  C3  UNL     1      14.447  11.591  -7.045  0.00  0.00    +0.000 C 
ATOM      5  O2  UNL     1      15.524  12.106  -6.271  0.00  0.00    +0.000 OA
ATOM      6  C4  UNL     1      15.846  11.227  -5.198  0.00  0.00    +0.000 C 
ENDROOT
TORSDOF 0
ENDMDL
MODEL 6
REMARK VINA RESULT:    -2.507     15.588     16.382
REMARK INTER + INTRA:          -2.507
REMARK INTER:                  -2.507
REMARK INTRA:                   0.000
REMARK UNBOUND:                 0.000
REMARK  Name = /home/anacleto/Desktop/manuscript_Mpro/naturecomm/supplementary_file_S2/6-chemical-library/molecular_docking/3D_ligand_structure/64.pdb
REMARK  0 active torsions:
REMARK  status: ('A' for Active; 'I' for Inactive)
REMARK                            x       y       z     vdW  Elec       q    Type
REMARK                         _______ _______ _______ _____ _____    ______ ____
ROOT
ATOM      1  C1  UNL     1      21.595   6.218   9.355  0.00  0.00    +0.000 C 
ATOM      2  C2  UNL     1      20.806   5.290   8.446  0.00  0.00    +0.000 C 
ATOM      3  O1  UNL     1      19.411   5.530   8.592  0.00  0.00    +0.000 OA
ATOM      4  C3  UNL     1      19.097   6.889   8.316  0.00  0.00    +0.000 C 
ATOM      5  O2  UNL     1      19.761   7.780   9.205  0.00  0.00    +0.000 OA
ATOM      6  C4  UNL     1      21.174   7.654   9.090  0.00  0.00    +0.000 C 
ENDROOT
TORSDOF 0
ENDMDL
MODEL 7
REMARK VINA RESULT:    -2.293     15.464     16.539
REMARK INTER + INTRA:          -2.293
REMARK INTER:                  -2.293
REMARK INTRA:                   0.000
REMARK UNBOUND:                 0.000
REMARK  Name = /home/anacleto/Desktop/manuscript_Mpro/naturecomm/supplementary_file_S2/6-chemical-library/molecular_docking/3D_ligand_structure/64.pdb
REMARK  0 active torsions:
REMARK  status: ('A' for Active; 'I' for Inactive)
REMARK                            x       y       z     vdW  Elec       q    Type
REMARK                         _______ _______ _______ _____ _____    ______ ____
ROOT
ATOM      1  C1  UNL     1      20.882   6.896  10.156  0.00  0.00    +0.000 C 
ATOM      2  C2  UNL     1      19.432   7.328  10.016  0.00  0.00    +0.000 C 
ATOM      3  O1  UNL     1      19.048   7.319   8.645  0.00  0.00    +0.000 OA
ATOM      4  C3  UNL     1      19.248   6.034   8.068  0.00  0.00    +0.000 C 
ATOM      5  O2  UNL     1      20.613   5.637   8.114  0.00  0.00    +0.000 OA
ATOM      6  C4  UNL     1      21.076   5.560   9.458  0.00  0.00    +0.000 C 
ENDROOT
TORSDOF 0
ENDMDL
MODEL 8
REMARK VINA RESULT:    -2.245     17.415     18.153
REMARK INTER + INTRA:          -2.245
REMARK INTER:                  -2.245
REMARK INTRA:                   0.000
REMARK UNBOUND:                 0.000
REMARK  Name = /home/anacleto/Desktop/manuscript_Mpro/naturecomm/supplementary_file_S2/6-chemical-library/molecular_docking/3D_ligand_structure/64.pdb
REMARK  0 active torsions:
REMARK  status: ('A' for Active; 'I' for Inactive)
REMARK                            x       y       z     vdW  Elec       q    Type
REMARK                         _______ _______ _______ _____ _____    ______ ____
ROOT
ATOM      1  C1  UNL     1      13.341   1.408   8.492  0.00  0.00    +0.000 C 
ATOM      2  C2  UNL     1      12.593   0.707   9.614  0.00  0.00    +0.000 C 
ATOM      3  O1  UNL     1      12.294  -0.633   9.240  0.00  0.00    +0.000 OA
ATOM      4  C3  UNL     1      13.478  -1.345   8.904  0.00  0.00    +0.000 C 
ATOM      5  O2  UNL     1      14.159  -0.755   7.803  0.00  0.00    +0.000 OA
ATOM      6  C4  UNL     1      14.553   0.579   8.104  0.00  0.00    +0.000 C 
ENDROOT
TORSDOF 0
ENDMDL
MODEL 9
REMARK VINA RESULT:    -2.162     16.394     17.089
REMARK INTER + INTRA:          -2.162
REMARK INTER:                  -2.162
REMARK INTRA:                   0.000
REMARK UNBOUND:                 0.000
REMARK  Name = /home/anacleto/Desktop/manuscript_Mpro/naturecomm/supplementary_file_S2/6-chemical-library/molecular_docking/3D_ligand_structure/64.pdb
REMARK  0 active torsions:
REMARK  status: ('A' for Active; 'I' for Inactive)
REMARK                            x       y       z     vdW  Elec       q    Type
REMARK                         _______ _______ _______ _____ _____    ______ ____
ROOT
ATOM      1  C1  UNL     1      16.160   2.479   7.682  0.00  0.00    +0.000 C 
ATOM      2  C2  UNL     1      16.368   2.929   9.118  0.00  0.00    +0.000 C 
ATOM      3  O1  UNL     1      15.129   2.918   9.820  0.00  0.00    +0.000 OA
ATOM      4  C3  UNL     1      14.532   1.629   9.779  0.00  0.00    +0.000 C 
ATOM      5  O2  UNL     1      14.253   1.213   8.448  0.00  0.00    +0.000 OA
ATOM      6  C4  UNL     1      15.447   1.137   7.677  0.00  0.00    +0.000 C 
ENDROOT
TORSDOF 0
ENDMDL
