MODEL 1
REMARK VINA RESULT:    -5.094      0.000      0.000
REMARK INTER + INTRA:          -5.831
REMARK INTER:                  -5.565
REMARK INTRA:                  -0.266
REMARK UNBOUND:                -0.142
REMARK  Name = /home/anacleto/Desktop/manuscript_Mpro/naturecomm/supplementary_file_S2/6-chemical-library/molecular_docking/3D_ligand_structure/788.pdb
REMARK  2 active torsions:
REMARK  status: ('A' for Active; 'I' for Inactive)
REMARK    1  A    between atoms: C4_6  and  C5_7
REMARK    2  A    between atoms: N3_9  and  C6_10
REMARK                            x       y       z     vdW  Elec       q    Type
REMARK                         _______ _______ _______ _____ _____    ______ ____
ROOT
ATOM      1  C5  UNL     1     -30.040   2.736 -40.898  0.00  0.00    +0.000 C 
ATOM      2  O1  UNL     1     -30.017   3.962 -40.904  0.00  0.00    +0.000 OA
ATOM      3  N3  UNL     1     -29.079   1.894 -40.358  0.00  0.00    +0.000 N 
ATOM      4  H10 UNL     1     -29.260   0.908 -40.535  0.00  0.00    +0.000 HD
ENDROOT
BRANCH   1  10
ATOM      5  N1  UNL     1     -32.409   2.068 -40.570  0.00  0.00    +0.000 NA
ATOM      6  C1  UNL     1     -33.506   1.243 -41.116  0.00  0.00    +0.000 C 
ATOM      7  C2  UNL     1     -33.104  -0.234 -41.323  0.00  0.00    +0.000 C 
ATOM      8  N2  UNL     1     -31.929  -0.382 -42.190  0.00  0.00    +0.000 NA
ATOM      9  C3  UNL     1     -30.815   0.453 -41.704  0.00  0.00    +0.000 C 
ATOM     10  C4  UNL     1     -31.222   1.928 -41.479  0.00  0.00    +0.000 C 
ATOM     11  H1  UNL     1     -32.140   1.658 -39.673  0.00  0.00    +0.000 HD
ATOM     12  H6  UNL     1     -31.635  -1.358 -42.212  0.00  0.00    +0.000 HD
ENDBRANCH   1  10
BRANCH   3  13
ATOM     13  C6  UNL     1     -27.885   2.234 -39.703  0.00  0.00    +0.000 A 
ATOM     14  C7  UNL     1     -27.741   2.271 -38.315  0.00  0.00    +0.000 A 
ATOM     15  C8  UNL     1     -26.514   2.618 -37.740  0.00  0.00    +0.000 A 
ATOM     16  C9  UNL     1     -25.423   2.929 -38.548  0.00  0.00    +0.000 A 
ATOM     17  C10 UNL     1     -25.556   2.893 -39.933  0.00  0.00    +0.000 A 
ATOM     18  C11 UNL     1     -26.781   2.546 -40.508  0.00  0.00    +0.000 A 
ENDBRANCH   3  13
TORSDOF 2
ENDMDL
MODEL 2
REMARK VINA RESULT:    -5.018      4.822      6.912
REMARK INTER + INTRA:          -5.747
REMARK INTER:                  -5.538
REMARK INTRA:                  -0.209
REMARK UNBOUND:                -0.142
REMARK  Name = /home/anacleto/Desktop/manuscript_Mpro/naturecomm/supplementary_file_S2/6-chemical-library/molecular_docking/3D_ligand_structure/788.pdb
REMARK  2 active torsions:
REMARK  status: ('A' for Active; 'I' for Inactive)
REMARK    1  A    between atoms: C4_6  and  C5_7
REMARK    2  A    between atoms: N3_9  and  C6_10
REMARK                            x       y       z     vdW  Elec       q    Type
REMARK                         _______ _______ _______ _____ _____    ______ ____
ROOT
ATOM      1  C5  UNL     1     -24.562   5.202 -39.112  0.00  0.00    +0.000 C 
ATOM      2  O1  UNL     1     -24.160   5.160 -40.270  0.00  0.00    +0.000 OA
ATOM      3  N3  UNL     1     -24.020   5.947 -38.075  0.00  0.00    +0.000 N 
ATOM      4  H10 UNL     1     -24.463   5.771 -37.176  0.00  0.00    +0.000 HD
ENDROOT
BRANCH   1  10
ATOM      5  N1  UNL     1     -25.406   3.074 -38.149  0.00  0.00    +0.000 NA
ATOM      6  C1  UNL     1     -26.626   2.337 -37.761  0.00  0.00    +0.000 C 
ATOM      7  C2  UNL     1     -27.666   2.250 -38.898  0.00  0.00    +0.000 C 
ATOM      8  N2  UNL     1     -28.056   3.571 -39.407  0.00  0.00    +0.000 NA
ATOM      9  C3  UNL     1     -26.867   4.359 -39.777  0.00  0.00    +0.000 C 
ATOM     10  C4  UNL     1     -25.816   4.431 -38.644  0.00  0.00    +0.000 C 
ATOM     11  H1  UNL     1     -24.998   2.583 -38.948  0.00  0.00    +0.000 HD
ATOM     12  H6  UNL     1     -28.658   3.464 -40.224  0.00  0.00    +0.000 HD
ENDBRANCH   1  10
BRANCH   3  13
ATOM     13  C6  UNL     1     -22.912   6.809 -38.102  0.00  0.00    +0.000 A 
ATOM     14  C7  UNL     1     -21.591   6.378 -38.227  0.00  0.00    +0.000 A 
ATOM     15  C8  UNL     1     -20.543   7.304 -38.249  0.00  0.00    +0.000 A 
ATOM     16  C9  UNL     1     -20.808   8.667 -38.147  0.00  0.00    +0.000 A 
ATOM     17  C10 UNL     1     -22.123   9.108 -38.025  0.00  0.00    +0.000 A 
ATOM     18  C11 UNL     1     -23.170   8.183 -38.004  0.00  0.00    +0.000 A 
ENDBRANCH   3  13
TORSDOF 2
ENDMDL
MODEL 3
REMARK VINA RESULT:    -4.976      8.845      9.888
REMARK INTER + INTRA:          -5.700
REMARK INTER:                  -5.430
REMARK INTRA:                  -0.270
REMARK UNBOUND:                -0.142
REMARK  Name = /home/anacleto/Desktop/manuscript_Mpro/naturecomm/supplementary_file_S2/6-chemical-library/molecular_docking/3D_ligand_structure/788.pdb
REMARK  2 active torsions:
REMARK  status: ('A' for Active; 'I' for Inactive)
REMARK    1  A    between atoms: C4_6  and  C5_7
REMARK    2  A    between atoms: N3_9  and  C6_10
REMARK                            x       y       z     vdW  Elec       q    Type
REMARK                         _______ _______ _______ _____ _____    ______ ____
ROOT
ATOM      1  C5  UNL     1     -25.639  10.569 -38.350  0.00  0.00    +0.000 C 
ATOM      2  O1  UNL     1     -25.082  11.114 -39.297  0.00  0.00    +0.000 OA
ATOM      3  N3  UNL     1     -25.081   9.640 -37.485  0.00  0.00    +0.000 N 
ATOM      4  H10 UNL     1     -25.747   9.257 -36.818  0.00  0.00    +0.000 HD
ENDROOT
BRANCH   1  10
ATOM      5  N1  UNL     1     -27.103  12.134 -37.093  0.00  0.00    +0.000 NA
ATOM      6  C1  UNL     1     -28.495  12.394 -36.674  0.00  0.00    +0.000 C 
ATOM      7  C2  UNL     1     -29.145  11.190 -35.959  0.00  0.00    +0.000 C 
ATOM      8  N2  UNL     1     -29.120   9.969 -36.774  0.00  0.00    +0.000 NA
ATOM      9  C3  UNL     1     -27.752   9.686 -37.246  0.00  0.00    +0.000 C 
ATOM     10  C4  UNL     1     -27.094  10.898 -37.946  0.00  0.00    +0.000 C 
ATOM     11  H1  UNL     1     -26.571  11.909 -36.249  0.00  0.00    +0.000 HD
ATOM     12  H6  UNL     1     -29.459   9.179 -36.225  0.00  0.00    +0.000 HD
ENDBRANCH   1  10
BRANCH   3  13
ATOM     13  C6  UNL     1     -23.778   9.116 -37.485  0.00  0.00    +0.000 A 
ATOM     14  C7  UNL     1     -23.424   7.907 -38.085  0.00  0.00    +0.000 A 
ATOM     15  C8  UNL     1     -22.100   7.457 -38.042  0.00  0.00    +0.000 A 
ATOM     16  C9  UNL     1     -21.122   8.212 -37.400  0.00  0.00    +0.000 A 
ATOM     17  C10 UNL     1     -21.465   9.420 -36.801  0.00  0.00    +0.000 A 
ATOM     18  C11 UNL     1     -22.787   9.871 -36.844  0.00  0.00    +0.000 A 
ENDBRANCH   3  13
TORSDOF 2
ENDMDL
MODEL 4
REMARK VINA RESULT:    -4.950     12.472     15.928
REMARK INTER + INTRA:          -5.671
REMARK INTER:                  -5.399
REMARK INTRA:                  -0.272
REMARK UNBOUND:                -0.142
REMARK  Name = /home/anacleto/Desktop/manuscript_Mpro/naturecomm/supplementary_file_S2/6-chemical-library/molecular_docking/3D_ligand_structure/788.pdb
REMARK  2 active torsions:
REMARK  status: ('A' for Active; 'I' for Inactive)
REMARK    1  A    between atoms: C4_6  and  C5_7
REMARK    2  A    between atoms: N3_9  and  C6_10
REMARK                            x       y       z     vdW  Elec       q    Type
REMARK                         _______ _______ _______ _____ _____    ______ ____
ROOT
ATOM      1  C5  UNL     1     -16.445   9.444 -40.486  0.00  0.00    +0.000 C 
ATOM      2  O1  UNL     1     -17.120   9.728 -41.470  0.00  0.00    +0.000 OA
ATOM      3  N3  UNL     1     -16.917   9.012 -39.255  0.00  0.00    +0.000 N 
ATOM      4  H10 UNL     1     -16.186   8.909 -38.555  0.00  0.00    +0.000 HD
ENDROOT
BRANCH   1  10
ATOM      5  N1  UNL     1     -14.387   9.366 -39.097  0.00  0.00    +0.000 NA
ATOM      6  C1  UNL     1     -12.914   9.465 -39.135  0.00  0.00    +0.000 C 
ATOM      7  C2  UNL     1     -12.413  10.750 -39.830  0.00  0.00    +0.000 C 
ATOM      8  N2  UNL     1     -12.929  10.889 -41.197  0.00  0.00    +0.000 NA
ATOM      9  C3  UNL     1     -14.397  10.763 -41.215  0.00  0.00    +0.000 C 
ATOM     10  C4  UNL     1     -14.900   9.485 -40.504  0.00  0.00    +0.000 C 
ATOM     11  H1  UNL     1     -14.731  10.185 -38.591  0.00  0.00    +0.000 HD
ATOM     12  H6  UNL     1     -12.663  11.798 -41.577  0.00  0.00    +0.000 HD
ENDBRANCH   1  10
BRANCH   3  13
ATOM     13  C6  UNL     1     -18.245   8.799 -38.853  0.00  0.00    +0.000 A 
ATOM     14  C7  UNL     1     -18.920   7.587 -39.001  0.00  0.00    +0.000 A 
ATOM     15  C8  UNL     1     -20.244   7.457 -38.570  0.00  0.00    +0.000 A 
ATOM     16  C9  UNL     1     -20.902   8.537 -37.987  0.00  0.00    +0.000 A 
ATOM     17  C10 UNL     1     -20.237   9.749 -37.832  0.00  0.00    +0.000 A 
ATOM     18  C11 UNL     1     -18.914   9.880 -38.262  0.00  0.00    +0.000 A 
ENDBRANCH   3  13
TORSDOF 2
ENDMDL
MODEL 5
REMARK VINA RESULT:    -4.919      5.273      8.767
REMARK INTER + INTRA:          -5.636
REMARK INTER:                  -5.402
REMARK INTRA:                  -0.235
REMARK UNBOUND:                -0.142
REMARK  Name = /home/anacleto/Desktop/manuscript_Mpro/naturecomm/supplementary_file_S2/6-chemical-library/molecular_docking/3D_ligand_structure/788.pdb
REMARK  2 active torsions:
REMARK  status: ('A' for Active; 'I' for Inactive)
REMARK    1  A    between atoms: C4_6  and  C5_7
REMARK    2  A    between atoms: N3_9  and  C6_10
REMARK                            x       y       z     vdW  Elec       q    Type
REMARK                         _______ _______ _______ _____ _____    ______ ____
ROOT
ATOM      1  C5  UNL     1     -24.301   6.210 -38.540  0.00  0.00    +0.000 C 
ATOM      2  O1  UNL     1     -25.062   6.933 -39.173  0.00  0.00    +0.000 OA
ATOM      3  N3  UNL     1     -24.459   4.854 -38.296  0.00  0.00    +0.000 N 
ATOM      4  H10 UNL     1     -23.748   4.467 -37.680  0.00  0.00    +0.000 HD
ENDROOT
BRANCH   1  10
ATOM      5  N1  UNL     1     -23.042   8.224 -37.812  0.00  0.00    +0.000 NA
ATOM      6  C1  UNL     1     -21.744   8.700 -37.291  0.00  0.00    +0.000 C 
ATOM      7  C2  UNL     1     -20.544   8.243 -38.149  0.00  0.00    +0.000 C 
ATOM      8  N2  UNL     1     -20.483   6.785 -38.301  0.00  0.00    +0.000 NA
ATOM      9  C3  UNL     1     -21.771   6.257 -38.788  0.00  0.00    +0.000 C 
ATOM     10  C4  UNL     1     -22.975   6.729 -37.940  0.00  0.00    +0.000 C 
ATOM     11  H1  UNL     1     -23.139   8.594 -38.761  0.00  0.00    +0.000 HD
ATOM     12  H6  UNL     1     -19.745   6.535 -38.959  0.00  0.00    +0.000 HD
ENDBRANCH   1  10
BRANCH   3  13
ATOM     13  C6  UNL     1     -25.500   4.006 -38.709  0.00  0.00    +0.000 A 
ATOM     14  C7  UNL     1     -26.601   3.681 -37.915  0.00  0.00    +0.000 A 
ATOM     15  C8  UNL     1     -27.597   2.829 -38.403  0.00  0.00    +0.000 A 
ATOM     16  C9  UNL     1     -27.502   2.299 -39.687  0.00  0.00    +0.000 A 
ATOM     17  C10 UNL     1     -26.409   2.619 -40.487  0.00  0.00    +0.000 A 
ATOM     18  C11 UNL     1     -25.413   3.470 -40.000  0.00  0.00    +0.000 A 
ENDBRANCH   3  13
TORSDOF 2
ENDMDL
MODEL 6
REMARK VINA RESULT:    -4.860      9.407     12.852
REMARK INTER + INTRA:          -5.571
REMARK INTER:                  -5.297
REMARK INTRA:                  -0.274
REMARK UNBOUND:                -0.142
REMARK  Name = /home/anacleto/Desktop/manuscript_Mpro/naturecomm/supplementary_file_S2/6-chemical-library/molecular_docking/3D_ligand_structure/788.pdb
REMARK  2 active torsions:
REMARK  status: ('A' for Active; 'I' for Inactive)
REMARK    1  A    between atoms: C4_6  and  C5_7
REMARK    2  A    between atoms: N3_9  and  C6_10
REMARK                            x       y       z     vdW  Elec       q    Type
REMARK                         _______ _______ _______ _____ _____    ______ ____
ROOT
ATOM      1  C5  UNL     1     -20.143   9.283 -38.233  0.00  0.00    +0.000 C 
ATOM      2  O1  UNL     1     -21.061  10.043 -37.941  0.00  0.00    +0.000 OA
ATOM      3  N3  UNL     1     -20.260   7.961 -38.636  0.00  0.00    +0.000 N 
ATOM      4  H10 UNL     1     -19.364   7.492 -38.751  0.00  0.00    +0.000 HD
ENDROOT
BRANCH   1  10
ATOM      5  N1  UNL     1     -18.578  11.134 -38.776  0.00  0.00    +0.000 NA
ATOM      6  C1  UNL     1     -17.153  11.520 -38.823  0.00  0.00    +0.000 C 
ATOM      7  C2  UNL     1     -16.285  10.531 -39.631  0.00  0.00    +0.000 C 
ATOM      8  N2  UNL     1     -16.383   9.156 -39.128  0.00  0.00    +0.000 NA
ATOM      9  C3  UNL     1     -17.792   8.735 -39.031  0.00  0.00    +0.000 C 
ATOM     10  C4  UNL     1     -18.665   9.735 -38.237  0.00  0.00    +0.000 C 
ATOM     11  H1  UNL     1     -18.912  11.096 -39.742  0.00  0.00    +0.000 HD
ATOM     12  H6  UNL     1     -15.883   8.522 -39.753  0.00  0.00    +0.000 HD
ENDBRANCH   1  10
BRANCH   3  13
ATOM     13  C6  UNL     1     -21.426   7.197 -38.804  0.00  0.00    +0.000 A 
ATOM     14  C7  UNL     1     -21.996   6.414 -37.800  0.00  0.00    +0.000 A 
ATOM     15  C8  UNL     1     -23.163   5.683 -38.049  0.00  0.00    +0.000 A 
ATOM     16  C9  UNL     1     -23.768   5.732 -39.302  0.00  0.00    +0.000 A 
ATOM     17  C10 UNL     1     -23.208   6.512 -40.310  0.00  0.00    +0.000 A 
ATOM     18  C11 UNL     1     -22.043   7.242 -40.062  0.00  0.00    +0.000 A 
ENDBRANCH   3  13
TORSDOF 2
ENDMDL
MODEL 7
REMARK VINA RESULT:    -4.848     13.787     14.831
REMARK INTER + INTRA:          -5.557
REMARK INTER:                  -5.288
REMARK INTRA:                  -0.270
REMARK UNBOUND:                -0.142
REMARK  Name = /home/anacleto/Desktop/manuscript_Mpro/naturecomm/supplementary_file_S2/6-chemical-library/molecular_docking/3D_ligand_structure/788.pdb
REMARK  2 active torsions:
REMARK  status: ('A' for Active; 'I' for Inactive)
REMARK    1  A    between atoms: C4_6  and  C5_7
REMARK    2  A    between atoms: N3_9  and  C6_10
REMARK                            x       y       z     vdW  Elec       q    Type
REMARK                         _______ _______ _______ _____ _____    ______ ____
ROOT
ATOM      1  C5  UNL     1     -24.402  -3.788 -28.667  0.00  0.00    +0.000 C 
ATOM      2  O1  UNL     1     -24.226  -2.849 -29.435  0.00  0.00    +0.000 OA
ATOM      3  N3  UNL     1     -23.582  -4.895 -28.511  0.00  0.00    +0.000 N 
ATOM      4  H10 UNL     1     -23.961  -5.593 -27.875  0.00  0.00    +0.000 HD
ENDROOT
BRANCH   1  10
ATOM      5  N1  UNL     1     -25.772  -5.250 -27.199  0.00  0.00    +0.000 NA
ATOM      6  C1  UNL     1     -26.952  -5.286 -26.311  0.00  0.00    +0.000 C 
ATOM      7  C2  UNL     1     -28.231  -4.740 -26.983  0.00  0.00    +0.000 C 
ATOM      8  N2  UNL     1     -28.062  -3.372 -27.487  0.00  0.00    +0.000 NA
ATOM      9  C3  UNL     1     -26.874  -3.278 -28.354  0.00  0.00    +0.000 C 
ATOM     10  C4  UNL     1     -25.596  -3.841 -27.687  0.00  0.00    +0.000 C 
ATOM     11  H1  UNL     1     -25.995  -5.818 -28.020  0.00  0.00    +0.000 HD
ATOM     12  H6  UNL     1     -28.889  -3.093 -28.015  0.00  0.00    +0.000 HD
ENDBRANCH   1  10
BRANCH   3  13
ATOM     13  C6  UNL     1     -22.383  -5.197 -29.177  0.00  0.00    +0.000 A 
ATOM     14  C7  UNL     1     -22.306  -5.989 -30.323  0.00  0.00    +0.000 A 
ATOM     15  C8  UNL     1     -21.070  -6.240 -30.928  0.00  0.00    +0.000 A 
ATOM     16  C9  UNL     1     -19.903  -5.700 -30.393  0.00  0.00    +0.000 A 
ATOM     17  C10 UNL     1     -19.970  -4.906 -29.251  0.00  0.00    +0.000 A 
ATOM     18  C11 UNL     1     -21.205  -4.655 -28.646  0.00  0.00    +0.000 A 
ENDBRANCH   3  13
TORSDOF 2
ENDMDL
MODEL 8
REMARK VINA RESULT:    -4.825     25.960     27.112
REMARK INTER + INTRA:          -5.531
REMARK INTER:                  -5.254
REMARK INTRA:                  -0.277
REMARK UNBOUND:                -0.142
REMARK  Name = /home/anacleto/Desktop/manuscript_Mpro/naturecomm/supplementary_file_S2/6-chemical-library/molecular_docking/3D_ligand_structure/788.pdb
REMARK  2 active torsions:
REMARK  status: ('A' for Active; 'I' for Inactive)
REMARK    1  A    between atoms: C4_6  and  C5_7
REMARK    2  A    between atoms: N3_9  and  C6_10
REMARK                            x       y       z     vdW  Elec       q    Type
REMARK                         _______ _______ _______ _____ _____    ______ ____
ROOT
ATOM      1  C5  UNL     1     -37.886   3.668 -14.402  0.00  0.00    +0.000 C 
ATOM      2  O1  UNL     1     -37.856   3.523 -13.185  0.00  0.00    +0.000 OA
ATOM      3  N3  UNL     1     -38.041   4.864 -15.089  0.00  0.00    +0.000 N 
ATOM      4  H10 UNL     1     -38.119   4.744 -16.097  0.00  0.00    +0.000 HD
ENDROOT
BRANCH   1  10
ATOM      5  N1  UNL     1     -37.230   3.014 -16.707  0.00  0.00    +0.000 NA
ATOM      6  C1  UNL     1     -37.114   1.874 -17.639  0.00  0.00    +0.000 C 
ATOM      7  C2  UNL     1     -38.422   1.063 -17.767  0.00  0.00    +0.000 C 
ATOM      8  N2  UNL     1     -38.905   0.565 -16.473  0.00  0.00    +0.000 NA
ATOM      9  C3  UNL     1     -39.004   1.664 -15.496  0.00  0.00    +0.000 C 
ATOM     10  C4  UNL     1     -37.700   2.487 -15.381  0.00  0.00    +0.000 C 
ATOM     11  H1  UNL     1     -37.974   3.619 -17.061  0.00  0.00    +0.000 HD
ATOM     12  H6  UNL     1     -39.821   0.131 -16.589  0.00  0.00    +0.000 HD
ENDBRANCH   1  10
BRANCH   3  13
ATOM     13  C6  UNL     1     -38.192   6.159 -14.569  0.00  0.00    +0.000 A 
ATOM     14  C7  UNL     1     -37.126   7.012 -14.281  0.00  0.00    +0.000 A 
ATOM     15  C8  UNL     1     -37.362   8.291 -13.766  0.00  0.00    +0.000 A 
ATOM     16  C9  UNL     1     -38.665   8.727 -13.538  0.00  0.00    +0.000 A 
ATOM     17  C10 UNL     1     -39.735   7.884 -13.824  0.00  0.00    +0.000 A 
ATOM     18  C11 UNL     1     -39.500   6.606 -14.338  0.00  0.00    +0.000 A 
ENDBRANCH   3  13
TORSDOF 2
ENDMDL
MODEL 9
REMARK VINA RESULT:    -4.772     12.360     13.646
REMARK INTER + INTRA:          -5.472
REMARK INTER:                  -5.330
REMARK INTRA:                  -0.142
REMARK UNBOUND:                -0.142
REMARK  Name = /home/anacleto/Desktop/manuscript_Mpro/naturecomm/supplementary_file_S2/6-chemical-library/molecular_docking/3D_ligand_structure/788.pdb
REMARK  2 active torsions:
REMARK  status: ('A' for Active; 'I' for Inactive)
REMARK    1  A    between atoms: C4_6  and  C5_7
REMARK    2  A    between atoms: N3_9  and  C6_10
REMARK                            x       y       z     vdW  Elec       q    Type
REMARK                         _______ _______ _______ _____ _____    ______ ____
ROOT
ATOM      1  C5  UNL     1     -32.799  12.625 -34.379  0.00  0.00    +0.000 C 
ATOM      2  O1  UNL     1     -33.283  13.737 -34.562  0.00  0.00    +0.000 OA
ATOM      3  N3  UNL     1     -33.306  11.627 -33.559  0.00  0.00    +0.000 N 
ATOM      4  H10 UNL     1     -32.701  10.812 -33.492  0.00  0.00    +0.000 HD
ENDROOT
BRANCH   1  10
ATOM      5  N1  UNL     1     -30.319  12.736 -34.435  0.00  0.00    +0.000 NA
ATOM      6  C1  UNL     1     -29.119  12.311 -35.184  0.00  0.00    +0.000 C 
ATOM      7  C2  UNL     1     -29.182  12.676 -36.683  0.00  0.00    +0.000 C 
ATOM      8  N2  UNL     1     -30.371  12.126 -37.347  0.00  0.00    +0.000 NA
ATOM      9  C3  UNL     1     -31.595  12.496 -36.614  0.00  0.00    +0.000 C 
ATOM     10  C4  UNL     1     -31.524  12.147 -35.109  0.00  0.00    +0.000 C 
ATOM     11  H1  UNL     1     -30.394  13.751 -34.537  0.00  0.00    +0.000 HD
ATOM     12  H6  UNL     1     -30.429  12.479 -38.302  0.00  0.00    +0.000 HD
ENDBRANCH   1  10
BRANCH   3  13
ATOM     13  C6  UNL     1     -34.465  11.650 -32.767  0.00  0.00    +0.000 A 
ATOM     14  C7  UNL     1     -34.708  12.594 -31.768  0.00  0.00    +0.000 A 
ATOM     15  C8  UNL     1     -35.892  12.549 -31.024  0.00  0.00    +0.000 A 
ATOM     16  C9  UNL     1     -36.841  11.561 -31.274  0.00  0.00    +0.000 A 
ATOM     17  C10 UNL     1     -36.609  10.616 -32.269  0.00  0.00    +0.000 A 
ATOM     18  C11 UNL     1     -35.427  10.661 -33.013  0.00  0.00    +0.000 A 
ENDBRANCH   3  13
TORSDOF 2
ENDMDL
