MODEL 1
REMARK VINA RESULT:    -4.417      0.000      0.000
REMARK INTER + INTRA:          -4.417
REMARK INTER:                  -4.417
REMARK INTRA:                   0.000
REMARK UNBOUND:                 0.000
REMARK  Name = /home/anacleto/Desktop/manuscript_Mpro/naturecomm/supplementary_file_S2/6-chemical-library/molecular_docking/3D_ligand_structure/234.pdb
REMARK  0 active torsions:
REMARK  status: ('A' for Active; 'I' for Inactive)
REMARK                            x       y       z     vdW  Elec       q    Type
REMARK                         _______ _______ _______ _____ _____    ______ ____
ROOT
ATOM      1  C1  UNL     1      17.424  10.964  -4.778  0.00  0.00    +0.000 C 
ATOM      2  C2  UNL     1      17.428  10.204  -3.456  0.00  0.00    +0.000 C 
ATOM      3  C3  UNL     1      16.322  10.739  -2.559  0.00  0.00    +0.000 C 
ATOM      4  N1  UNL     1      15.022  10.521  -3.181  0.00  0.00    +0.000 N 
ATOM      5  C4  UNL     1      14.906  10.930  -4.520  0.00  0.00    +0.000 A 
ATOM      6  C5  UNL     1      16.033  11.098  -5.344  0.00  0.00    +0.000 A 
ATOM      7  C6  UNL     1      13.631  11.033  -5.092  0.00  0.00    +0.000 A 
ATOM      8  C7  UNL     1      13.473  11.369  -6.439  0.00  0.00    +0.000 A 
ATOM      9  C8  UNL     1      14.592  11.584  -7.237  0.00  0.00    +0.000 A 
ATOM     10  C9  UNL     1      15.869  11.448  -6.693  0.00  0.00    +0.000 A 
ATOM     11  H7  UNL     1      14.240  10.841  -2.617  0.00  0.00    +0.000 HD
ENDROOT
TORSDOF 0
ENDMDL
MODEL 2
REMARK VINA RESULT:    -4.293     14.808     16.129
REMARK INTER + INTRA:          -4.293
REMARK INTER:                  -4.293
REMARK INTRA:                   0.000
REMARK UNBOUND:                 0.000
REMARK  Name = /home/anacleto/Desktop/manuscript_Mpro/naturecomm/supplementary_file_S2/6-chemical-library/molecular_docking/3D_ligand_structure/234.pdb
REMARK  0 active torsions:
REMARK  status: ('A' for Active; 'I' for Inactive)
REMARK                            x       y       z     vdW  Elec       q    Type
REMARK                         _______ _______ _______ _____ _____    ______ ____
ROOT
ATOM      1  C1  UNL     1      21.247   3.842   8.868  0.00  0.00    +0.000 C 
ATOM      2  C2  UNL     1      22.500   3.676   9.721  0.00  0.00    +0.000 C 
ATOM      3  C3  UNL     1      23.494   4.777   9.382  0.00  0.00    +0.000 C 
ATOM      4  N1  UNL     1      22.925   6.081   9.696  0.00  0.00    +0.000 N 
ATOM      5  C4  UNL     1      21.632   6.322   9.202  0.00  0.00    +0.000 A 
ATOM      6  C5  UNL     1      20.766   5.271   8.847  0.00  0.00    +0.000 A 
ATOM      7  C6  UNL     1      21.138   7.632   9.198  0.00  0.00    +0.000 A 
ATOM      8  C7  UNL     1      19.833   7.906   8.780  0.00  0.00    +0.000 A 
ATOM      9  C8  UNL     1      18.998   6.867   8.382  0.00  0.00    +0.000 A 
ATOM     10  C9  UNL     1      19.462   5.553   8.417  0.00  0.00    +0.000 A 
ATOM     11  H7  UNL     1      23.554   6.857   9.508  0.00  0.00    +0.000 HD
ENDROOT
TORSDOF 0
ENDMDL
MODEL 3
REMARK VINA RESULT:    -4.215      1.064      3.260
REMARK INTER + INTRA:          -4.215
REMARK INTER:                  -4.215
REMARK INTRA:                   0.000
REMARK UNBOUND:                 0.000
REMARK  Name = /home/anacleto/Desktop/manuscript_Mpro/naturecomm/supplementary_file_S2/6-chemical-library/molecular_docking/3D_ligand_structure/234.pdb
REMARK  0 active torsions:
REMARK  status: ('A' for Active; 'I' for Inactive)
REMARK                            x       y       z     vdW  Elec       q    Type
REMARK                         _______ _______ _______ _____ _____    ______ ____
ROOT
ATOM      1  C1  UNL     1      13.979  11.385  -6.972  0.00  0.00    +0.000 C 
ATOM      2  C2  UNL     1      12.929  11.417  -5.867  0.00  0.00    +0.000 C 
ATOM      3  C3  UNL     1      13.259  10.362  -4.822  0.00  0.00    +0.000 C 
ATOM      4  N1  UNL     1      14.547  10.652  -4.205  0.00  0.00    +0.000 N 
ATOM      5  C4  UNL     1      15.606  10.916  -5.090  0.00  0.00    +0.000 A 
ATOM      6  C5  UNL     1      15.379  11.330  -6.415  0.00  0.00    +0.000 A 
ATOM      7  C6  UNL     1      16.919  10.908  -4.603  0.00  0.00    +0.000 A 
ATOM      8  C7  UNL     1      17.995  11.232  -5.432  0.00  0.00    +0.000 A 
ATOM      9  C8  UNL     1      17.768  11.593  -6.757  0.00  0.00    +0.000 A 
ATOM     10  C9  UNL     1      16.464  11.643  -7.247  0.00  0.00    +0.000 A 
ATOM     11  H7  UNL     1      14.813   9.989  -3.482  0.00  0.00    +0.000 HD
ENDROOT
TORSDOF 0
ENDMDL
MODEL 4
REMARK VINA RESULT:    -4.128     14.601     15.997
REMARK INTER + INTRA:          -4.128
REMARK INTER:                  -4.128
REMARK INTRA:                   0.000
REMARK UNBOUND:                 0.000
REMARK  Name = /home/anacleto/Desktop/manuscript_Mpro/naturecomm/supplementary_file_S2/6-chemical-library/molecular_docking/3D_ligand_structure/234.pdb
REMARK  0 active torsions:
REMARK  status: ('A' for Active; 'I' for Inactive)
REMARK                            x       y       z     vdW  Elec       q    Type
REMARK                         _______ _______ _______ _____ _____    ______ ____
ROOT
ATOM      1  C1  UNL     1      20.546   3.897  10.093  0.00  0.00    +0.000 C 
ATOM      2  C2  UNL     1      19.556   2.907   9.489  0.00  0.00    +0.000 C 
ATOM      3  C3  UNL     1      18.159   3.508   9.509  0.00  0.00    +0.000 C 
ATOM      4  N1  UNL     1      18.120   4.714   8.693  0.00  0.00    +0.000 N 
ATOM      5  C4  UNL     1      19.138   5.652   8.933  0.00  0.00    +0.000 A 
ATOM      6  C5  UNL     1      20.349   5.290   9.551  0.00  0.00    +0.000 A 
ATOM      7  C6  UNL     1      19.007   6.947   8.416  0.00  0.00    +0.000 A 
ATOM      8  C7  UNL     1      20.026   7.890   8.573  0.00  0.00    +0.000 A 
ATOM      9  C8  UNL     1      21.202   7.540   9.230  0.00  0.00    +0.000 A 
ATOM     10  C9  UNL     1      21.364   6.243   9.717  0.00  0.00    +0.000 A 
ATOM     11  H7  UNL     1      17.203   5.151   8.652  0.00  0.00    +0.000 HD
ENDROOT
TORSDOF 0
ENDMDL
MODEL 5
REMARK VINA RESULT:    -3.972     18.324     19.303
REMARK INTER + INTRA:          -3.972
REMARK INTER:                  -3.972
REMARK INTRA:                   0.000
REMARK UNBOUND:                 0.000
REMARK  Name = /home/anacleto/Desktop/manuscript_Mpro/naturecomm/supplementary_file_S2/6-chemical-library/molecular_docking/3D_ligand_structure/234.pdb
REMARK  0 active torsions:
REMARK  status: ('A' for Active; 'I' for Inactive)
REMARK                            x       y       z     vdW  Elec       q    Type
REMARK                         _______ _______ _______ _____ _____    ______ ____
ROOT
ATOM      1  C1  UNL     1      24.939  17.929  10.553  0.00  0.00    +0.000 C 
ATOM      2  C2  UNL     1      25.239  17.152   9.276  0.00  0.00    +0.000 C 
ATOM      3  C3  UNL     1      25.463  15.686   9.614  0.00  0.00    +0.000 C 
ATOM      4  N1  UNL     1      24.256  15.114  10.196  0.00  0.00    +0.000 N 
ATOM      5  C4  UNL     1      23.672  15.849  11.242  0.00  0.00    +0.000 A 
ATOM      6  C5  UNL     1      23.925  17.221  11.416  0.00  0.00    +0.000 A 
ATOM      7  C6  UNL     1      22.700  15.236  12.044  0.00  0.00    +0.000 A 
ATOM      8  C7  UNL     1      22.045  15.950  13.050  0.00  0.00    +0.000 A 
ATOM      9  C8  UNL     1      22.337  17.296  13.250  0.00  0.00    +0.000 A 
ATOM     10  C9  UNL     1      23.273  17.931  12.435  0.00  0.00    +0.000 A 
ATOM     11  H7  UNL     1      24.340  14.128  10.425  0.00  0.00    +0.000 HD
ENDROOT
TORSDOF 0
ENDMDL
MODEL 6
REMARK VINA RESULT:    -3.966     14.894     16.818
REMARK INTER + INTRA:          -3.966
REMARK INTER:                  -3.966
REMARK INTRA:                   0.000
REMARK UNBOUND:                 0.000
REMARK  Name = /home/anacleto/Desktop/manuscript_Mpro/naturecomm/supplementary_file_S2/6-chemical-library/molecular_docking/3D_ligand_structure/234.pdb
REMARK  0 active torsions:
REMARK  status: ('A' for Active; 'I' for Inactive)
REMARK                            x       y       z     vdW  Elec       q    Type
REMARK                         _______ _______ _______ _____ _____    ______ ____
ROOT
ATOM      1  C1  UNL     1      18.321   5.460  12.157  0.00  0.00    +0.000 C 
ATOM      2  C2  UNL     1      18.086   6.624  13.113  0.00  0.00    +0.000 C 
ATOM      3  C3  UNL     1      19.262   7.586  13.041  0.00  0.00    +0.000 C 
ATOM      4  N1  UNL     1      19.373   8.143  11.699  0.00  0.00    +0.000 N 
ATOM      5  C4  UNL     1      19.341   7.215  10.645  0.00  0.00    +0.000 A 
ATOM      6  C5  UNL     1      18.789   5.931  10.803  0.00  0.00    +0.000 A 
ATOM      7  C6  UNL     1      19.736   7.625   9.365  0.00  0.00    +0.000 A 
ATOM      8  C7  UNL     1      19.655   6.755   8.275  0.00  0.00    +0.000 A 
ATOM      9  C8  UNL     1      19.155   5.468   8.449  0.00  0.00    +0.000 A 
ATOM     10  C9  UNL     1      18.722   5.057   9.708  0.00  0.00    +0.000 A 
ATOM     11  H7  UNL     1      20.132   8.811  11.595  0.00  0.00    +0.000 HD
ENDROOT
TORSDOF 0
ENDMDL
MODEL 7
REMARK VINA RESULT:    -3.959      1.890      4.155
REMARK INTER + INTRA:          -3.959
REMARK INTER:                  -3.959
REMARK INTRA:                   0.000
REMARK UNBOUND:                 0.000
REMARK  Name = /home/anacleto/Desktop/manuscript_Mpro/naturecomm/supplementary_file_S2/6-chemical-library/molecular_docking/3D_ligand_structure/234.pdb
REMARK  0 active torsions:
REMARK  status: ('A' for Active; 'I' for Inactive)
REMARK                            x       y       z     vdW  Elec       q    Type
REMARK                         _______ _______ _______ _____ _____    ______ ____
ROOT
ATOM      1  C1  UNL     1      14.862  13.341  -4.676  0.00  0.00    +0.000 C 
ATOM      2  C2  UNL     1      13.796  12.413  -5.248  0.00  0.00    +0.000 C 
ATOM      3  C3  UNL     1      14.312  10.982  -5.245  0.00  0.00    +0.000 C 
ATOM      4  N1  UNL     1      14.578  10.547  -3.880  0.00  0.00    +0.000 N 
ATOM      5  C4  UNL     1      15.348  11.423  -3.096  0.00  0.00    +0.000 A 
ATOM      6  C5  UNL     1      15.464  12.790  -3.408  0.00  0.00    +0.000 A 
ATOM      7  C6  UNL     1      15.895  10.959  -1.893  0.00  0.00    +0.000 A 
ATOM      8  C7  UNL     1      16.608  11.814  -1.050  0.00  0.00    +0.000 A 
ATOM      9  C8  UNL     1      16.762  13.155  -1.390  0.00  0.00    +0.000 A 
ATOM     10  C9  UNL     1      16.191  13.642  -2.564  0.00  0.00    +0.000 A 
ATOM     11  H7  UNL     1      14.909   9.589  -3.813  0.00  0.00    +0.000 HD
ENDROOT
TORSDOF 0
ENDMDL
MODEL 8
REMARK VINA RESULT:    -3.827     15.604     17.265
REMARK INTER + INTRA:          -3.827
REMARK INTER:                  -3.827
REMARK INTRA:                   0.000
REMARK UNBOUND:                 0.000
REMARK  Name = /home/anacleto/Desktop/manuscript_Mpro/naturecomm/supplementary_file_S2/6-chemical-library/molecular_docking/3D_ligand_structure/234.pdb
REMARK  0 active torsions:
REMARK  status: ('A' for Active; 'I' for Inactive)
REMARK                            x       y       z     vdW  Elec       q    Type
REMARK                         _______ _______ _______ _____ _____    ______ ____
ROOT
ATOM      1  C1  UNL     1      13.592   1.921  10.964  0.00  0.00    +0.000 C 
ATOM      2  C2  UNL     1      12.802   0.617  10.958  0.00  0.00    +0.000 C 
ATOM      3  C3  UNL     1      12.228   0.377   9.571  0.00  0.00    +0.000 C 
ATOM      4  N1  UNL     1      13.304   0.235   8.599  0.00  0.00    +0.000 N 
ATOM      5  C4  UNL     1      14.295   1.230   8.632  0.00  0.00    +0.000 A 
ATOM      6  C5  UNL     1      14.510   2.026   9.772  0.00  0.00    +0.000 A 
ATOM      7  C6  UNL     1      15.189   1.337   7.558  0.00  0.00    +0.000 A 
ATOM      8  C7  UNL     1      16.231   2.267   7.581  0.00  0.00    +0.000 A 
ATOM      9  C8  UNL     1      16.407   3.087   8.691  0.00  0.00    +0.000 A 
ATOM     10  C9  UNL     1      15.550   2.966   9.784  0.00  0.00    +0.000 A 
ATOM     11  H7  UNL     1      12.980   0.052   7.653  0.00  0.00    +0.000 HD
ENDROOT
TORSDOF 0
ENDMDL
MODEL 9
REMARK VINA RESULT:    -3.781     15.578     17.268
REMARK INTER + INTRA:          -3.781
REMARK INTER:                  -3.781
REMARK INTRA:                   0.000
REMARK UNBOUND:                 0.000
REMARK  Name = /home/anacleto/Desktop/manuscript_Mpro/naturecomm/supplementary_file_S2/6-chemical-library/molecular_docking/3D_ligand_structure/234.pdb
REMARK  0 active torsions:
REMARK  status: ('A' for Active; 'I' for Inactive)
REMARK                            x       y       z     vdW  Elec       q    Type
REMARK                         _______ _______ _______ _____ _____    ______ ____
ROOT
ATOM      1  C1  UNL     1      15.643  -0.115   7.471  0.00  0.00    +0.000 C 
ATOM      2  C2  UNL     1      16.762   0.898   7.682  0.00  0.00    +0.000 C 
ATOM      3  C3  UNL     1      16.176   2.301   7.731  0.00  0.00    +0.000 C 
ATOM      4  N1  UNL     1      15.262   2.424   8.859  0.00  0.00    +0.000 N 
ATOM      5  C4  UNL     1      14.299   1.408   8.982  0.00  0.00    +0.000 A 
ATOM      6  C5  UNL     1      14.469   0.148   8.380  0.00  0.00    +0.000 A 
ATOM      7  C6  UNL     1      13.211   1.601   9.843  0.00  0.00    +0.000 A 
ATOM      8  C7  UNL     1      12.268   0.592  10.047  0.00  0.00    +0.000 A 
ATOM      9  C8  UNL     1      12.415  -0.636   9.409  0.00  0.00    +0.000 A 
ATOM     10  C9  UNL     1      13.512  -0.859   8.579  0.00  0.00    +0.000 A 
ATOM     11  H7  UNL     1      14.852   3.349   8.954  0.00  0.00    +0.000 HD
ENDROOT
TORSDOF 0
ENDMDL
