MODEL 1
REMARK VINA RESULT:    -4.610      0.000      0.000
REMARK INTER + INTRA:          -5.658
REMARK INTER:                  -5.400
REMARK INTRA:                  -0.258
REMARK UNBOUND:                -0.240
REMARK  Name = /home/anacleto/Desktop/manuscript_Mpro/naturecomm/supplementary_file_S2/6-chemical-library/molecular_docking/3D_ligand_structure/748.pdb
REMARK  3 active torsions:
REMARK  status: ('A' for Active; 'I' for Inactive)
REMARK    1  A    between atoms: C2_5  and  S1_6
REMARK    2  A    between atoms: S1_6  and  C3_9
REMARK    3  A    between atoms: C3_9  and  C4_10
REMARK                            x       y       z     vdW  Elec       q    Type
REMARK                         _______ _______ _______ _____ _____    ______ ____
ROOT
ATOM      1  S1  UNL     1      15.195  13.269  -3.563  0.00  0.00    +0.000 S 
ATOM      2  O2  UNL     1      14.280  14.362  -3.280  0.00  0.00    +0.000 OA
ATOM      3  O3  UNL     1      16.451  13.517  -4.251  0.00  0.00    +0.000 OA
ENDROOT
BRANCH   1   8
ATOM      4  O1  UNL     1      13.587  12.479  -5.704  0.00  0.00    +0.000 OA
ATOM      5  C1  UNL     1      13.103  11.278  -6.113  0.00  0.00    +0.000 A 
ATOM      6  N1  UNL     1      13.472  10.275  -5.354  0.00  0.00    +0.000 NA
ATOM      7  N2  UNL     1      14.265  10.818  -4.365  0.00  0.00    +0.000 NA
ATOM      8  C2  UNL     1      14.314  12.125  -4.584  0.00  0.00    +0.000 A 
ENDBRANCH   1   8
BRANCH   1   9
ATOM      9  C3  UNL     1      15.539  12.349  -2.074  0.00  0.00    +0.000 C 
BRANCH   9  10
ATOM     10  C4  UNL     1      16.798  12.833  -1.405  0.00  0.00    +0.000 A 
ATOM     11  C5  UNL     1      16.852  14.115  -0.836  0.00  0.00    +0.000 A 
ATOM     12  C6  UNL     1      18.021  14.570  -0.222  0.00  0.00    +0.000 A 
ATOM     13  C7  UNL     1      19.144  13.749  -0.164  0.00  0.00    +0.000 A 
ATOM     14  C8  UNL     1      19.100  12.471  -0.719  0.00  0.00    +0.000 A 
ATOM     15  C9  UNL     1      17.934  12.014  -1.334  0.00  0.00    +0.000 A 
ENDBRANCH   9  10
ENDBRANCH   1   9
TORSDOF 3
ENDMDL
MODEL 2
REMARK VINA RESULT:    -4.516      3.060      6.009
REMARK INTER + INTRA:          -5.548
REMARK INTER:                  -5.320
REMARK INTRA:                  -0.227
REMARK UNBOUND:                -0.240
REMARK  Name = /home/anacleto/Desktop/manuscript_Mpro/naturecomm/supplementary_file_S2/6-chemical-library/molecular_docking/3D_ligand_structure/748.pdb
REMARK  3 active torsions:
REMARK  status: ('A' for Active; 'I' for Inactive)
REMARK    1  A    between atoms: C2_5  and  S1_6
REMARK    2  A    between atoms: S1_6  and  C3_9
REMARK    3  A    between atoms: C3_9  and  C4_10
REMARK                            x       y       z     vdW  Elec       q    Type
REMARK                         _______ _______ _______ _____ _____    ______ ____
ROOT
ATOM      1  S1  UNL     1      16.317  11.404  -2.262  0.00  0.00    +0.000 S 
ATOM      2  O2  UNL     1      15.645  10.578  -1.273  0.00  0.00    +0.000 OA
ATOM      3  O3  UNL     1      17.112  10.795  -3.314  0.00  0.00    +0.000 OA
ENDROOT
BRANCH   1   8
ATOM      4  O1  UNL     1      18.785  12.215  -1.240  0.00  0.00    +0.000 OA
ATOM      5  C1  UNL     1      19.178  13.267  -0.477  0.00  0.00    +0.000 A 
ATOM      6  N1  UNL     1      18.201  14.080  -0.158  0.00  0.00    +0.000 NA
ATOM      7  N2  UNL     1      17.066  13.560  -0.744  0.00  0.00    +0.000 NA
ATOM      8  C2  UNL     1      17.430  12.451  -1.373  0.00  0.00    +0.000 A 
ENDBRANCH   1   8
BRANCH   1   9
ATOM      9  C3  UNL     1      15.159  12.536  -3.011  0.00  0.00    +0.000 C 
BRANCH   9  10
ATOM     10  C4  UNL     1      14.769  12.088  -4.395  0.00  0.00    +0.000 A 
ATOM     11  C5  UNL     1      13.972  10.947  -4.575  0.00  0.00    +0.000 A 
ATOM     12  C6  UNL     1      13.615  10.525  -5.857  0.00  0.00    +0.000 A 
ATOM     13  C7  UNL     1      14.043  11.241  -6.972  0.00  0.00    +0.000 A 
ATOM     14  C8  UNL     1      14.828  12.381  -6.806  0.00  0.00    +0.000 A 
ATOM     15  C9  UNL     1      15.187  12.804  -5.526  0.00  0.00    +0.000 A 
ENDBRANCH   9  10
ENDBRANCH   1   9
TORSDOF 3
ENDMDL
MODEL 3
REMARK VINA RESULT:    -4.496      3.045      5.952
REMARK INTER + INTRA:          -5.525
REMARK INTER:                  -5.306
REMARK INTRA:                  -0.219
REMARK UNBOUND:                -0.240
REMARK  Name = /home/anacleto/Desktop/manuscript_Mpro/naturecomm/supplementary_file_S2/6-chemical-library/molecular_docking/3D_ligand_structure/748.pdb
REMARK  3 active torsions:
REMARK  status: ('A' for Active; 'I' for Inactive)
REMARK    1  A    between atoms: C2_5  and  S1_6
REMARK    2  A    between atoms: S1_6  and  C3_9
REMARK    3  A    between atoms: C3_9  and  C4_10
REMARK                            x       y       z     vdW  Elec       q    Type
REMARK                         _______ _______ _______ _____ _____    ______ ____
ROOT
ATOM      1  S1  UNL     1      16.260  11.402  -2.245  0.00  0.00    +0.000 S 
ATOM      2  O2  UNL     1      15.601  10.600  -1.229  0.00  0.00    +0.000 OA
ATOM      3  O3  UNL     1      17.047  10.770  -3.290  0.00  0.00    +0.000 OA
ENDROOT
BRANCH   1   8
ATOM      4  O1  UNL     1      18.737  12.255  -1.281  0.00  0.00    +0.000 OA
ATOM      5  C1  UNL     1      19.133  13.324  -0.543  0.00  0.00    +0.000 A 
ATOM      6  N1  UNL     1      18.153  14.132  -0.220  0.00  0.00    +0.000 NA
ATOM      7  N2  UNL     1      17.014  13.591  -0.777  0.00  0.00    +0.000 NA
ATOM      8  C2  UNL     1      17.378  12.475  -1.394  0.00  0.00    +0.000 A 
ENDBRANCH   1   8
BRANCH   1   9
ATOM      9  C3  UNL     1      15.091  12.511  -3.012  0.00  0.00    +0.000 C 
BRANCH   9  10
ATOM     10  C4  UNL     1      14.734  12.060  -4.403  0.00  0.00    +0.000 A 
ATOM     11  C5  UNL     1      15.201  12.767  -5.522  0.00  0.00    +0.000 A 
ATOM     12  C6  UNL     1      14.865  12.355  -6.813  0.00  0.00    +0.000 A 
ATOM     13  C7  UNL     1      14.066  11.230  -7.001  0.00  0.00    +0.000 A 
ATOM     14  C8  UNL     1      13.602  10.515  -5.899  0.00  0.00    +0.000 A 
ATOM     15  C9  UNL     1      13.936  10.924  -4.607  0.00  0.00    +0.000 A 
ENDBRANCH   9  10
ENDBRANCH   1   9
TORSDOF 3
ENDMDL
MODEL 4
REMARK VINA RESULT:    -4.341      3.069      5.897
REMARK INTER + INTRA:          -5.342
REMARK INTER:                  -5.126
REMARK INTRA:                  -0.216
REMARK UNBOUND:                -0.240
REMARK  Name = /home/anacleto/Desktop/manuscript_Mpro/naturecomm/supplementary_file_S2/6-chemical-library/molecular_docking/3D_ligand_structure/748.pdb
REMARK  3 active torsions:
REMARK  status: ('A' for Active; 'I' for Inactive)
REMARK    1  A    between atoms: C2_5  and  S1_6
REMARK    2  A    between atoms: S1_6  and  C3_9
REMARK    3  A    between atoms: C3_9  and  C4_10
REMARK                            x       y       z     vdW  Elec       q    Type
REMARK                         _______ _______ _______ _____ _____    ______ ____
ROOT
ATOM      1  S1  UNL     1      15.491  14.489  -3.296  0.00  0.00    +0.000 S 
ATOM      2  O2  UNL     1      16.139  15.381  -4.243  0.00  0.00    +0.000 OA
ATOM      3  O3  UNL     1      14.048  14.509  -3.133  0.00  0.00    +0.000 OA
ENDROOT
BRANCH   1   8
ATOM      4  O1  UNL     1      17.414  14.517  -1.272  0.00  0.00    +0.000 OA
ATOM      5  C1  UNL     1      17.434  15.022  -0.011  0.00  0.00    +0.000 A 
ATOM      6  N1  UNL     1      16.325  15.632   0.329  0.00  0.00    +0.000 NA
ATOM      7  N2  UNL     1      15.493  15.550  -0.768  0.00  0.00    +0.000 NA
ATOM      8  C2  UNL     1      16.152  14.879  -1.702  0.00  0.00    +0.000 A 
ENDBRANCH   1   8
BRANCH   1   9
ATOM      9  C3  UNL     1      16.005  12.805  -3.581  0.00  0.00    +0.000 C 
BRANCH   9  10
ATOM     10  C4  UNL     1      15.209  12.166  -4.688  0.00  0.00    +0.000 A 
ATOM     11  C5  UNL     1      15.347  12.614  -6.011  0.00  0.00    +0.000 A 
ATOM     12  C6  UNL     1      14.605  12.029  -7.039  0.00  0.00    +0.000 A 
ATOM     13  C7  UNL     1      13.723  10.988  -6.759  0.00  0.00    +0.000 A 
ATOM     14  C8  UNL     1      13.583  10.530  -5.451  0.00  0.00    +0.000 A 
ATOM     15  C9  UNL     1      14.323  11.113  -4.421  0.00  0.00    +0.000 A 
ENDBRANCH   9  10
ENDBRANCH   1   9
TORSDOF 3
ENDMDL
MODEL 5
REMARK VINA RESULT:    -4.336      1.133      1.908
REMARK INTER + INTRA:          -5.336
REMARK INTER:                  -5.153
REMARK INTRA:                  -0.183
REMARK UNBOUND:                -0.240
REMARK  Name = /home/anacleto/Desktop/manuscript_Mpro/naturecomm/supplementary_file_S2/6-chemical-library/molecular_docking/3D_ligand_structure/748.pdb
REMARK  3 active torsions:
REMARK  status: ('A' for Active; 'I' for Inactive)
REMARK    1  A    between atoms: C2_5  and  S1_6
REMARK    2  A    between atoms: S1_6  and  C3_9
REMARK    3  A    between atoms: C3_9  and  C4_10
REMARK                            x       y       z     vdW  Elec       q    Type
REMARK                         _______ _______ _______ _____ _____    ______ ____
ROOT
ATOM      1  S1  UNL     1      15.644  13.949  -2.586  0.00  0.00    +0.000 S 
ATOM      2  O2  UNL     1      14.551  14.748  -2.056  0.00  0.00    +0.000 OA
ATOM      3  O3  UNL     1      16.678  14.563  -3.400  0.00  0.00    +0.000 OA
ENDROOT
BRANCH   1   8
ATOM      4  O1  UNL     1      14.198  12.967  -4.762  0.00  0.00    +0.000 OA
ATOM      5  C1  UNL     1      13.842  11.717  -5.158  0.00  0.00    +0.000 A 
ATOM      6  N1  UNL     1      14.271  10.770  -4.360  0.00  0.00    +0.000 NA
ATOM      7  N2  UNL     1      14.973  11.406  -3.357  0.00  0.00    +0.000 NA
ATOM      8  C2  UNL     1      14.911  12.706  -3.608  0.00  0.00    +0.000 A 
ENDBRANCH   1   8
BRANCH   1   9
ATOM      9  C3  UNL     1      16.429  13.028  -1.275  0.00  0.00    +0.000 C 
BRANCH   9  10
ATOM     10  C4  UNL     1      17.507  13.836  -0.603  0.00  0.00    +0.000 A 
ATOM     11  C5  UNL     1      18.819  13.343  -0.523  0.00  0.00    +0.000 A 
ATOM     12  C6  UNL     1      19.819  14.087   0.106  0.00  0.00    +0.000 A 
ATOM     13  C7  UNL     1      19.523  15.331   0.656  0.00  0.00    +0.000 A 
ATOM     14  C8  UNL     1      18.226  15.835   0.576  0.00  0.00    +0.000 A 
ATOM     15  C9  UNL     1      17.224  15.094  -0.052  0.00  0.00    +0.000 A 
ENDBRANCH   9  10
ENDBRANCH   1   9
TORSDOF 3
ENDMDL
MODEL 6
REMARK VINA RESULT:    -4.292      2.087      2.687
REMARK INTER + INTRA:          -5.285
REMARK INTER:                  -5.040
REMARK INTRA:                  -0.245
REMARK UNBOUND:                -0.240
REMARK  Name = /home/anacleto/Desktop/manuscript_Mpro/naturecomm/supplementary_file_S2/6-chemical-library/molecular_docking/3D_ligand_structure/748.pdb
REMARK  3 active torsions:
REMARK  status: ('A' for Active; 'I' for Inactive)
REMARK    1  A    between atoms: C2_5  and  S1_6
REMARK    2  A    between atoms: S1_6  and  C3_9
REMARK    3  A    between atoms: C3_9  and  C4_10
REMARK                            x       y       z     vdW  Elec       q    Type
REMARK                         _______ _______ _______ _____ _____    ______ ____
ROOT
ATOM      1  S1  UNL     1      15.657  12.635  -2.907  0.00  0.00    +0.000 S 
ATOM      2  O2  UNL     1      16.926  12.960  -3.536  0.00  0.00    +0.000 OA
ATOM      3  O3  UNL     1      15.591  11.649  -1.843  0.00  0.00    +0.000 OA
ENDROOT
BRANCH   1   8
ATOM      4  O1  UNL     1      14.235  10.696  -4.327  0.00  0.00    +0.000 OA
ATOM      5  C1  UNL     1      13.456  10.738  -5.438  0.00  0.00    +0.000 A 
ATOM      6  N1  UNL     1      13.336  11.938  -5.951  0.00  0.00    +0.000 NA
ATOM      7  N2  UNL     1      14.070  12.775  -5.139  0.00  0.00    +0.000 NA
ATOM      8  C2  UNL     1      14.602  12.020  -4.187  0.00  0.00    +0.000 A 
ENDBRANCH   1   8
BRANCH   1   9
ATOM      9  C3  UNL     1      14.844  14.123  -2.351  0.00  0.00    +0.000 C 
BRANCH   9  10
ATOM     10  C4  UNL     1      15.815  15.068  -1.695  0.00  0.00    +0.000 A 
ATOM     11  C5  UNL     1      16.434  14.723  -0.483  0.00  0.00    +0.000 A 
ATOM     12  C6  UNL     1      17.329  15.602   0.131  0.00  0.00    +0.000 A 
ATOM     13  C7  UNL     1      17.619  16.829  -0.459  0.00  0.00    +0.000 A 
ATOM     14  C8  UNL     1      17.017  17.180  -1.665  0.00  0.00    +0.000 A 
ATOM     15  C9  UNL     1      16.122  16.304  -2.282  0.00  0.00    +0.000 A 
ENDBRANCH   9  10
ENDBRANCH   1   9
TORSDOF 3
ENDMDL
MODEL 7
REMARK VINA RESULT:    -4.290      1.830      2.356
REMARK INTER + INTRA:          -5.282
REMARK INTER:                  -5.043
REMARK INTRA:                  -0.240
REMARK UNBOUND:                -0.240
REMARK  Name = /home/anacleto/Desktop/manuscript_Mpro/naturecomm/supplementary_file_S2/6-chemical-library/molecular_docking/3D_ligand_structure/748.pdb
REMARK  3 active torsions:
REMARK  status: ('A' for Active; 'I' for Inactive)
REMARK    1  A    between atoms: C2_5  and  S1_6
REMARK    2  A    between atoms: S1_6  and  C3_9
REMARK    3  A    between atoms: C3_9  and  C4_10
REMARK                            x       y       z     vdW  Elec       q    Type
REMARK                         _______ _______ _______ _____ _____    ______ ____
ROOT
ATOM      1  S1  UNL     1      15.932  11.423  -3.074  0.00  0.00    +0.000 S 
ATOM      2  O2  UNL     1      16.538  10.138  -2.769  0.00  0.00    +0.000 OA
ATOM      3  O3  UNL     1      15.031  12.057  -2.127  0.00  0.00    +0.000 OA
ENDROOT
BRANCH   1   8
ATOM      4  O1  UNL     1      13.766  10.547  -4.602  0.00  0.00    +0.000 OA
ATOM      5  C1  UNL     1      13.467  10.623  -5.925  0.00  0.00    +0.000 A 
ATOM      6  N1  UNL     1      14.376  11.244  -6.635  0.00  0.00    +0.000 NA
ATOM      7  N2  UNL     1      15.358  11.626  -5.747  0.00  0.00    +0.000 NA
ATOM      8  C2  UNL     1      14.984  11.197  -4.550  0.00  0.00    +0.000 A 
ENDBRANCH   1   8
BRANCH   1   9
ATOM      9  C3  UNL     1      17.186  12.603  -3.539  0.00  0.00    +0.000 C 
BRANCH   9  10
ATOM     10  C4  UNL     1      17.813  13.245  -2.330  0.00  0.00    +0.000 A 
ATOM     11  C5  UNL     1      18.755  12.544  -1.561  0.00  0.00    +0.000 A 
ATOM     12  C6  UNL     1      19.333  13.134  -0.435  0.00  0.00    +0.000 A 
ATOM     13  C7  UNL     1      18.981  14.431  -0.068  0.00  0.00    +0.000 A 
ATOM     14  C8  UNL     1      18.053  15.140  -0.827  0.00  0.00    +0.000 A 
ATOM     15  C9  UNL     1      17.474  14.553  -1.953  0.00  0.00    +0.000 A 
ENDBRANCH   9  10
ENDBRANCH   1   9
TORSDOF 3
ENDMDL
MODEL 8
REMARK VINA RESULT:    -4.141      3.700      5.169
REMARK INTER + INTRA:          -5.107
REMARK INTER:                  -4.907
REMARK INTRA:                  -0.200
REMARK UNBOUND:                -0.240
REMARK  Name = /home/anacleto/Desktop/manuscript_Mpro/naturecomm/supplementary_file_S2/6-chemical-library/molecular_docking/3D_ligand_structure/748.pdb
REMARK  3 active torsions:
REMARK  status: ('A' for Active; 'I' for Inactive)
REMARK    1  A    between atoms: C2_5  and  S1_6
REMARK    2  A    between atoms: S1_6  and  C3_9
REMARK    3  A    between atoms: C3_9  and  C4_10
REMARK                            x       y       z     vdW  Elec       q    Type
REMARK                         _______ _______ _______ _____ _____    ______ ____
ROOT
ATOM      1  S1  UNL     1      15.783  14.115  -2.528  0.00  0.00    +0.000 S 
ATOM      2  O2  UNL     1      16.662  13.966  -1.381  0.00  0.00    +0.000 OA
ATOM      3  O3  UNL     1      16.252  14.767  -3.738  0.00  0.00    +0.000 OA
ENDROOT
BRANCH   1   8
ATOM      4  O1  UNL     1      13.168  15.089  -2.609  0.00  0.00    +0.000 OA
ATOM      5  C1  UNL     1      12.474  15.964  -1.835  0.00  0.00    +0.000 A 
ATOM      6  N1  UNL     1      13.169  16.448  -0.835  0.00  0.00    +0.000 NA
ATOM      7  N2  UNL     1      14.416  15.865  -0.921  0.00  0.00    +0.000 NA
ATOM      8  C2  UNL     1      14.398  15.070  -1.982  0.00  0.00    +0.000 A 
ENDBRANCH   1   8
BRANCH   1   9
ATOM      9  C3  UNL     1      15.076  12.539  -2.974  0.00  0.00    +0.000 C 
BRANCH   9  10
ATOM     10  C4  UNL     1      15.307  12.223  -4.428  0.00  0.00    +0.000 A 
ATOM     11  C5  UNL     1      14.335  12.543  -5.388  0.00  0.00    +0.000 A 
ATOM     12  C6  UNL     1      14.544  12.244  -6.736  0.00  0.00    +0.000 A 
ATOM     13  C7  UNL     1      15.726  11.629  -7.140  0.00  0.00    +0.000 A 
ATOM     14  C8  UNL     1      16.702  11.312  -6.197  0.00  0.00    +0.000 A 
ATOM     15  C9  UNL     1      16.496  11.610  -4.849  0.00  0.00    +0.000 A 
ENDBRANCH   9  10
ENDBRANCH   1   9
TORSDOF 3
ENDMDL
MODEL 9
REMARK VINA RESULT:    -3.943      3.387      4.623
REMARK INTER + INTRA:          -4.874
REMARK INTER:                  -4.634
REMARK INTRA:                  -0.240
REMARK UNBOUND:                -0.240
REMARK  Name = /home/anacleto/Desktop/manuscript_Mpro/naturecomm/supplementary_file_S2/6-chemical-library/molecular_docking/3D_ligand_structure/748.pdb
REMARK  3 active torsions:
REMARK  status: ('A' for Active; 'I' for Inactive)
REMARK    1  A    between atoms: C2_5  and  S1_6
REMARK    2  A    between atoms: S1_6  and  C3_9
REMARK    3  A    between atoms: C3_9  and  C4_10
REMARK                            x       y       z     vdW  Elec       q    Type
REMARK                         _______ _______ _______ _____ _____    ______ ____
ROOT
ATOM      1  S1  UNL     1      16.139  14.268  -3.200  0.00  0.00    +0.000 S 
ATOM      2  O2  UNL     1      15.103  14.443  -4.204  0.00  0.00    +0.000 OA
ATOM      3  O3  UNL     1      17.474  14.798  -3.418  0.00  0.00    +0.000 OA
ENDROOT
BRANCH   1   8
ATOM      4  O1  UNL     1      15.837  11.798  -1.934  0.00  0.00    +0.000 OA
ATOM      5  C1  UNL     1      16.277  10.545  -2.217  0.00  0.00    +0.000 A 
ATOM      6  N1  UNL     1      16.985  10.472  -3.318  0.00  0.00    +0.000 NA
ATOM      7  N2  UNL     1      17.027  11.752  -3.829  0.00  0.00    +0.000 NA
ATOM      8  C2  UNL     1      16.350  12.525  -2.991  0.00  0.00    +0.000 A 
ENDBRANCH   1   8
BRANCH   1   9
ATOM      9  C3  UNL     1      15.560  14.831  -1.610  0.00  0.00    +0.000 C 
BRANCH   9  10
ATOM     10  C4  UNL     1      14.529  15.919  -1.752  0.00  0.00    +0.000 A 
ATOM     11  C5  UNL     1      14.903  17.200  -2.186  0.00  0.00    +0.000 A 
ATOM     12  C6  UNL     1      13.950  18.213  -2.312  0.00  0.00    +0.000 A 
ATOM     13  C7  UNL     1      12.615  17.956  -2.011  0.00  0.00    +0.000 A 
ATOM     14  C8  UNL     1      12.230  16.687  -1.586  0.00  0.00    +0.000 A 
ATOM     15  C9  UNL     1      13.179  15.672  -1.460  0.00  0.00    +0.000 A 
ENDBRANCH   9  10
ENDBRANCH   1   9
TORSDOF 3
ENDMDL
