MODEL 1
REMARK VINA RESULT:    -4.030      0.000      0.000
REMARK INTER + INTRA:          -4.712
REMARK INTER:                  -4.451
REMARK INTRA:                  -0.261
REMARK UNBOUND:                -0.211
REMARK  Name = /home/anacleto/Desktop/manuscript_Mpro/naturecomm/supplementary_file_S2/6-chemical-library/molecular_docking/3D_ligand_structure/1245.pdb
REMARK  2 active torsions:
REMARK  status: ('A' for Active; 'I' for Inactive)
REMARK    1  A    between atoms: N2_5  and  C4_6
REMARK    2  A    between atoms: C4_6  and  C5_7
REMARK                            x       y       z     vdW  Elec       q    Type
REMARK                         _______ _______ _______ _____ _____    ______ ____
ROOT
ATOM      1  C4  UNL     1     -24.669   6.343 -38.823  0.00  0.00    +0.000 C 
ENDROOT
BRANCH   1   2
ATOM      2  C5  UNL     1     -24.877   4.979 -39.435  0.00  0.00    +0.000 A 
ATOM      3  C6  UNL     1     -24.554   4.742 -40.778  0.00  0.00    +0.000 A 
ATOM      4  C7  UNL     1     -24.744   3.477 -41.339  0.00  0.00    +0.000 A 
ATOM      5  C8  UNL     1     -25.256   2.438 -40.563  0.00  0.00    +0.000 A 
ATOM      6  C9  UNL     1     -25.579   2.662 -39.226  0.00  0.00    +0.000 A 
ATOM      7  C10 UNL     1     -25.390   3.925 -38.664  0.00  0.00    +0.000 A 
ENDBRANCH   1   2
BRANCH   1  12
ATOM      8  N1  UNL     1     -22.801   7.734 -39.531  0.00  0.00    +0.000 NA
ATOM      9  C1  UNL     1     -21.505   7.800 -39.218  0.00  0.00    +0.000 A 
ATOM     10  C2  UNL     1     -21.135   6.843 -38.256  0.00  0.00    +0.000 A 
ATOM     11  C3  UNL     1     -22.294   6.157 -37.983  0.00  0.00    +0.000 A 
ATOM     12  N2  UNL     1     -23.261   6.711 -38.777  0.00  0.00    +0.000 N 
ENDBRANCH   1  12
TORSDOF 2
ENDMDL
MODEL 2
REMARK VINA RESULT:    -4.025      4.497      6.349
REMARK INTER + INTRA:          -4.706
REMARK INTER:                  -4.467
REMARK INTRA:                  -0.239
REMARK UNBOUND:                -0.211
REMARK  Name = /home/anacleto/Desktop/manuscript_Mpro/naturecomm/supplementary_file_S2/6-chemical-library/molecular_docking/3D_ligand_structure/1245.pdb
REMARK  2 active torsions:
REMARK  status: ('A' for Active; 'I' for Inactive)
REMARK    1  A    between atoms: N2_5  and  C4_6
REMARK    2  A    between atoms: C4_6  and  C5_7
REMARK                            x       y       z     vdW  Elec       q    Type
REMARK                         _______ _______ _______ _____ _____    ______ ____
ROOT
ATOM      1  C4  UNL     1     -28.743   5.593 -38.608  0.00  0.00    +0.000 C 
ENDROOT
BRANCH   1   2
ATOM      2  C5  UNL     1     -27.656   4.545 -38.596  0.00  0.00    +0.000 A 
ATOM      3  C6  UNL     1     -27.931   3.235 -38.177  0.00  0.00    +0.000 A 
ATOM      4  C7  UNL     1     -26.924   2.269 -38.171  0.00  0.00    +0.000 A 
ATOM      5  C8  UNL     1     -25.635   2.600 -38.585  0.00  0.00    +0.000 A 
ATOM      6  C9  UNL     1     -25.351   3.897 -39.005  0.00  0.00    +0.000 A 
ATOM      7  C10 UNL     1     -26.355   4.865 -39.012  0.00  0.00    +0.000 A 
ENDBRANCH   1   2
BRANCH   1  12
ATOM      8  N1  UNL     1     -29.738   4.871 -40.708  0.00  0.00    +0.000 NA
ATOM      9  C1  UNL     1     -30.965   4.515 -41.095  0.00  0.00    +0.000 A 
ATOM     10  C2  UNL     1     -31.898   4.573 -40.044  0.00  0.00    +0.000 A 
ATOM     11  C3  UNL     1     -31.173   4.998 -38.957  0.00  0.00    +0.000 A 
ATOM     12  N2  UNL     1     -29.891   5.178 -39.402  0.00  0.00    +0.000 N 
ENDBRANCH   1  12
TORSDOF 2
ENDMDL
MODEL 3
REMARK VINA RESULT:    -3.979     14.307     15.602
REMARK INTER + INTRA:          -4.655
REMARK INTER:                  -4.399
REMARK INTRA:                  -0.256
REMARK UNBOUND:                -0.211
REMARK  Name = /home/anacleto/Desktop/manuscript_Mpro/naturecomm/supplementary_file_S2/6-chemical-library/molecular_docking/3D_ligand_structure/1245.pdb
REMARK  2 active torsions:
REMARK  status: ('A' for Active; 'I' for Inactive)
REMARK    1  A    between atoms: N2_5  and  C4_6
REMARK    2  A    between atoms: C4_6  and  C5_7
REMARK                            x       y       z     vdW  Elec       q    Type
REMARK                         _______ _______ _______ _____ _____    ______ ____
ROOT
ATOM      1  C4  UNL     1     -36.300  11.304 -33.861  0.00  0.00    +0.000 C 
ENDROOT
BRANCH   1   2
ATOM      2  C5  UNL     1     -36.820  11.725 -32.508  0.00  0.00    +0.000 A 
ATOM      3  C6  UNL     1     -36.923  10.799 -31.461  0.00  0.00    +0.000 A 
ATOM      4  C7  UNL     1     -37.399  11.195 -30.210  0.00  0.00    +0.000 A 
ATOM      5  C8  UNL     1     -37.775  12.519 -29.992  0.00  0.00    +0.000 A 
ATOM      6  C9  UNL     1     -37.675  13.449 -31.025  0.00  0.00    +0.000 A 
ATOM      7  C10 UNL     1     -37.199  13.056 -32.276  0.00  0.00    +0.000 A 
ENDBRANCH   1   2
BRANCH   1  12
ATOM      8  N1  UNL     1     -34.679  12.738 -34.973  0.00  0.00    +0.000 NA
ATOM      9  C1  UNL     1     -33.356  12.901 -34.893  0.00  0.00    +0.000 A 
ATOM     10  C2  UNL     1     -32.764  12.044 -33.949  0.00  0.00    +0.000 A 
ATOM     11  C3  UNL     1     -33.811  11.316 -33.434  0.00  0.00    +0.000 A 
ATOM     12  N2  UNL     1     -34.933  11.752 -34.085  0.00  0.00    +0.000 N 
ENDBRANCH   1  12
TORSDOF 2
ENDMDL
MODEL 4
REMARK VINA RESULT:    -3.978     15.895     17.127
REMARK INTER + INTRA:          -4.654
REMARK INTER:                  -4.421
REMARK INTRA:                  -0.234
REMARK UNBOUND:                -0.211
REMARK  Name = /home/anacleto/Desktop/manuscript_Mpro/naturecomm/supplementary_file_S2/6-chemical-library/molecular_docking/3D_ligand_structure/1245.pdb
REMARK  2 active torsions:
REMARK  status: ('A' for Active; 'I' for Inactive)
REMARK    1  A    between atoms: N2_5  and  C4_6
REMARK    2  A    between atoms: C4_6  and  C5_7
REMARK                            x       y       z     vdW  Elec       q    Type
REMARK                         _______ _______ _______ _____ _____    ______ ____
ROOT
ATOM      1  C4  UNL     1     -24.179  -3.981 -26.441  0.00  0.00    +0.000 C 
ENDROOT
BRANCH   1   2
ATOM      2  C5  UNL     1     -25.636  -4.375 -26.476  0.00  0.00    +0.000 A 
ATOM      3  C6  UNL     1     -26.103  -5.459 -25.719  0.00  0.00    +0.000 A 
ATOM      4  C7  UNL     1     -27.452  -5.816 -25.752  0.00  0.00    +0.000 A 
ATOM      5  C8  UNL     1     -28.348  -5.094 -26.540  0.00  0.00    +0.000 A 
ATOM      6  C9  UNL     1     -27.896  -4.014 -27.294  0.00  0.00    +0.000 A 
ATOM      7  C10 UNL     1     -26.548  -3.654 -27.263  0.00  0.00    +0.000 A 
ENDBRANCH   1   2
BRANCH   1  12
ATOM      8  N1  UNL     1     -22.729  -4.728 -24.634  0.00  0.00    +0.000 NA
ATOM      9  C1  UNL     1     -22.498  -4.322 -23.384  0.00  0.00    +0.000 A 
ATOM     10  C2  UNL     1     -23.274  -3.204 -23.029  0.00  0.00    +0.000 A 
ATOM     11  C3  UNL     1     -24.023  -2.930 -24.149  0.00  0.00    +0.000 A 
ATOM     12  N2  UNL     1     -23.677  -3.874 -25.078  0.00  0.00    +0.000 N 
ENDBRANCH   1  12
TORSDOF 2
ENDMDL
MODEL 5
REMARK VINA RESULT:    -3.942      1.850      5.585
REMARK INTER + INTRA:          -4.614
REMARK INTER:                  -4.367
REMARK INTRA:                  -0.247
REMARK UNBOUND:                -0.211
REMARK  Name = /home/anacleto/Desktop/manuscript_Mpro/naturecomm/supplementary_file_S2/6-chemical-library/molecular_docking/3D_ligand_structure/1245.pdb
REMARK  2 active torsions:
REMARK  status: ('A' for Active; 'I' for Inactive)
REMARK    1  A    between atoms: N2_5  and  C4_6
REMARK    2  A    between atoms: C4_6  and  C5_7
REMARK                            x       y       z     vdW  Elec       q    Type
REMARK                         _______ _______ _______ _____ _____    ______ ____
ROOT
ATOM      1  C4  UNL     1     -21.700   6.153 -37.939  0.00  0.00    +0.000 C 
ENDROOT
BRANCH   1   2
ATOM      2  C5  UNL     1     -21.148   7.557 -37.953  0.00  0.00    +0.000 A 
ATOM      3  C6  UNL     1     -19.911   7.833 -38.553  0.00  0.00    +0.000 A 
ATOM      4  C7  UNL     1     -19.407   9.135 -38.568  0.00  0.00    +0.000 A 
ATOM      5  C8  UNL     1     -20.132  10.173 -37.985  0.00  0.00    +0.000 A 
ATOM      6  C9  UNL     1     -21.363   9.911 -37.388  0.00  0.00    +0.000 A 
ATOM      7  C10 UNL     1     -21.870   8.611 -37.372  0.00  0.00    +0.000 A 
ENDBRANCH   1   2
BRANCH   1  12
ATOM      8  N1  UNL     1     -22.904   6.381 -40.042  0.00  0.00    +0.000 NA
ATOM      9  C1  UNL     1     -24.150   6.121 -40.446  0.00  0.00    +0.000 A 
ATOM     10  C2  UNL     1     -24.951   5.596 -39.417  0.00  0.00    +0.000 A 
ATOM     11  C3  UNL     1     -24.122   5.544 -38.321  0.00  0.00    +0.000 A 
ATOM     12  N2  UNL     1     -22.914   6.036 -38.736  0.00  0.00    +0.000 N 
ENDBRANCH   1  12
TORSDOF 2
ENDMDL
MODEL 6
REMARK VINA RESULT:    -3.926     15.817     17.386
REMARK INTER + INTRA:          -4.597
REMARK INTER:                  -4.370
REMARK INTRA:                  -0.226
REMARK UNBOUND:                -0.211
REMARK  Name = /home/anacleto/Desktop/manuscript_Mpro/naturecomm/supplementary_file_S2/6-chemical-library/molecular_docking/3D_ligand_structure/1245.pdb
REMARK  2 active torsions:
REMARK  status: ('A' for Active; 'I' for Inactive)
REMARK    1  A    between atoms: N2_5  and  C4_6
REMARK    2  A    between atoms: C4_6  and  C5_7
REMARK                            x       y       z     vdW  Elec       q    Type
REMARK                         _______ _______ _______ _____ _____    ______ ____
ROOT
ATOM      1  C4  UNL     1     -24.424  -4.486 -26.795  0.00  0.00    +0.000 C 
ENDROOT
BRANCH   1   2
ATOM      2  C5  UNL     1     -23.933  -4.062 -25.432  0.00  0.00    +0.000 A 
ATOM      3  C6  UNL     1     -24.474  -2.935 -24.796  0.00  0.00    +0.000 A 
ATOM      4  C7  UNL     1     -24.020  -2.549 -23.534  0.00  0.00    +0.000 A 
ATOM      5  C8  UNL     1     -23.023  -3.284 -22.894  0.00  0.00    +0.000 A 
ATOM      6  C9  UNL     1     -22.479  -4.406 -23.516  0.00  0.00    +0.000 A 
ATOM      7  C10 UNL     1     -22.931  -4.795 -24.777  0.00  0.00    +0.000 A 
ENDBRANCH   1   2
BRANCH   1  12
ATOM      8  N1  UNL     1     -26.528  -3.640 -27.678  0.00  0.00    +0.000 NA
ATOM      9  C1  UNL     1     -27.814  -3.959 -27.514  0.00  0.00    +0.000 A 
ATOM     10  C2  UNL     1     -27.992  -5.033 -26.624  0.00  0.00    +0.000 A 
ATOM     11  C3  UNL     1     -26.721  -5.372 -26.227  0.00  0.00    +0.000 A 
ATOM     12  N2  UNL     1     -25.878  -4.505 -26.869  0.00  0.00    +0.000 N 
ENDBRANCH   1  12
TORSDOF 2
ENDMDL
MODEL 7
REMARK VINA RESULT:    -3.906      1.788      4.694
REMARK INTER + INTRA:          -4.574
REMARK INTER:                  -4.311
REMARK INTRA:                  -0.262
REMARK UNBOUND:                -0.211
REMARK  Name = /home/anacleto/Desktop/manuscript_Mpro/naturecomm/supplementary_file_S2/6-chemical-library/molecular_docking/3D_ligand_structure/1245.pdb
REMARK  2 active torsions:
REMARK  status: ('A' for Active; 'I' for Inactive)
REMARK    1  A    between atoms: N2_5  and  C4_6
REMARK    2  A    between atoms: C4_6  and  C5_7
REMARK                            x       y       z     vdW  Elec       q    Type
REMARK                         _______ _______ _______ _____ _____    ______ ____
ROOT
ATOM      1  C4  UNL     1     -25.317   5.998 -39.299  0.00  0.00    +0.000 C 
ENDROOT
BRANCH   1   2
ATOM      2  C5  UNL     1     -23.847   6.293 -39.121  0.00  0.00    +0.000 A 
ATOM      3  C6  UNL     1     -23.132   6.984 -40.109  0.00  0.00    +0.000 A 
ATOM      4  C7  UNL     1     -21.774   7.259 -39.938  0.00  0.00    +0.000 A 
ATOM      5  C8  UNL     1     -21.118   6.848 -38.778  0.00  0.00    +0.000 A 
ATOM      6  C9  UNL     1     -21.820   6.162 -37.789  0.00  0.00    +0.000 A 
ATOM      7  C10 UNL     1     -23.177   5.887 -37.957  0.00  0.00    +0.000 A 
ENDBRANCH   1   2
BRANCH   1  12
ATOM      8  N1  UNL     1     -26.396   4.010 -38.401  0.00  0.00    +0.000 NA
ATOM      9  C1  UNL     1     -26.433   2.721 -38.748  0.00  0.00    +0.000 A 
ATOM     10  C2  UNL     1     -25.671   2.451 -39.898  0.00  0.00    +0.000 A 
ATOM     11  C3  UNL     1     -25.139   3.667 -40.258  0.00  0.00    +0.000 A 
ATOM     12  N2  UNL     1     -25.585   4.567 -39.327  0.00  0.00    +0.000 N 
ENDBRANCH   1  12
TORSDOF 2
ENDMDL
MODEL 8
REMARK VINA RESULT:    -3.856      1.470      2.014
REMARK INTER + INTRA:          -4.518
REMARK INTER:                  -4.494
REMARK INTRA:                  -0.023
REMARK UNBOUND:                -0.211
REMARK  Name = /home/anacleto/Desktop/manuscript_Mpro/naturecomm/supplementary_file_S2/6-chemical-library/molecular_docking/3D_ligand_structure/1245.pdb
REMARK  2 active torsions:
REMARK  status: ('A' for Active; 'I' for Inactive)
REMARK    1  A    between atoms: N2_5  and  C4_6
REMARK    2  A    between atoms: C4_6  and  C5_7
REMARK                            x       y       z     vdW  Elec       q    Type
REMARK                         _______ _______ _______ _____ _____    ______ ____
ROOT
ATOM      1  C4  UNL     1     -25.273   5.908 -39.854  0.00  0.00    +0.000 C 
ENDROOT
BRANCH   1   2
ATOM      2  C5  UNL     1     -26.018   4.714 -39.308  0.00  0.00    +0.000 A 
ATOM      3  C6  UNL     1     -25.410   3.452 -39.262  0.00  0.00    +0.000 A 
ATOM      4  C7  UNL     1     -26.102   2.352 -38.752  0.00  0.00    +0.000 A 
ATOM      5  C8  UNL     1     -27.406   2.502 -38.282  0.00  0.00    +0.000 A 
ATOM      6  C9  UNL     1     -28.019   3.752 -38.321  0.00  0.00    +0.000 A 
ATOM      7  C10 UNL     1     -27.330   4.853 -38.830  0.00  0.00    +0.000 A 
ENDBRANCH   1   2
BRANCH   1  12
ATOM      8  N1  UNL     1     -22.906   6.454 -40.008  0.00  0.00    +0.000 NA
ATOM      9  C1  UNL     1     -21.891   6.492 -39.142  0.00  0.00    +0.000 A 
ATOM     10  C2  UNL     1     -22.280   6.131 -37.840  0.00  0.00    +0.000 A 
ATOM     11  C3  UNL     1     -23.623   5.855 -37.941  0.00  0.00    +0.000 A 
ATOM     12  N2  UNL     1     -23.952   6.046 -39.256  0.00  0.00    +0.000 N 
ENDBRANCH   1  12
TORSDOF 2
ENDMDL
MODEL 9
REMARK VINA RESULT:    -3.798      2.474      3.945
REMARK INTER + INTRA:          -4.454
REMARK INTER:                  -4.242
REMARK INTRA:                  -0.211
REMARK UNBOUND:                -0.211
REMARK  Name = /home/anacleto/Desktop/manuscript_Mpro/naturecomm/supplementary_file_S2/6-chemical-library/molecular_docking/3D_ligand_structure/1245.pdb
REMARK  2 active torsions:
REMARK  status: ('A' for Active; 'I' for Inactive)
REMARK    1  A    between atoms: N2_5  and  C4_6
REMARK    2  A    between atoms: C4_6  and  C5_7
REMARK                            x       y       z     vdW  Elec       q    Type
REMARK                         _______ _______ _______ _____ _____    ______ ____
ROOT
ATOM      1  C4  UNL     1     -20.376   7.470 -40.099  0.00  0.00    +0.000 C 
ENDROOT
BRANCH   1   2
ATOM      2  C5  UNL     1     -21.593   6.795 -39.513  0.00  0.00    +0.000 A 
ATOM      3  C6  UNL     1     -22.732   6.569 -40.297  0.00  0.00    +0.000 A 
ATOM      4  C7  UNL     1     -23.853   5.941 -39.751  0.00  0.00    +0.000 A 
ATOM      5  C8  UNL     1     -23.846   5.532 -38.418  0.00  0.00    +0.000 A 
ATOM      6  C9  UNL     1     -22.719   5.751 -37.630  0.00  0.00    +0.000 A 
ATOM      7  C10 UNL     1     -21.597   6.378 -38.173  0.00  0.00    +0.000 A 
ENDBRANCH   1   2
BRANCH   1  12
ATOM      8  N1  UNL     1     -18.700   8.741 -38.875  0.00  0.00    +0.000 NA
ATOM      9  C1  UNL     1     -18.686   9.918 -38.245  0.00  0.00    +0.000 A 
ATOM     10  C2  UNL     1     -19.929  10.573 -38.302  0.00  0.00    +0.000 A 
ATOM     11  C3  UNL     1     -20.740   9.721 -39.013  0.00  0.00    +0.000 A 
ATOM     12  N2  UNL     1     -19.970   8.633 -39.322  0.00  0.00    +0.000 N 
ENDBRANCH   1  12
TORSDOF 2
ENDMDL
