MODEL 1
REMARK VINA RESULT:    -5.336      0.000      0.000
REMARK INTER + INTRA:          -9.803
REMARK INTER:                  -8.607
REMARK INTRA:                  -1.196
REMARK UNBOUND:                -1.659
REMARK  Name = /home/anacleto/Desktop/manuscript_Mpro/naturecomm/supplementary_file_S2/6-chemical-library/molecular_docking/3D_ligand_structure/405.pdb
REMARK  9 active torsions:
REMARK  status: ('A' for Active; 'I' for Inactive)
REMARK    1  A    between atoms: C5_6  and  C6_7
REMARK    2  A    between atoms: C6_7  and  N2_9
REMARK    3  A    between atoms: N2_9  and  N3_10
REMARK    4  A    between atoms: N3_10  and  C8_11
REMARK    5  A    between atoms: C8_11  and  N4_13
REMARK    6  A    between atoms: N4_13  and  N5_14
REMARK    7  A    between atoms: N5_14  and  C9_15
REMARK    8  A    between atoms: C9_15  and  N6_17
REMARK    9  A    between atoms: N6_17  and  C10_18
REMARK                            x       y       z     vdW  Elec       q    Type
REMARK                         _______ _______ _______ _____ _____    ______ ____
ROOT
ATOM      1  C8  UNL     1     -28.206   9.591 -37.326  0.00  0.00    +0.000 C 
ATOM      2  S1  UNL     1     -29.031  10.545 -36.229  0.00  0.00    +0.000 S 
ENDROOT
BRANCH   1   3
ATOM      3  N3  UNL     1     -28.894   8.868 -38.274  0.00  0.00    +0.000 N 
ATOM      4  H8  UNL     1     -28.559   8.909 -39.241  0.00  0.00    +0.000 HD
BRANCH   3   5
ATOM      5  N2  UNL     1     -29.535   7.671 -37.915  0.00  0.00    +0.000 N 
ATOM      6  H7  UNL     1     -30.452   7.830 -37.492  0.00  0.00    +0.000 HD
BRANCH   5   7
ATOM      7  C6  UNL     1     -29.522   6.563 -38.755  0.00  0.00    +0.000 C 
ATOM      8  C7  UNL     1     -30.544   6.268 -39.575  0.00  0.00    +0.000 C 
BRANCH   7  14
ATOM      9  N1  UNL     1     -27.156   6.259 -39.167  0.00  0.00    +0.000 NA
ATOM     10  C1  UNL     1     -26.052   5.480 -39.168  0.00  0.00    +0.000 A 
ATOM     11  C2  UNL     1     -26.045   4.147 -38.791  0.00  0.00    +0.000 A 
ATOM     12  C3  UNL     1     -27.244   3.573 -38.383  0.00  0.00    +0.000 A 
ATOM     13  C4  UNL     1     -28.401   4.348 -38.369  0.00  0.00    +0.000 A 
ATOM     14  C5  UNL     1     -28.322   5.680 -38.770  0.00  0.00    +0.000 A 
ENDBRANCH   7  14
ENDBRANCH   5   7
ENDBRANCH   3   5
ENDBRANCH   1   3
BRANCH   1  15
ATOM     15  N4  UNL     1     -26.838   9.458 -37.384  0.00  0.00    +0.000 N 
ATOM     16  H9  UNL     1     -26.451   8.557 -37.109  0.00  0.00    +0.000 HD
BRANCH  15  17
ATOM     17  N5  UNL     1     -25.984  10.571 -37.306  0.00  0.00    +0.000 N 
ATOM     18  H10 UNL     1     -26.025  11.049 -36.407  0.00  0.00    +0.000 HD
BRANCH  17  19
ATOM     19  C9  UNL     1     -24.756  10.560 -37.979  0.00  0.00    +0.000 C 
ATOM     20  S2  UNL     1     -24.525  11.326 -39.453  0.00  0.00    +0.000 S 
BRANCH  19  21
ATOM     21  N6  UNL     1     -23.807   9.911 -37.194  0.00  0.00    +0.000 N 
ATOM     22  H11 UNL     1     -23.691  10.335 -36.282  0.00  0.00    +0.000 HD
BRANCH  21  23
ATOM     23  C10 UNL     1     -22.855   8.917 -37.505  0.00  0.00    +0.000 A 
ATOM     24  C11 UNL     1     -23.350   7.698 -37.990  0.00  0.00    +0.000 A 
ATOM     25  C12 UNL     1     -22.483   6.661 -38.347  0.00  0.00    +0.000 A 
ATOM     26  C13 UNL     1     -21.108   6.837 -38.238  0.00  0.00    +0.000 A 
ATOM     27  C14 UNL     1     -20.604   8.053 -37.782  0.00  0.00    +0.000 A 
ATOM     28  C15 UNL     1     -21.474   9.090 -37.425  0.00  0.00    +0.000 A 
ENDBRANCH  21  23
ENDBRANCH  19  21
ENDBRANCH  17  19
ENDBRANCH  15  17
ENDBRANCH   1  15
TORSDOF 9
ENDMDL
MODEL 2
REMARK VINA RESULT:    -5.239      1.562      5.713
REMARK INTER + INTRA:          -9.655
REMARK INTER:                  -8.524
REMARK INTRA:                  -1.131
REMARK UNBOUND:                -1.659
REMARK  Name = /home/anacleto/Desktop/manuscript_Mpro/naturecomm/supplementary_file_S2/6-chemical-library/molecular_docking/3D_ligand_structure/405.pdb
REMARK  9 active torsions:
REMARK  status: ('A' for Active; 'I' for Inactive)
REMARK    1  A    between atoms: C5_6  and  C6_7
REMARK    2  A    between atoms: C6_7  and  N2_9
REMARK    3  A    between atoms: N2_9  and  N3_10
REMARK    4  A    between atoms: N3_10  and  C8_11
REMARK    5  A    between atoms: C8_11  and  N4_13
REMARK    6  A    between atoms: N4_13  and  N5_14
REMARK    7  A    between atoms: N5_14  and  C9_15
REMARK    8  A    between atoms: C9_15  and  N6_17
REMARK    9  A    between atoms: N6_17  and  C10_18
REMARK                            x       y       z     vdW  Elec       q    Type
REMARK                         _______ _______ _______ _____ _____    ______ ____
ROOT
ATOM      1  C8  UNL     1     -28.000   9.467 -37.492  0.00  0.00    +0.000 C 
ATOM      2  S1  UNL     1     -28.491  10.715 -36.494  0.00  0.00    +0.000 S 
ENDROOT
BRANCH   1   3
ATOM      3  N3  UNL     1     -26.687   9.057 -37.499  0.00  0.00    +0.000 N 
ATOM      4  H8  UNL     1     -26.444   8.242 -38.069  0.00  0.00    +0.000 HD
BRANCH   3   5
ATOM      5  N2  UNL     1     -25.657   9.998 -37.335  0.00  0.00    +0.000 N 
ATOM      6  H7  UNL     1     -25.419  10.150 -36.352  0.00  0.00    +0.000 HD
BRANCH   5   7
ATOM      7  C6  UNL     1     -24.537   9.996 -38.160  0.00  0.00    +0.000 C 
ATOM      8  C7  UNL     1     -24.308  10.963 -39.065  0.00  0.00    +0.000 C 
BRANCH   7  14
ATOM      9  N1  UNL     1     -23.941   7.667 -38.443  0.00  0.00    +0.000 NA
ATOM     10  C1  UNL     1     -23.043   6.662 -38.346  0.00  0.00    +0.000 A 
ATOM     11  C2  UNL     1     -21.758   6.817 -37.854  0.00  0.00    +0.000 A 
ATOM     12  C3  UNL     1     -21.362   8.083 -37.435  0.00  0.00    +0.000 A 
ATOM     13  C4  UNL     1     -22.262   9.142 -37.522  0.00  0.00    +0.000 A 
ATOM     14  C5  UNL     1     -23.539   8.899 -38.024  0.00  0.00    +0.000 A 
ENDBRANCH   7  14
ENDBRANCH   5   7
ENDBRANCH   3   5
ENDBRANCH   1   3
BRANCH   1  15
ATOM     15  N4  UNL     1     -28.824   8.768 -38.344  0.00  0.00    +0.000 N 
ATOM     16  H9  UNL     1     -29.302   9.304 -39.067  0.00  0.00    +0.000 HD
BRANCH  15  17
ATOM     17  N5  UNL     1     -29.400   7.541 -37.973  0.00  0.00    +0.000 N 
ATOM     18  H10 UNL     1     -30.091   7.628 -37.229  0.00  0.00    +0.000 HD
BRANCH  17  19
ATOM     19  C9  UNL     1     -29.606   6.544 -38.935  0.00  0.00    +0.000 C 
ATOM     20  S2  UNL     1     -30.137   6.882 -40.489  0.00  0.00    +0.000 S 
BRANCH  19  21
ATOM     21  N6  UNL     1     -29.223   5.313 -38.410  0.00  0.00    +0.000 N 
ATOM     22  H11 UNL     1     -29.867   4.963 -37.712  0.00  0.00    +0.000 HD
BRANCH  21  23
ATOM     23  C10 UNL     1     -28.023   4.578 -38.524  0.00  0.00    +0.000 A 
ATOM     24  C11 UNL     1     -28.091   3.209 -38.227  0.00  0.00    +0.000 A 
ATOM     25  C12 UNL     1     -26.960   2.394 -38.333  0.00  0.00    +0.000 A 
ATOM     26  C13 UNL     1     -25.751   2.936 -38.755  0.00  0.00    +0.000 A 
ATOM     27  C14 UNL     1     -25.678   4.289 -39.079  0.00  0.00    +0.000 A 
ATOM     28  C15 UNL     1     -26.811   5.103 -38.972  0.00  0.00    +0.000 A 
ENDBRANCH  21  23
ENDBRANCH  19  21
ENDBRANCH  17  19
ENDBRANCH  15  17
ENDBRANCH   1  15
TORSDOF 9
ENDMDL
MODEL 3
REMARK VINA RESULT:    -5.225      1.769      5.721
REMARK INTER + INTRA:          -9.633
REMARK INTER:                  -7.746
REMARK INTRA:                  -1.887
REMARK UNBOUND:                -1.659
REMARK  Name = /home/anacleto/Desktop/manuscript_Mpro/naturecomm/supplementary_file_S2/6-chemical-library/molecular_docking/3D_ligand_structure/405.pdb
REMARK  9 active torsions:
REMARK  status: ('A' for Active; 'I' for Inactive)
REMARK    1  A    between atoms: C5_6  and  C6_7
REMARK    2  A    between atoms: C6_7  and  N2_9
REMARK    3  A    between atoms: N2_9  and  N3_10
REMARK    4  A    between atoms: N3_10  and  C8_11
REMARK    5  A    between atoms: C8_11  and  N4_13
REMARK    6  A    between atoms: N4_13  and  N5_14
REMARK    7  A    between atoms: N5_14  and  C9_15
REMARK    8  A    between atoms: C9_15  and  N6_17
REMARK    9  A    between atoms: N6_17  and  C10_18
REMARK                            x       y       z     vdW  Elec       q    Type
REMARK                         _______ _______ _______ _____ _____    ______ ____
ROOT
ATOM      1  C8  UNL     1     -26.396  10.533 -38.276  0.00  0.00    +0.000 C 
ATOM      2  S1  UNL     1     -27.524  11.427 -37.425  0.00  0.00    +0.000 S 
ENDROOT
BRANCH   1   3
ATOM      3  N3  UNL     1     -25.052  10.784 -38.124  0.00  0.00    +0.000 N 
ATOM      4  H8  UNL     1     -24.706  11.709 -38.396  0.00  0.00    +0.000 HD
BRANCH   3   5
ATOM      5  N2  UNL     1     -24.332  10.158 -37.093  0.00  0.00    +0.000 N 
ATOM      6  H7  UNL     1     -24.926   9.571 -36.502  0.00  0.00    +0.000 HD
BRANCH   5   7
ATOM      7  C6  UNL     1     -23.083   9.591 -37.323  0.00  0.00    +0.000 C 
ATOM      8  C7  UNL     1     -21.962  10.064 -36.755  0.00  0.00    +0.000 C 
BRANCH   7  14
ATOM      9  N1  UNL     1     -23.657   8.475 -39.394  0.00  0.00    +0.000 NA
ATOM     10  C1  UNL     1     -23.561   7.413 -40.225  0.00  0.00    +0.000 A 
ATOM     11  C2  UNL     1     -22.823   6.276 -39.944  0.00  0.00    +0.000 A 
ATOM     12  C3  UNL     1     -22.136   6.219 -38.737  0.00  0.00    +0.000 A 
ATOM     13  C4  UNL     1     -22.212   7.296 -37.857  0.00  0.00    +0.000 A 
ATOM     14  C5  UNL     1     -22.982   8.401 -38.214  0.00  0.00    +0.000 A 
ENDBRANCH   7  14
ENDBRANCH   5   7
ENDBRANCH   3   5
ENDBRANCH   1   3
BRANCH   1  15
ATOM     15  N4  UNL     1     -26.694   9.512 -39.150  0.00  0.00    +0.000 N 
ATOM     16  H9  UNL     1     -27.222   9.760 -39.984  0.00  0.00    +0.000 HD
BRANCH  15  17
ATOM     17  N5  UNL     1     -26.756   8.174 -38.727  0.00  0.00    +0.000 N 
ATOM     18  H10 UNL     1     -26.597   8.058 -37.728  0.00  0.00    +0.000 HD
BRANCH  17  19
ATOM     19  C9  UNL     1     -27.641   7.283 -39.349  0.00  0.00    +0.000 C 
ATOM     20  S2  UNL     1     -29.241   7.672 -39.667  0.00  0.00    +0.000 S 
BRANCH  19  21
ATOM     21  N6  UNL     1     -26.954   6.128 -39.707  0.00  0.00    +0.000 N 
ATOM     22  H11 UNL     1     -26.494   6.203 -40.606  0.00  0.00    +0.000 HD
BRANCH  21  23
ATOM     23  C10 UNL     1     -26.950   4.829 -39.152  0.00  0.00    +0.000 A 
ATOM     24  C11 UNL     1     -25.696   4.243 -38.926  0.00  0.00    +0.000 A 
ATOM     25  C12 UNL     1     -25.591   2.969 -38.359  0.00  0.00    +0.000 A 
ATOM     26  C13 UNL     1     -26.739   2.274 -37.996  0.00  0.00    +0.000 A 
ATOM     27  C14 UNL     1     -27.988   2.857 -38.191  0.00  0.00    +0.000 A 
ATOM     28  C15 UNL     1     -28.092   4.132 -38.759  0.00  0.00    +0.000 A 
ENDBRANCH  21  23
ENDBRANCH  19  21
ENDBRANCH  17  19
ENDBRANCH  15  17
ENDBRANCH   1  15
TORSDOF 9
ENDMDL
MODEL 4
REMARK VINA RESULT:    -5.174      1.402      6.058
REMARK INTER + INTRA:          -9.555
REMARK INTER:                  -8.254
REMARK INTRA:                  -1.301
REMARK UNBOUND:                -1.659
REMARK  Name = /home/anacleto/Desktop/manuscript_Mpro/naturecomm/supplementary_file_S2/6-chemical-library/molecular_docking/3D_ligand_structure/405.pdb
REMARK  9 active torsions:
REMARK  status: ('A' for Active; 'I' for Inactive)
REMARK    1  A    between atoms: C5_6  and  C6_7
REMARK    2  A    between atoms: C6_7  and  N2_9
REMARK    3  A    between atoms: N2_9  and  N3_10
REMARK    4  A    between atoms: N3_10  and  C8_11
REMARK    5  A    between atoms: C8_11  and  N4_13
REMARK    6  A    between atoms: N4_13  and  N5_14
REMARK    7  A    between atoms: N5_14  and  C9_15
REMARK    8  A    between atoms: C9_15  and  N6_17
REMARK    9  A    between atoms: N6_17  and  C10_18
REMARK                            x       y       z     vdW  Elec       q    Type
REMARK                         _______ _______ _______ _____ _____    ______ ____
ROOT
ATOM      1  C8  UNL     1     -25.261  10.874 -38.657  0.00  0.00    +0.000 C 
ATOM      2  S1  UNL     1     -26.009  10.859 -40.153  0.00  0.00    +0.000 S 
ENDROOT
BRANCH   1   3
ATOM      3  N3  UNL     1     -23.964  11.314 -38.534  0.00  0.00    +0.000 N 
ATOM      4  H8  UNL     1     -23.732  11.893 -37.722  0.00  0.00    +0.000 HD
BRANCH   3   5
ATOM      5  N2  UNL     1     -22.907  10.534 -39.031  0.00  0.00    +0.000 N 
ATOM      6  H7  UNL     1     -22.307  11.053 -39.676  0.00  0.00    +0.000 HD
BRANCH   5   7
ATOM      7  C6  UNL     1     -22.186   9.679 -38.203  0.00  0.00    +0.000 C 
ATOM      8  C7  UNL     1     -21.150  10.102 -37.460  0.00  0.00    +0.000 C 
BRANCH   7  14
ATOM      9  N1  UNL     1     -23.900   7.977 -38.353  0.00  0.00    +0.000 NA
ATOM     10  C1  UNL     1     -24.281   6.681 -38.297  0.00  0.00    +0.000 A 
ATOM     11  C2  UNL     1     -23.420   5.634 -38.017  0.00  0.00    +0.000 A 
ATOM     12  C3  UNL     1     -22.081   5.927 -37.782  0.00  0.00    +0.000 A 
ATOM     13  C4  UNL     1     -21.655   7.252 -37.832  0.00  0.00    +0.000 A 
ATOM     14  C5  UNL     1     -22.588   8.247 -38.115  0.00  0.00    +0.000 A 
ENDBRANCH   7  14
ENDBRANCH   5   7
ENDBRANCH   3   5
ENDBRANCH   1   3
BRANCH   1  15
ATOM     15  N4  UNL     1     -25.848  10.478 -37.478  0.00  0.00    +0.000 N 
ATOM     16  H9  UNL     1     -25.362  10.722 -36.617  0.00  0.00    +0.000 HD
BRANCH  15  17
ATOM     17  N5  UNL     1     -26.738   9.391 -37.424  0.00  0.00    +0.000 N 
ATOM     18  H10 UNL     1     -26.328   8.553 -37.015  0.00  0.00    +0.000 HD
BRANCH  17  19
ATOM     19  C9  UNL     1     -28.104   9.615 -37.210  0.00  0.00    +0.000 C 
ATOM     20  S2  UNL     1     -28.675  10.762 -36.128  0.00  0.00    +0.000 S 
BRANCH  19  21
ATOM     21  N6  UNL     1     -28.842   8.815 -38.077  0.00  0.00    +0.000 N 
ATOM     22  H11 UNL     1     -29.602   9.312 -38.524  0.00  0.00    +0.000 HD
BRANCH  21  23
ATOM     23  C10 UNL     1     -28.849   7.419 -38.288  0.00  0.00    +0.000 A 
ATOM     24  C11 UNL     1     -29.976   6.717 -37.834  0.00  0.00    +0.000 A 
ATOM     25  C12 UNL     1     -30.083   5.335 -38.018  0.00  0.00    +0.000 A 
ATOM     26  C13 UNL     1     -29.072   4.641 -38.674  0.00  0.00    +0.000 A 
ATOM     27  C14 UNL     1     -27.961   5.332 -39.152  0.00  0.00    +0.000 A 
ATOM     28  C15 UNL     1     -27.855   6.715 -38.967  0.00  0.00    +0.000 A 
ENDBRANCH  21  23
ENDBRANCH  19  21
ENDBRANCH  17  19
ENDBRANCH  15  17
ENDBRANCH   1  15
TORSDOF 9
ENDMDL
MODEL 5
REMARK VINA RESULT:    -5.126     15.925     17.865
REMARK INTER + INTRA:          -9.483
REMARK INTER:                  -6.766
REMARK INTRA:                  -2.717
REMARK UNBOUND:                -1.659
REMARK  Name = /home/anacleto/Desktop/manuscript_Mpro/naturecomm/supplementary_file_S2/6-chemical-library/molecular_docking/3D_ligand_structure/405.pdb
REMARK  9 active torsions:
REMARK  status: ('A' for Active; 'I' for Inactive)
REMARK    1  A    between atoms: C5_6  and  C6_7
REMARK    2  A    between atoms: C6_7  and  N2_9
REMARK    3  A    between atoms: N2_9  and  N3_10
REMARK    4  A    between atoms: N3_10  and  C8_11
REMARK    5  A    between atoms: C8_11  and  N4_13
REMARK    6  A    between atoms: N4_13  and  N5_14
REMARK    7  A    between atoms: N5_14  and  C9_15
REMARK    8  A    between atoms: C9_15  and  N6_17
REMARK    9  A    between atoms: N6_17  and  C10_18
REMARK                            x       y       z     vdW  Elec       q    Type
REMARK                         _______ _______ _______ _____ _____    ______ ____
ROOT
ATOM      1  C8  UNL     1     -19.439  -4.870 -27.140  0.00  0.00    +0.000 C 
ATOM      2  S1  UNL     1     -18.248  -4.320 -26.103  0.00  0.00    +0.000 S 
ENDROOT
BRANCH   1   3
ATOM      3  N3  UNL     1     -20.595  -5.423 -26.639  0.00  0.00    +0.000 N 
ATOM      4  H8  UNL     1     -20.660  -6.444 -26.604  0.00  0.00    +0.000 HD
BRANCH   3   5
ATOM      5  N2  UNL     1     -21.327  -4.744 -25.651  0.00  0.00    +0.000 N 
ATOM      6  H7  UNL     1     -21.027  -3.773 -25.539  0.00  0.00    +0.000 HD
BRANCH   5   7
ATOM      7  C6  UNL     1     -22.706  -4.891 -25.542  0.00  0.00    +0.000 C 
ATOM      8  C7  UNL     1     -23.288  -5.450 -24.468  0.00  0.00    +0.000 C 
BRANCH   7  14
ATOM      9  N1  UNL     1     -22.935  -3.888 -27.734  0.00  0.00    +0.000 NA
ATOM     10  C1  UNL     1     -23.706  -3.447 -28.752  0.00  0.00    +0.000 A 
ATOM     11  C2  UNL     1     -25.090  -3.483 -28.745  0.00  0.00    +0.000 A 
ATOM     12  C3  UNL     1     -25.729  -4.005 -27.626  0.00  0.00    +0.000 A 
ATOM     13  C4  UNL     1     -24.965  -4.469 -26.559  0.00  0.00    +0.000 A 
ATOM     14  C5  UNL     1     -23.576  -4.391 -26.644  0.00  0.00    +0.000 A 
ENDBRANCH   7  14
ENDBRANCH   5   7
ENDBRANCH   3   5
ENDBRANCH   1   3
BRANCH   1  15
ATOM     15  N4  UNL     1     -19.378  -4.813 -28.513  0.00  0.00    +0.000 N 
ATOM     16  H9  UNL     1     -18.547  -4.386 -28.920  0.00  0.00    +0.000 HD
BRANCH  15  17
ATOM     17  N5  UNL     1     -20.538  -4.837 -29.305  0.00  0.00    +0.000 N 
ATOM     18  H10 UNL     1     -20.859  -3.909 -29.580  0.00  0.00    +0.000 HD
BRANCH  17  19
ATOM     19  C9  UNL     1     -20.749  -5.888 -30.206  0.00  0.00    +0.000 C 
ATOM     20  S2  UNL     1     -20.184  -5.854 -31.785  0.00  0.00    +0.000 S 
BRANCH  19  21
ATOM     21  N6  UNL     1     -21.397  -6.931 -29.552  0.00  0.00    +0.000 N 
ATOM     22  H11 UNL     1     -20.796  -7.728 -29.385  0.00  0.00    +0.000 HD
BRANCH  21  23
ATOM     23  C10 UNL     1     -22.762  -7.155 -29.266  0.00  0.00    +0.000 A 
ATOM     24  C11 UNL     1     -23.060  -7.736 -28.025  0.00  0.00    +0.000 A 
ATOM     25  C12 UNL     1     -24.383  -7.975 -27.643  0.00  0.00    +0.000 A 
ATOM     26  C13 UNL     1     -25.426  -7.620 -28.492  0.00  0.00    +0.000 A 
ATOM     27  C14 UNL     1     -25.143  -7.018 -29.716  0.00  0.00    +0.000 A 
ATOM     28  C15 UNL     1     -23.817  -6.780 -30.096  0.00  0.00    +0.000 A 
ENDBRANCH  21  23
ENDBRANCH  19  21
ENDBRANCH  17  19
ENDBRANCH  15  17
ENDBRANCH   1  15
TORSDOF 9
ENDMDL
MODEL 6
REMARK VINA RESULT:    -5.095     16.932     18.509
REMARK INTER + INTRA:          -9.435
REMARK INTER:                  -8.783
REMARK INTRA:                  -0.652
REMARK UNBOUND:                -1.659
REMARK  Name = /home/anacleto/Desktop/manuscript_Mpro/naturecomm/supplementary_file_S2/6-chemical-library/molecular_docking/3D_ligand_structure/405.pdb
REMARK  9 active torsions:
REMARK  status: ('A' for Active; 'I' for Inactive)
REMARK    1  A    between atoms: C5_6  and  C6_7
REMARK    2  A    between atoms: C6_7  and  N2_9
REMARK    3  A    between atoms: N2_9  and  N3_10
REMARK    4  A    between atoms: N3_10  and  C8_11
REMARK    5  A    between atoms: C8_11  and  N4_13
REMARK    6  A    between atoms: N4_13  and  N5_14
REMARK    7  A    between atoms: N5_14  and  C9_15
REMARK    8  A    between atoms: C9_15  and  N6_17
REMARK    9  A    between atoms: N6_17  and  C10_18
REMARK                            x       y       z     vdW  Elec       q    Type
REMARK                         _______ _______ _______ _____ _____    ______ ____
ROOT
ATOM      1  C8  UNL     1     -30.082  -6.750 -25.733  0.00  0.00    +0.000 C 
ATOM      2  S1  UNL     1     -29.327  -8.229 -25.536  0.00  0.00    +0.000 S 
ENDROOT
BRANCH   1   3
ATOM      3  N3  UNL     1     -31.443  -6.684 -25.921  0.00  0.00    +0.000 N 
ATOM      4  H8  UNL     1     -31.971  -7.561 -25.902  0.00  0.00    +0.000 HD
BRANCH   3   5
ATOM      5  N2  UNL     1     -32.156  -5.550 -25.497  0.00  0.00    +0.000 N 
ATOM      6  H7  UNL     1     -31.748  -4.679 -25.843  0.00  0.00    +0.000 HD
BRANCH   5   7
ATOM      7  C6  UNL     1     -33.546  -5.526 -25.503  0.00  0.00    +0.000 C 
ATOM      8  C7  UNL     1     -34.286  -6.645 -25.570  0.00  0.00    +0.000 C 
BRANCH   7  14
ATOM      9  N1  UNL     1     -35.598  -4.268 -25.243  0.00  0.00    +0.000 NA
ATOM     10  C1  UNL     1     -36.252  -3.090 -25.135  0.00  0.00    +0.000 A 
ATOM     11  C2  UNL     1     -35.629  -1.854 -25.180  0.00  0.00    +0.000 A 
ATOM     12  C3  UNL     1     -34.249  -1.818 -25.344  0.00  0.00    +0.000 A 
ATOM     13  C4  UNL     1     -33.544  -3.013 -25.458  0.00  0.00    +0.000 A 
ATOM     14  C5  UNL     1     -34.248  -4.215 -25.408  0.00  0.00    +0.000 A 
ENDBRANCH   7  14
ENDBRANCH   5   7
ENDBRANCH   3   5
ENDBRANCH   1   3
BRANCH   1  15
ATOM     15  N4  UNL     1     -29.444  -5.531 -25.715  0.00  0.00    +0.000 N 
ATOM     16  H9  UNL     1     -29.559  -4.963 -24.877  0.00  0.00    +0.000 HD
BRANCH  15  17
ATOM     17  N5  UNL     1     -29.103  -4.859 -26.901  0.00  0.00    +0.000 N 
ATOM     18  H10 UNL     1     -29.840  -4.245 -27.244  0.00  0.00    +0.000 HD
BRANCH  17  19
ATOM     19  C9  UNL     1     -27.777  -4.469 -27.129  0.00  0.00    +0.000 C 
ATOM     20  S2  UNL     1     -27.330  -3.492 -28.416  0.00  0.00    +0.000 S 
BRANCH  19  21
ATOM     21  N6  UNL     1     -26.974  -4.946 -26.098  0.00  0.00    +0.000 N 
ATOM     22  H11 UNL     1     -27.502  -5.210 -25.275  0.00  0.00    +0.000 HD
BRANCH  21  23
ATOM     23  C10 UNL     1     -25.574  -4.939 -25.920  0.00  0.00    +0.000 A 
ATOM     24  C11 UNL     1     -24.874  -6.065 -26.375  0.00  0.00    +0.000 A 
ATOM     25  C12 UNL     1     -23.482  -6.140 -26.262  0.00  0.00    +0.000 A 
ATOM     26  C13 UNL     1     -22.772  -5.079 -25.709  0.00  0.00    +0.000 A 
ATOM     27  C14 UNL     1     -23.454  -3.944 -25.279  0.00  0.00    +0.000 A 
ATOM     28  C15 UNL     1     -24.848  -3.872 -25.392  0.00  0.00    +0.000 A 
ENDBRANCH  21  23
ENDBRANCH  19  21
ENDBRANCH  17  19
ENDBRANCH  15  17
ENDBRANCH   1  15
TORSDOF 9
ENDMDL
MODEL 7
REMARK VINA RESULT:    -4.985      6.355      8.882
REMARK INTER + INTRA:          -9.267
REMARK INTER:                  -8.609
REMARK INTRA:                  -0.657
REMARK UNBOUND:                -1.659
REMARK  Name = /home/anacleto/Desktop/manuscript_Mpro/naturecomm/supplementary_file_S2/6-chemical-library/molecular_docking/3D_ligand_structure/405.pdb
REMARK  9 active torsions:
REMARK  status: ('A' for Active; 'I' for Inactive)
REMARK    1  A    between atoms: C5_6  and  C6_7
REMARK    2  A    between atoms: C6_7  and  N2_9
REMARK    3  A    between atoms: N2_9  and  N3_10
REMARK    4  A    between atoms: N3_10  and  C8_11
REMARK    5  A    between atoms: C8_11  and  N4_13
REMARK    6  A    between atoms: N4_13  and  N5_14
REMARK    7  A    between atoms: N5_14  and  C9_15
REMARK    8  A    between atoms: C9_15  and  N6_17
REMARK    9  A    between atoms: N6_17  and  C10_18
REMARK                            x       y       z     vdW  Elec       q    Type
REMARK                         _______ _______ _______ _____ _____    ______ ____
ROOT
ATOM      1  C8  UNL     1     -18.696   7.955 -39.830  0.00  0.00    +0.000 C 
ATOM      2  S1  UNL     1     -19.402   6.576 -40.458  0.00  0.00    +0.000 S 
ENDROOT
BRANCH   1   3
ATOM      3  N3  UNL     1     -19.430   8.820 -39.052  0.00  0.00    +0.000 N 
ATOM      4  H8  UNL     1     -19.947   9.566 -39.525  0.00  0.00    +0.000 HD
BRANCH   3   5
ATOM      5  N2  UNL     1     -19.999   8.370 -37.848  0.00  0.00    +0.000 N 
ATOM      6  H7  UNL     1     -19.359   8.457 -37.056  0.00  0.00    +0.000 HD
BRANCH   5   7
ATOM      7  C6  UNL     1     -21.312   8.681 -37.509  0.00  0.00    +0.000 C 
ATOM      8  C7  UNL     1     -21.642   9.819 -36.876  0.00  0.00    +0.000 C 
BRANCH   7  14
ATOM      9  N1  UNL     1     -23.568   8.293 -38.296  0.00  0.00    +0.000 NA
ATOM     10  C1  UNL     1     -24.561   7.449 -38.656  0.00  0.00    +0.000 A 
ATOM     11  C2  UNL     1     -24.452   6.069 -38.623  0.00  0.00    +0.000 A 
ATOM     12  C3  UNL     1     -23.250   5.513 -38.199  0.00  0.00    +0.000 A 
ATOM     13  C4  UNL     1     -22.206   6.354 -37.822  0.00  0.00    +0.000 A 
ATOM     14  C5  UNL     1     -22.400   7.732 -37.879  0.00  0.00    +0.000 A 
ENDBRANCH   7  14
ENDBRANCH   5   7
ENDBRANCH   3   5
ENDBRANCH   1   3
BRANCH   1  15
ATOM     15  N4  UNL     1     -17.383   8.324 -40.016  0.00  0.00    +0.000 N 
ATOM     16  H9  UNL     1     -16.861   7.823 -40.732  0.00  0.00    +0.000 HD
BRANCH  15  17
ATOM     17  N5  UNL     1     -16.639   8.944 -38.998  0.00  0.00    +0.000 N 
ATOM     18  H10 UNL     1     -16.452   8.333 -38.205  0.00  0.00    +0.000 HD
BRANCH  17  19
ATOM     19  C9  UNL     1     -15.667   9.899 -39.323  0.00  0.00    +0.000 C 
ATOM     20  S2  UNL     1     -16.048  11.492 -39.681  0.00  0.00    +0.000 S 
BRANCH  19  21
ATOM     21  N6  UNL     1     -14.404   9.326 -39.209  0.00  0.00    +0.000 N 
ATOM     22  H11 UNL     1     -14.271   8.831 -38.336  0.00  0.00    +0.000 HD
BRANCH  21  23
ATOM     23  C10 UNL     1     -13.233   9.477 -39.982  0.00  0.00    +0.000 A 
ATOM     24  C11 UNL     1     -12.905   8.422 -40.845  0.00  0.00    +0.000 A 
ATOM     25  C12 UNL     1     -11.776   8.490 -41.667  0.00  0.00    +0.000 A 
ATOM     26  C13 UNL     1     -10.970   9.623 -41.648  0.00  0.00    +0.000 A 
ATOM     27  C14 UNL     1     -11.301  10.689 -40.814  0.00  0.00    +0.000 A 
ATOM     28  C15 UNL     1     -12.431  10.619 -39.992  0.00  0.00    +0.000 A 
ENDBRANCH  21  23
ENDBRANCH  19  21
ENDBRANCH  17  19
ENDBRANCH  15  17
ENDBRANCH   1  15
TORSDOF 9
ENDMDL
MODEL 8
REMARK VINA RESULT:    -4.941     15.880     17.527
REMARK INTER + INTRA:          -9.199
REMARK INTER:                  -6.544
REMARK INTRA:                  -2.655
REMARK UNBOUND:                -1.659
REMARK  Name = /home/anacleto/Desktop/manuscript_Mpro/naturecomm/supplementary_file_S2/6-chemical-library/molecular_docking/3D_ligand_structure/405.pdb
REMARK  9 active torsions:
REMARK  status: ('A' for Active; 'I' for Inactive)
REMARK    1  A    between atoms: C5_6  and  C6_7
REMARK    2  A    between atoms: C6_7  and  N2_9
REMARK    3  A    between atoms: N2_9  and  N3_10
REMARK    4  A    between atoms: N3_10  and  C8_11
REMARK    5  A    between atoms: C8_11  and  N4_13
REMARK    6  A    between atoms: N4_13  and  N5_14
REMARK    7  A    between atoms: N5_14  and  C9_15
REMARK    8  A    between atoms: C9_15  and  N6_17
REMARK    9  A    between atoms: N6_17  and  C10_18
REMARK                            x       y       z     vdW  Elec       q    Type
REMARK                         _______ _______ _______ _____ _____    ______ ____
ROOT
ATOM      1  C8  UNL     1     -19.931  -6.388 -30.952  0.00  0.00    +0.000 C 
ATOM      2  S1  UNL     1     -18.858  -7.658 -31.131  0.00  0.00    +0.000 S 
ENDROOT
BRANCH   1   3
ATOM      3  N3  UNL     1     -21.159  -6.423 -31.573  0.00  0.00    +0.000 N 
ATOM      4  H8  UNL     1     -21.377  -7.239 -32.153  0.00  0.00    +0.000 HD
BRANCH   3   5
ATOM      5  N2  UNL     1     -22.267  -5.804 -30.972  0.00  0.00    +0.000 N 
ATOM      6  H7  UNL     1     -22.582  -4.980 -31.488  0.00  0.00    +0.000 HD
BRANCH   5   7
ATOM      7  C6  UNL     1     -23.325  -6.550 -30.463  0.00  0.00    +0.000 C 
ATOM      8  C7  UNL     1     -24.475  -6.720 -31.135  0.00  0.00    +0.000 C 
BRANCH   7  14
ATOM      9  N1  UNL     1     -21.899  -7.358 -28.681  0.00  0.00    +0.000 NA
ATOM     10  C1  UNL     1     -21.741  -7.934 -27.469  0.00  0.00    +0.000 A 
ATOM     11  C2  UNL     1     -22.790  -8.371 -26.678  0.00  0.00    +0.000 A 
ATOM     12  C3  UNL     1     -24.086  -8.205 -27.154  0.00  0.00    +0.000 A 
ATOM     13  C4  UNL     1     -24.285  -7.614 -28.399  0.00  0.00    +0.000 A 
ATOM     14  C5  UNL     1     -23.174  -7.208 -29.135  0.00  0.00    +0.000 A 
ENDBRANCH   7  14
ENDBRANCH   5   7
ENDBRANCH   3   5
ENDBRANCH   1   3
BRANCH   1  15
ATOM     15  N4  UNL     1     -19.700  -5.259 -30.200  0.00  0.00    +0.000 N 
ATOM     16  H9  UNL     1     -19.367  -4.435 -30.698  0.00  0.00    +0.000 HD
BRANCH  15  17
ATOM     17  N5  UNL     1     -19.421  -5.333 -28.825  0.00  0.00    +0.000 N 
ATOM     18  H10 UNL     1     -18.618  -5.922 -28.607  0.00  0.00    +0.000 HD
BRANCH  17  19
ATOM     19  C9  UNL     1     -19.651  -4.223 -28.003  0.00  0.00    +0.000 C 
ATOM     20  S2  UNL     1     -18.529  -3.678 -26.883  0.00  0.00    +0.000 S 
BRANCH  19  21
ATOM     21  N6  UNL     1     -20.873  -3.648 -28.339  0.00  0.00    +0.000 N 
ATOM     22  H11 UNL     1     -20.780  -2.852 -28.958  0.00  0.00    +0.000 HD
BRANCH  21  23
ATOM     23  C10 UNL     1     -22.174  -3.843 -27.826  0.00  0.00    +0.000 A 
ATOM     24  C11 UNL     1     -23.242  -3.454 -28.647  0.00  0.00    +0.000 A 
ATOM     25  C12 UNL     1     -24.566  -3.628 -28.234  0.00  0.00    +0.000 A 
ATOM     26  C13 UNL     1     -24.838  -4.210 -27.000  0.00  0.00    +0.000 A 
ATOM     27  C14 UNL     1     -23.785  -4.624 -26.187  0.00  0.00    +0.000 A 
ATOM     28  C15 UNL     1     -22.461  -4.448 -26.602  0.00  0.00    +0.000 A 
ENDBRANCH  21  23
ENDBRANCH  19  21
ENDBRANCH  17  19
ENDBRANCH  15  17
ENDBRANCH   1  15
TORSDOF 9
ENDMDL
MODEL 9
REMARK VINA RESULT:    -4.925      2.795      3.879
REMARK INTER + INTRA:          -9.175
REMARK INTER:                  -7.516
REMARK INTRA:                  -1.659
REMARK UNBOUND:                -1.659
REMARK  Name = /home/anacleto/Desktop/manuscript_Mpro/naturecomm/supplementary_file_S2/6-chemical-library/molecular_docking/3D_ligand_structure/405.pdb
REMARK  9 active torsions:
REMARK  status: ('A' for Active; 'I' for Inactive)
REMARK    1  A    between atoms: C5_6  and  C6_7
REMARK    2  A    between atoms: C6_7  and  N2_9
REMARK    3  A    between atoms: N2_9  and  N3_10
REMARK    4  A    between atoms: N3_10  and  C8_11
REMARK    5  A    between atoms: C8_11  and  N4_13
REMARK    6  A    between atoms: N4_13  and  N5_14
REMARK    7  A    between atoms: N5_14  and  C9_15
REMARK    8  A    between atoms: C9_15  and  N6_17
REMARK    9  A    between atoms: N6_17  and  C10_18
REMARK                            x       y       z     vdW  Elec       q    Type
REMARK                         _______ _______ _______ _____ _____    ______ ____
ROOT
ATOM      1  C8  UNL     1     -29.962   5.895 -39.618  0.00  0.00    +0.000 C 
ATOM      2  S1  UNL     1     -30.892   6.826 -40.650  0.00  0.00    +0.000 S 
ENDROOT
BRANCH   1   3
ATOM      3  N3  UNL     1     -30.209   4.548 -39.485  0.00  0.00    +0.000 N 
ATOM      4  H8  UNL     1     -30.945   4.260 -38.834  0.00  0.00    +0.000 HD
BRANCH   3   5
ATOM      5  N2  UNL     1     -30.004   3.685 -40.574  0.00  0.00    +0.000 N 
ATOM      6  H7  UNL     1     -29.800   4.190 -41.440  0.00  0.00    +0.000 HD
BRANCH   5   7
ATOM      7  C6  UNL     1     -29.251   2.523 -40.445  0.00  0.00    +0.000 C 
ATOM      8  C7  UNL     1     -29.663   1.340 -40.929  0.00  0.00    +0.000 C 
BRANCH   7  14
ATOM      9  N1  UNL     1     -27.947   2.613 -38.407  0.00  0.00    +0.000 NA
ATOM     10  C1  UNL     1     -26.755   2.654 -37.773  0.00  0.00    +0.000 A 
ATOM     11  C2  UNL     1     -25.533   2.673 -38.425  0.00  0.00    +0.000 A 
ATOM     12  C3  UNL     1     -25.528   2.644 -39.815  0.00  0.00    +0.000 A 
ATOM     13  C4  UNL     1     -26.740   2.601 -40.500  0.00  0.00    +0.000 A 
ATOM     14  C5  UNL     1     -27.925   2.591 -39.768  0.00  0.00    +0.000 A 
ENDBRANCH   7  14
ENDBRANCH   5   7
ENDBRANCH   3   5
ENDBRANCH   1   3
BRANCH   1  15
ATOM     15  N4  UNL     1     -28.916   6.366 -38.858  0.00  0.00    +0.000 N 
ATOM     16  H9  UNL     1     -29.025   7.291 -38.447  0.00  0.00    +0.000 HD
BRANCH  15  17
ATOM     17  N5  UNL     1     -27.604   5.896 -39.038  0.00  0.00    +0.000 N 
ATOM     18  H10 UNL     1     -27.557   5.011 -39.542  0.00  0.00    +0.000 HD
BRANCH  17  19
ATOM     19  C9  UNL     1     -26.554   6.804 -39.225  0.00  0.00    +0.000 C 
ATOM     20  S2  UNL     1     -26.709   8.444 -38.907  0.00  0.00    +0.000 S 
BRANCH  19  21
ATOM     21  N6  UNL     1     -25.411   6.112 -39.613  0.00  0.00    +0.000 N 
ATOM     22  H11 UNL     1     -25.612   5.315 -40.204  0.00  0.00    +0.000 HD
BRANCH  21  23
ATOM     23  C10 UNL     1     -24.071   6.197 -39.178  0.00  0.00    +0.000 A 
ATOM     24  C11 UNL     1     -23.192   6.939 -39.980  0.00  0.00    +0.000 A 
ATOM     25  C12 UNL     1     -21.850   7.098 -39.620  0.00  0.00    +0.000 A 
ATOM     26  C13 UNL     1     -21.376   6.530 -38.442  0.00  0.00    +0.000 A 
ATOM     27  C14 UNL     1     -22.246   5.814 -37.624  0.00  0.00    +0.000 A 
ATOM     28  C15 UNL     1     -23.588   5.655 -37.987  0.00  0.00    +0.000 A 
ENDBRANCH  21  23
ENDBRANCH  19  21
ENDBRANCH  17  19
ENDBRANCH  15  17
ENDBRANCH   1  15
TORSDOF 9
ENDMDL
