MODEL 1
REMARK VINA RESULT:    -4.150      0.000      0.000
REMARK INTER + INTRA:          -4.150
REMARK INTER:                  -4.150
REMARK INTRA:                   0.000
REMARK UNBOUND:                 0.000
REMARK  Name = /home/anacleto/Desktop/manuscript_Mpro/naturecomm/supplementary_file_S2/6-chemical-library/molecular_docking/3D_ligand_structure/220.pdb
REMARK  0 active torsions:
REMARK  status: ('A' for Active; 'I' for Inactive)
REMARK                            x       y       z     vdW  Elec       q    Type
REMARK                         _______ _______ _______ _____ _____    ______ ____
ROOT
ATOM      1  C1  UNL     1     -27.305  -5.662 -25.455  0.00  0.00    +0.000 A 
ATOM      2  N1  UNL     1     -28.621  -5.901 -25.554  0.00  0.00    +0.000 NA
ATOM      3  N2  UNL     1     -29.001  -5.160 -26.622  0.00  0.00    +0.000 N 
ATOM      4  C2  UNL     1     -27.971  -4.471 -27.189  0.00  0.00    +0.000 A 
ATOM      5  C3  UNL     1     -26.860  -4.782 -26.447  0.00  0.00    +0.000 A 
ATOM      6  N3  UNL     1     -28.055  -3.653 -28.266  0.00  0.00    +0.000 NA
ATOM      7  C4  UNL     1     -26.906  -3.133 -28.579  0.00  0.00    +0.000 A 
ATOM      8  N4  UNL     1     -25.715  -3.364 -27.914  0.00  0.00    +0.000 N 
ATOM      9  C5  UNL     1     -25.605  -4.195 -26.813  0.00  0.00    +0.000 A 
ATOM     10  O1  UNL     1     -24.546  -4.394 -26.231  0.00  0.00    +0.000 OA
ATOM     11  H2  UNL     1     -29.973  -5.170 -26.911  0.00  0.00    +0.000 HD
ATOM     12  H4  UNL     1     -24.861  -2.922 -28.219  0.00  0.00    +0.000 HD
ENDROOT
TORSDOF 0
ENDMDL
MODEL 2
REMARK VINA RESULT:    -4.138     16.736     18.190
REMARK INTER + INTRA:          -4.138
REMARK INTER:                  -4.138
REMARK INTRA:                   0.000
REMARK UNBOUND:                 0.000
REMARK  Name = /home/anacleto/Desktop/manuscript_Mpro/naturecomm/supplementary_file_S2/6-chemical-library/molecular_docking/3D_ligand_structure/220.pdb
REMARK  0 active torsions:
REMARK  status: ('A' for Active; 'I' for Inactive)
REMARK                            x       y       z     vdW  Elec       q    Type
REMARK                         _______ _______ _______ _____ _____    ______ ____
ROOT
ATOM      1  C1  UNL     1     -22.297   7.207 -37.597  0.00  0.00    +0.000 A 
ATOM      2  N1  UNL     1     -21.790   6.097 -38.154  0.00  0.00    +0.000 NA
ATOM      3  N2  UNL     1     -20.573   6.490 -38.598  0.00  0.00    +0.000 N 
ATOM      4  C2  UNL     1     -20.306   7.801 -38.338  0.00  0.00    +0.000 A 
ATOM      5  C3  UNL     1     -21.413   8.286 -37.688  0.00  0.00    +0.000 A 
ATOM      6  N3  UNL     1     -19.172   8.465 -38.665  0.00  0.00    +0.000 NA
ATOM      7  C4  UNL     1     -19.203   9.708 -38.288  0.00  0.00    +0.000 A 
ATOM      8  N4  UNL     1     -20.255  10.318 -37.628  0.00  0.00    +0.000 N 
ATOM      9  C5  UNL     1     -21.423   9.660 -37.283  0.00  0.00    +0.000 A 
ATOM     10  O1  UNL     1     -22.349  10.209 -36.698  0.00  0.00    +0.000 OA
ATOM     11  H2  UNL     1     -19.976   5.818 -39.068  0.00  0.00    +0.000 HD
ATOM     12  H4  UNL     1     -20.204  11.291 -37.367  0.00  0.00    +0.000 HD
ENDROOT
TORSDOF 0
ENDMDL
MODEL 3
REMARK VINA RESULT:    -4.002      1.843      2.947
REMARK INTER + INTRA:          -4.002
REMARK INTER:                  -4.002
REMARK INTRA:                   0.000
REMARK UNBOUND:                 0.000
REMARK  Name = /home/anacleto/Desktop/manuscript_Mpro/naturecomm/supplementary_file_S2/6-chemical-library/molecular_docking/3D_ligand_structure/220.pdb
REMARK  0 active torsions:
REMARK  status: ('A' for Active; 'I' for Inactive)
REMARK                            x       y       z     vdW  Elec       q    Type
REMARK                         _______ _______ _______ _____ _____    ______ ____
ROOT
ATOM      1  C1  UNL     1     -25.477  -4.936 -25.702  0.00  0.00    +0.000 A 
ATOM      2  N1  UNL     1     -24.335  -4.349 -26.088  0.00  0.00    +0.000 NA
ATOM      3  N2  UNL     1     -24.689  -3.657 -27.197  0.00  0.00    +0.000 N 
ATOM      4  C2  UNL     1     -26.008  -3.792 -27.513  0.00  0.00    +0.000 A 
ATOM      5  C3  UNL     1     -26.540  -4.619 -26.555  0.00  0.00    +0.000 A 
ATOM      6  N3  UNL     1     -26.641  -3.217 -28.563  0.00  0.00    +0.000 NA
ATOM      7  C4  UNL     1     -27.902  -3.529 -28.609  0.00  0.00    +0.000 A 
ATOM      8  N4  UNL     1     -28.556  -4.350 -27.709  0.00  0.00    +0.000 N 
ATOM      9  C5  UNL     1     -27.932  -4.948 -26.628  0.00  0.00    +0.000 A 
ATOM     10  O1  UNL     1     -28.521  -5.673 -25.836  0.00  0.00    +0.000 OA
ATOM     11  H2  UNL     1     -23.988  -3.115 -27.688  0.00  0.00    +0.000 HD
ATOM     12  H4  UNL     1     -29.541  -4.545 -27.812  0.00  0.00    +0.000 HD
ENDROOT
TORSDOF 0
ENDMDL
MODEL 4
REMARK VINA RESULT:    -4.002     17.470     18.330
REMARK INTER + INTRA:          -4.002
REMARK INTER:                  -4.002
REMARK INTRA:                   0.000
REMARK UNBOUND:                 0.000
REMARK  Name = /home/anacleto/Desktop/manuscript_Mpro/naturecomm/supplementary_file_S2/6-chemical-library/molecular_docking/3D_ligand_structure/220.pdb
REMARK  0 active torsions:
REMARK  status: ('A' for Active; 'I' for Inactive)
REMARK                            x       y       z     vdW  Elec       q    Type
REMARK                         _______ _______ _______ _____ _____    ______ ____
ROOT
ATOM      1  C1  UNL     1     -22.104   8.955 -37.136  0.00  0.00    +0.000 A 
ATOM      2  N1  UNL     1     -21.672  10.211 -36.951  0.00  0.00    +0.000 NA
ATOM      3  N2  UNL     1     -20.462  10.226 -37.558  0.00  0.00    +0.000 N 
ATOM      4  C2  UNL     1     -20.127   9.027 -38.113  0.00  0.00    +0.000 A 
ATOM      5  C3  UNL     1     -21.180   8.186 -37.851  0.00  0.00    +0.000 A 
ATOM      6  N3  UNL     1     -18.983   8.748 -38.782  0.00  0.00    +0.000 NA
ATOM      7  C4  UNL     1     -18.943   7.518 -39.198  0.00  0.00    +0.000 A 
ATOM      8  N4  UNL     1     -19.934   6.574 -39.000  0.00  0.00    +0.000 N 
ATOM      9  C5  UNL     1     -21.112   6.835 -38.320  0.00  0.00    +0.000 A 
ATOM     10  O1  UNL     1     -21.984   5.992 -38.150  0.00  0.00    +0.000 OA
ATOM     11  H2  UNL     1     -19.918  11.082 -37.558  0.00  0.00    +0.000 HD
ATOM     12  H4  UNL     1     -19.830   5.635 -39.355  0.00  0.00    +0.000 HD
ENDROOT
TORSDOF 0
ENDMDL
MODEL 5
REMARK VINA RESULT:    -3.926     17.928     18.969
REMARK INTER + INTRA:          -3.926
REMARK INTER:                  -3.926
REMARK INTRA:                   0.000
REMARK UNBOUND:                 0.000
REMARK  Name = /home/anacleto/Desktop/manuscript_Mpro/naturecomm/supplementary_file_S2/6-chemical-library/molecular_docking/3D_ligand_structure/220.pdb
REMARK  0 active torsions:
REMARK  status: ('A' for Active; 'I' for Inactive)
REMARK                            x       y       z     vdW  Elec       q    Type
REMARK                         _______ _______ _______ _____ _____    ______ ____
ROOT
ATOM      1  C1  UNL     1     -18.603   8.094 -39.598  0.00  0.00    +0.000 A 
ATOM      2  N1  UNL     1     -18.912   6.803 -39.793  0.00  0.00    +0.000 NA
ATOM      3  N2  UNL     1     -19.997   6.611 -39.007  0.00  0.00    +0.000 N 
ATOM      4  C2  UNL     1     -20.374   7.734 -38.331  0.00  0.00    +0.000 A 
ATOM      5  C3  UNL     1     -19.481   8.709 -38.700  0.00  0.00    +0.000 A 
ATOM      6  N3  UNL     1     -21.419   7.839 -37.477  0.00  0.00    +0.000 NA
ATOM      7  C4  UNL     1     -21.533   9.035 -36.982  0.00  0.00    +0.000 A 
ATOM      8  N4  UNL     1     -20.702  10.102 -37.271  0.00  0.00    +0.000 N 
ATOM      9  C5  UNL     1     -19.628  10.020 -38.141  0.00  0.00    +0.000 A 
ATOM     10  O1  UNL     1     -18.898  10.971 -38.390  0.00  0.00    +0.000 OA
ATOM     11  H2  UNL     1     -20.432   5.696 -38.977  0.00  0.00    +0.000 HD
ATOM     12  H4  UNL     1     -20.855  11.004 -36.846  0.00  0.00    +0.000 HD
ENDROOT
TORSDOF 0
ENDMDL
MODEL 6
REMARK VINA RESULT:    -3.859      2.060      3.716
REMARK INTER + INTRA:          -3.859
REMARK INTER:                  -3.859
REMARK INTRA:                   0.000
REMARK UNBOUND:                 0.000
REMARK  Name = /home/anacleto/Desktop/manuscript_Mpro/naturecomm/supplementary_file_S2/6-chemical-library/molecular_docking/3D_ligand_structure/220.pdb
REMARK  0 active torsions:
REMARK  status: ('A' for Active; 'I' for Inactive)
REMARK                            x       y       z     vdW  Elec       q    Type
REMARK                         _______ _______ _______ _____ _____    ______ ____
ROOT
ATOM      1  C1  UNL     1     -27.877  -3.840 -28.174  0.00  0.00    +0.000 A 
ATOM      2  N1  UNL     1     -26.799  -3.140 -28.553  0.00  0.00    +0.000 NA
ATOM      3  N2  UNL     1     -25.872  -3.445 -27.614  0.00  0.00    +0.000 N 
ATOM      4  C2  UNL     1     -26.336  -4.307 -26.666  0.00  0.00    +0.000 A 
ATOM      5  C3  UNL     1     -27.637  -4.578 -27.010  0.00  0.00    +0.000 A 
ATOM      6  N3  UNL     1     -25.636  -4.786 -25.610  0.00  0.00    +0.000 NA
ATOM      7  C4  UNL     1     -26.342  -5.592 -24.875  0.00  0.00    +0.000 A 
ATOM      8  N4  UNL     1     -27.658  -5.944 -25.112  0.00  0.00    +0.000 N 
ATOM      9  C5  UNL     1     -28.394  -5.470 -26.184  0.00  0.00    +0.000 A 
ATOM     10  O1  UNL     1     -29.560  -5.788 -26.386  0.00  0.00    +0.000 OA
ATOM     11  H2  UNL     1     -24.948  -3.033 -27.676  0.00  0.00    +0.000 HD
ATOM     12  H4  UNL     1     -28.141  -6.579 -24.494  0.00  0.00    +0.000 HD
ENDROOT
TORSDOF 0
ENDMDL
MODEL 7
REMARK VINA RESULT:    -3.685     13.351     14.670
REMARK INTER + INTRA:          -3.685
REMARK INTER:                  -3.685
REMARK INTRA:                   0.000
REMARK UNBOUND:                 0.000
REMARK  Name = /home/anacleto/Desktop/manuscript_Mpro/naturecomm/supplementary_file_S2/6-chemical-library/molecular_docking/3D_ligand_structure/220.pdb
REMARK  0 active torsions:
REMARK  status: ('A' for Active; 'I' for Inactive)
REMARK                            x       y       z     vdW  Elec       q    Type
REMARK                         _______ _______ _______ _____ _____    ______ ____
ROOT
ATOM      1  C1  UNL     1     -28.313   5.578 -39.176  0.00  0.00    +0.000 A 
ATOM      2  N1  UNL     1     -29.570   5.117 -39.107  0.00  0.00    +0.000 NA
ATOM      3  N2  UNL     1     -29.422   3.847 -38.662  0.00  0.00    +0.000 N 
ATOM      4  C2  UNL     1     -28.120   3.503 -38.453  0.00  0.00    +0.000 A 
ATOM      5  C3  UNL     1     -27.382   4.612 -38.781  0.00  0.00    +0.000 A 
ATOM      6  N3  UNL     1     -27.672   2.303 -38.010  0.00  0.00    +0.000 NA
ATOM      7  C4  UNL     1     -26.377   2.268 -37.908  0.00  0.00    +0.000 A 
ATOM      8  N4  UNL     1     -25.522   3.314 -38.207  0.00  0.00    +0.000 N 
ATOM      9  C5  UNL     1     -25.956   4.549 -38.659  0.00  0.00    +0.000 A 
ATOM     10  O1  UNL     1     -25.191   5.469 -38.921  0.00  0.00    +0.000 OA
ATOM     11  H2  UNL     1     -30.244   3.271 -38.522  0.00  0.00    +0.000 HD
ATOM     12  H4  UNL     1     -24.525   3.210 -38.101  0.00  0.00    +0.000 HD
ENDROOT
TORSDOF 0
ENDMDL
MODEL 8
REMARK VINA RESULT:    -3.670     17.498     18.683
REMARK INTER + INTRA:          -3.670
REMARK INTER:                  -3.670
REMARK INTRA:                   0.000
REMARK UNBOUND:                 0.000
REMARK  Name = /home/anacleto/Desktop/manuscript_Mpro/naturecomm/supplementary_file_S2/6-chemical-library/molecular_docking/3D_ligand_structure/220.pdb
REMARK  0 active torsions:
REMARK  status: ('A' for Active; 'I' for Inactive)
REMARK                            x       y       z     vdW  Elec       q    Type
REMARK                         _______ _______ _______ _____ _____    ______ ____
ROOT
ATOM      1  C1  UNL     1     -19.047   7.990 -39.021  0.00  0.00    +0.000 A 
ATOM      2  N1  UNL     1     -18.223   8.988 -38.672  0.00  0.00    +0.000 NA
ATOM      3  N2  UNL     1     -19.008   9.807 -37.932  0.00  0.00    +0.000 N 
ATOM      4  C2  UNL     1     -20.287   9.354 -37.808  0.00  0.00    +0.000 A 
ATOM      5  C3  UNL     1     -20.335   8.174 -38.508  0.00  0.00    +0.000 A 
ATOM      6  N3  UNL     1     -21.288   9.962 -37.128  0.00  0.00    +0.000 NA
ATOM      7  C4  UNL     1     -22.401   9.294 -37.186  0.00  0.00    +0.000 A 
ATOM      8  N4  UNL     1     -22.581   8.097 -37.856  0.00  0.00    +0.000 N 
ATOM      9  C5  UNL     1     -21.574   7.456 -38.558  0.00  0.00    +0.000 A 
ATOM     10  O1  UNL     1     -21.743   6.396 -39.148  0.00  0.00    +0.000 OA
ATOM     11  H2  UNL     1     -18.611  10.654 -37.542  0.00  0.00    +0.000 HD
ATOM     12  H4  UNL     1     -23.478   7.637 -37.856  0.00  0.00    +0.000 HD
ENDROOT
TORSDOF 0
ENDMDL
MODEL 9
REMARK VINA RESULT:    -3.668     13.468     14.209
REMARK INTER + INTRA:          -3.668
REMARK INTER:                  -3.668
REMARK INTRA:                   0.000
REMARK UNBOUND:                 0.000
REMARK  Name = /home/anacleto/Desktop/manuscript_Mpro/naturecomm/supplementary_file_S2/6-chemical-library/molecular_docking/3D_ligand_structure/220.pdb
REMARK  0 active torsions:
REMARK  status: ('A' for Active; 'I' for Inactive)
REMARK                            x       y       z     vdW  Elec       q    Type
REMARK                         _______ _______ _______ _____ _____    ______ ____
ROOT
ATOM      1  C1  UNL     1     -39.036   0.191 -18.701  0.00  0.00    +0.000 A 
ATOM      2  N1  UNL     1     -39.240   1.480 -18.392  0.00  0.00    +0.000 NA
ATOM      3  N2  UNL     1     -38.003   1.933 -18.076  0.00  0.00    +0.000 N 
ATOM      4  C2  UNL     1     -37.041   0.973 -18.177  0.00  0.00    +0.000 A 
ATOM      5  C3  UNL     1     -37.689  -0.167 -18.581  0.00  0.00    +0.000 A 
ATOM      6  N3  UNL     1     -35.720   1.137 -17.924  0.00  0.00    +0.000 NA
ATOM      7  C4  UNL     1     -35.044   0.042 -18.106  0.00  0.00    +0.000 A 
ATOM      8  N4  UNL     1     -35.577  -1.169 -18.510  0.00  0.00    +0.000 N 
ATOM      9  C5  UNL     1     -36.922  -1.360 -18.775  0.00  0.00    +0.000 A 
ATOM     10  O1  UNL     1     -37.384  -2.437 -19.133  0.00  0.00    +0.000 OA
ATOM     11  H2  UNL     1     -37.885   2.902 -17.801  0.00  0.00    +0.000 HD
ATOM     12  H4  UNL     1     -34.985  -1.977 -18.630  0.00  0.00    +0.000 HD
ENDROOT
TORSDOF 0
ENDMDL
