MODEL 1
REMARK VINA RESULT:    -4.454      0.000      0.000
REMARK INTER + INTRA:          -5.230
REMARK INTER:                  -4.995
REMARK INTRA:                  -0.235
REMARK UNBOUND:                -0.255
REMARK  Name = /home/anacleto/Desktop/manuscript_Mpro/naturecomm/supplementary_file_S2/6-chemical-library/molecular_docking/3D_ligand_structure/904.pdb
REMARK  2 active torsions:
REMARK  status: ('A' for Active; 'I' for Inactive)
REMARK    1  A    between atoms: C5_6  and  C6_7
REMARK    2  A    between atoms: N1_9  and  C7_10
REMARK                            x       y       z     vdW  Elec       q    Type
REMARK                         _______ _______ _______ _____ _____    ______ ____
ROOT
ATOM      1  C6  UNL     1     -21.900  -5.185 -26.225  0.00  0.00    +0.000 C 
ATOM      2  O2  UNL     1     -22.191  -5.574 -27.351  0.00  0.00    +0.000 OA
ATOM      3  N1  UNL     1     -20.621  -4.837 -25.866  0.00  0.00    +0.000 N 
ATOM      4  H8  UNL     1     -20.405  -4.591 -24.912  0.00  0.00    +0.000 HD
ENDROOT
BRANCH   1  10
ATOM      5  C1  UNL     1     -22.545  -4.831 -23.712  0.00  0.00    +0.000 C 
ATOM      6  C2  UNL     1     -23.713  -5.140 -22.778  0.00  0.00    +0.000 C 
ATOM      7  C3  UNL     1     -25.003  -4.587 -23.367  0.00  0.00    +0.000 C 
ATOM      8  O1  UNL     1     -25.289  -5.137 -24.658  0.00  0.00    +0.000 OA
ATOM      9  C4  UNL     1     -24.207  -5.222 -25.497  0.00  0.00    +0.000 C 
ATOM     10  C5  UNL     1     -22.921  -5.063 -25.143  0.00  0.00    +0.000 C 
ENDBRANCH   1  10
BRANCH   3  11
ATOM     11  C7  UNL     1     -19.499  -5.006 -26.788  0.00  0.00    +0.000 C 
ATOM     12  C8  UNL     1     -18.196  -5.209 -26.029  0.00  0.00    +0.000 C 
ATOM     13  C9  UNL     1     -17.760  -3.786 -25.732  0.00  0.00    +0.000 C 
ATOM     14  N2  UNL     1     -18.118  -3.025 -26.929  0.00  0.00    +0.000 NA
ATOM     15  C10 UNL     1     -19.228  -3.727 -27.591  0.00  0.00    +0.000 C 
ATOM     16  H14 UNL     1     -18.371  -2.068 -26.691  0.00  0.00    +0.000 HD
ENDBRANCH   3  11
TORSDOF 2
ENDMDL
MODEL 2
REMARK VINA RESULT:    -4.411      4.292      5.850
REMARK INTER + INTRA:          -5.182
REMARK INTER:                  -4.964
REMARK INTRA:                  -0.218
REMARK UNBOUND:                -0.255
REMARK  Name = /home/anacleto/Desktop/manuscript_Mpro/naturecomm/supplementary_file_S2/6-chemical-library/molecular_docking/3D_ligand_structure/904.pdb
REMARK  2 active torsions:
REMARK  status: ('A' for Active; 'I' for Inactive)
REMARK    1  A    between atoms: C5_6  and  C6_7
REMARK    2  A    between atoms: N1_9  and  C7_10
REMARK                            x       y       z     vdW  Elec       q    Type
REMARK                         _______ _______ _______ _____ _____    ______ ____
ROOT
ATOM      1  C6  UNL     1     -24.915  -5.253 -25.595  0.00  0.00    +0.000 C 
ATOM      2  O2  UNL     1     -24.458  -6.254 -26.135  0.00  0.00    +0.000 OA
ATOM      3  N1  UNL     1     -26.087  -4.661 -25.998  0.00  0.00    +0.000 N 
ATOM      4  H8  UNL     1     -26.396  -3.796 -25.578  0.00  0.00    +0.000 HD
ENDROOT
BRANCH   1  10
ATOM      5  C1  UNL     1     -23.516  -5.366 -23.385  0.00  0.00    +0.000 C 
ATOM      6  C2  UNL     1     -23.254  -4.500 -22.154  0.00  0.00    +0.000 C 
ATOM      7  C3  UNL     1     -22.784  -3.119 -22.585  0.00  0.00    +0.000 C 
ATOM      8  O1  UNL     1     -23.743  -2.456 -23.417  0.00  0.00    +0.000 OA
ATOM      9  C4  UNL     1     -24.312  -3.250 -24.380  0.00  0.00    +0.000 C 
ATOM     10  C5  UNL     1     -24.227  -4.589 -24.450  0.00  0.00    +0.000 C 
ENDBRANCH   1  10
BRANCH   3  11
ATOM     11  C7  UNL     1     -26.816  -5.136 -27.172  0.00  0.00    +0.000 C 
ATOM     12  C8  UNL     1     -26.228  -4.555 -28.451  0.00  0.00    +0.000 C 
ATOM     13  C9  UNL     1     -26.915  -3.206 -28.549  0.00  0.00    +0.000 C 
ATOM     14  N2  UNL     1     -28.284  -3.446 -28.090  0.00  0.00    +0.000 NA
ATOM     15  C10 UNL     1     -28.258  -4.612 -27.194  0.00  0.00    +0.000 C 
ATOM     16  H14 UNL     1     -28.661  -2.625 -27.622  0.00  0.00    +0.000 HD
ENDBRANCH   3  11
TORSDOF 2
ENDMDL
MODEL 3
REMARK VINA RESULT:    -4.323      4.828      7.303
REMARK INTER + INTRA:          -5.084
REMARK INTER:                  -4.838
REMARK INTRA:                  -0.246
REMARK UNBOUND:                -0.255
REMARK  Name = /home/anacleto/Desktop/manuscript_Mpro/naturecomm/supplementary_file_S2/6-chemical-library/molecular_docking/3D_ligand_structure/904.pdb
REMARK  2 active torsions:
REMARK  status: ('A' for Active; 'I' for Inactive)
REMARK    1  A    between atoms: C5_6  and  C6_7
REMARK    2  A    between atoms: N1_9  and  C7_10
REMARK                            x       y       z     vdW  Elec       q    Type
REMARK                         _______ _______ _______ _____ _____    ______ ____
ROOT
ATOM      1  C6  UNL     1     -24.232  -4.341 -29.213  0.00  0.00    +0.000 C 
ATOM      2  O2  UNL     1     -23.727  -3.229 -29.104  0.00  0.00    +0.000 OA
ATOM      3  N1  UNL     1     -25.492  -4.635 -28.754  0.00  0.00    +0.000 N 
ATOM      4  H8  UNL     1     -25.847  -5.579 -28.796  0.00  0.00    +0.000 HD
ENDROOT
BRANCH   1  10
ATOM      5  C1  UNL     1     -22.014  -5.566 -29.873  0.00  0.00    +0.000 C 
ATOM      6  C2  UNL     1     -21.533  -6.579 -30.911  0.00  0.00    +0.000 C 
ATOM      7  C3  UNL     1     -22.409  -7.823 -30.862  0.00  0.00    +0.000 C 
ATOM      8  O1  UNL     1     -23.787  -7.525 -31.114  0.00  0.00    +0.000 OA
ATOM      9  C4  UNL     1     -24.258  -6.405 -30.476  0.00  0.00    +0.000 C 
ATOM     10  C5  UNL     1     -23.509  -5.477 -29.857  0.00  0.00    +0.000 C 
ENDBRANCH   1  10
BRANCH   3  11
ATOM     11  C7  UNL     1     -26.278  -3.653 -28.008  0.00  0.00    +0.000 C 
ATOM     12  C8  UNL     1     -26.486  -4.102 -26.569  0.00  0.00    +0.000 C 
ATOM     13  C9  UNL     1     -27.694  -5.013 -26.675  0.00  0.00    +0.000 C 
ATOM     14  N2  UNL     1     -28.562  -4.372 -27.665  0.00  0.00    +0.000 NA
ATOM     15  C10 UNL     1     -27.713  -3.553 -28.542  0.00  0.00    +0.000 C 
ATOM     16  H14 UNL     1     -29.085  -5.066 -28.195  0.00  0.00    +0.000 HD
ENDBRANCH   3  11
TORSDOF 2
ENDMDL
MODEL 4
REMARK VINA RESULT:    -4.222     16.042     17.632
REMARK INTER + INTRA:          -4.971
REMARK INTER:                  -4.728
REMARK INTRA:                  -0.243
REMARK UNBOUND:                -0.255
REMARK  Name = /home/anacleto/Desktop/manuscript_Mpro/naturecomm/supplementary_file_S2/6-chemical-library/molecular_docking/3D_ligand_structure/904.pdb
REMARK  2 active torsions:
REMARK  status: ('A' for Active; 'I' for Inactive)
REMARK    1  A    between atoms: C5_6  and  C6_7
REMARK    2  A    between atoms: N1_9  and  C7_10
REMARK                            x       y       z     vdW  Elec       q    Type
REMARK                         _______ _______ _______ _____ _____    ______ ____
ROOT
ATOM      1  C6  UNL     1     -23.754   5.869 -39.301  0.00  0.00    +0.000 C 
ATOM      2  O2  UNL     1     -23.531   5.714 -40.497  0.00  0.00    +0.000 OA
ATOM      3  N1  UNL     1     -24.552   5.018 -38.577  0.00  0.00    +0.000 N 
ATOM      4  H8  UNL     1     -24.772   5.217 -37.612  0.00  0.00    +0.000 HD
ENDROOT
BRANCH   1  10
ATOM      5  C1  UNL     1     -21.708   7.119 -38.249  0.00  0.00    +0.000 C 
ATOM      6  C2  UNL     1     -21.436   8.128 -37.134  0.00  0.00    +0.000 C 
ATOM      7  C3  UNL     1     -22.308   9.359 -37.329  0.00  0.00    +0.000 C 
ATOM      8  O1  UNL     1     -23.704   9.039 -37.328  0.00  0.00    +0.000 OA
ATOM      9  C4  UNL     1     -24.037   7.919 -38.048  0.00  0.00    +0.000 C 
ATOM     10  C5  UNL     1     -23.175   7.009 -38.531  0.00  0.00    +0.000 C 
ENDBRANCH   1  10
BRANCH   3  11
ATOM     11  C7  UNL     1     -25.273   3.920 -39.218  0.00  0.00    +0.000 C 
ATOM     12  C8  UNL     1     -26.749   4.254 -39.374  0.00  0.00    +0.000 C 
ATOM     13  C9  UNL     1     -27.323   3.864 -38.025  0.00  0.00    +0.000 C 
ATOM     14  N2  UNL     1     -26.601   2.648 -37.646  0.00  0.00    +0.000 NA
ATOM     15  C10 UNL     1     -25.301   2.667 -38.333  0.00  0.00    +0.000 C 
ATOM     16  H14 UNL     1     -26.489   2.591 -36.636  0.00  0.00    +0.000 HD
ENDBRANCH   3  11
TORSDOF 2
ENDMDL
MODEL 5
REMARK VINA RESULT:    -4.196      4.607      5.816
REMARK INTER + INTRA:          -4.943
REMARK INTER:                  -4.706
REMARK INTRA:                  -0.236
REMARK UNBOUND:                -0.255
REMARK  Name = /home/anacleto/Desktop/manuscript_Mpro/naturecomm/supplementary_file_S2/6-chemical-library/molecular_docking/3D_ligand_structure/904.pdb
REMARK  2 active torsions:
REMARK  status: ('A' for Active; 'I' for Inactive)
REMARK    1  A    between atoms: C5_6  and  C6_7
REMARK    2  A    between atoms: N1_9  and  C7_10
REMARK                            x       y       z     vdW  Elec       q    Type
REMARK                         _______ _______ _______ _____ _____    ______ ____
ROOT
ATOM      1  C6  UNL     1     -26.256  -5.512 -24.643  0.00  0.00    +0.000 C 
ATOM      2  O2  UNL     1     -27.308  -6.110 -24.444  0.00  0.00    +0.000 OA
ATOM      3  N1  UNL     1     -25.984  -4.857 -25.819  0.00  0.00    +0.000 N 
ATOM      4  H8  UNL     1     -25.080  -4.436 -25.975  0.00  0.00    +0.000 HD
ENDROOT
BRANCH   1  10
ATOM      5  C1  UNL     1     -24.148  -4.361 -23.601  0.00  0.00    +0.000 C 
ATOM      6  C2  UNL     1     -22.955  -4.740 -22.725  0.00  0.00    +0.000 C 
ATOM      7  C3  UNL     1     -23.446  -5.395 -21.442  0.00  0.00    +0.000 C 
ATOM      8  O1  UNL     1     -24.221  -6.572 -21.697  0.00  0.00    +0.000 OA
ATOM      9  C4  UNL     1     -25.126  -6.452 -22.721  0.00  0.00    +0.000 C 
ATOM     10  C5  UNL     1     -25.175  -5.450 -23.616  0.00  0.00    +0.000 C 
ENDBRANCH   1  10
BRANCH   3  11
ATOM     11  C7  UNL     1     -26.902  -4.919 -26.955  0.00  0.00    +0.000 C 
ATOM     12  C8  UNL     1     -26.139  -5.029 -28.267  0.00  0.00    +0.000 C 
ATOM     13  C9  UNL     1     -25.816  -3.582 -28.586  0.00  0.00    +0.000 C 
ATOM     14  N2  UNL     1     -27.003  -2.831 -28.173  0.00  0.00    +0.000 NA
ATOM     15  C10 UNL     1     -27.682  -3.609 -27.125  0.00  0.00    +0.000 C 
ATOM     16  H14 UNL     1     -26.750  -1.902 -27.842  0.00  0.00    +0.000 HD
ENDBRANCH   3  11
TORSDOF 2
ENDMDL
MODEL 6
REMARK VINA RESULT:    -4.173      2.072      2.948
REMARK INTER + INTRA:          -4.916
REMARK INTER:                  -4.669
REMARK INTRA:                  -0.247
REMARK UNBOUND:                -0.255
REMARK  Name = /home/anacleto/Desktop/manuscript_Mpro/naturecomm/supplementary_file_S2/6-chemical-library/molecular_docking/3D_ligand_structure/904.pdb
REMARK  2 active torsions:
REMARK  status: ('A' for Active; 'I' for Inactive)
REMARK    1  A    between atoms: C5_6  and  C6_7
REMARK    2  A    between atoms: N1_9  and  C7_10
REMARK                            x       y       z     vdW  Elec       q    Type
REMARK                         _______ _______ _______ _____ _____    ______ ____
ROOT
ATOM      1  C6  UNL     1     -22.384  -3.693 -27.726  0.00  0.00    +0.000 C 
ATOM      2  O2  UNL     1     -22.194  -2.804 -28.548  0.00  0.00    +0.000 OA
ATOM      3  N1  UNL     1     -21.374  -4.488 -27.242  0.00  0.00    +0.000 N 
ATOM      4  H8  UNL     1     -21.578  -5.257 -26.621  0.00  0.00    +0.000 HD
ENDROOT
BRANCH   1  10
ATOM      5  C1  UNL     1     -24.964  -4.001 -28.048  0.00  0.00    +0.000 C 
ATOM      6  C2  UNL     1     -26.237  -3.932 -27.205  0.00  0.00    +0.000 C 
ATOM      7  C3  UNL     1     -26.104  -4.845 -25.995  0.00  0.00    +0.000 C 
ATOM      8  O1  UNL     1     -24.987  -4.492 -25.170  0.00  0.00    +0.000 OA
ATOM      9  C4  UNL     1     -23.837  -4.197 -25.858  0.00  0.00    +0.000 C 
ATOM     10  C5  UNL     1     -23.742  -3.989 -27.182  0.00  0.00    +0.000 C 
ENDBRANCH   1  10
BRANCH   3  11
ATOM     11  C7  UNL     1     -20.011  -4.386 -27.761  0.00  0.00    +0.000 C 
ATOM     12  C8  UNL     1     -19.701  -5.536 -28.709  0.00  0.00    +0.000 C 
ATOM     13  C9  UNL     1     -19.276  -6.642 -27.763  0.00  0.00    +0.000 C 
ATOM     14  N2  UNL     1     -18.508  -5.968 -26.715  0.00  0.00    +0.000 NA
ATOM     15  C10 UNL     1     -18.968  -4.572 -26.651  0.00  0.00    +0.000 C 
ATOM     16  H14 UNL     1     -18.620  -6.439 -25.820  0.00  0.00    +0.000 HD
ENDBRANCH   3  11
TORSDOF 2
ENDMDL
MODEL 7
REMARK VINA RESULT:    -4.060     17.490     18.768
REMARK INTER + INTRA:          -4.790
REMARK INTER:                  -4.539
REMARK INTRA:                  -0.251
REMARK UNBOUND:                -0.255
REMARK  Name = /home/anacleto/Desktop/manuscript_Mpro/naturecomm/supplementary_file_S2/6-chemical-library/molecular_docking/3D_ligand_structure/904.pdb
REMARK  2 active torsions:
REMARK  status: ('A' for Active; 'I' for Inactive)
REMARK    1  A    between atoms: C5_6  and  C6_7
REMARK    2  A    between atoms: N1_9  and  C7_10
REMARK                            x       y       z     vdW  Elec       q    Type
REMARK                         _______ _______ _______ _____ _____    ______ ____
ROOT
ATOM      1  C6  UNL     1     -34.795  -4.779 -37.115  0.00  0.00    +0.000 C 
ATOM      2  O2  UNL     1     -35.074  -5.462 -36.136  0.00  0.00    +0.000 OA
ATOM      3  N1  UNL     1     -35.028  -3.427 -37.169  0.00  0.00    +0.000 N 
ATOM      4  H8  UNL     1     -34.852  -2.909 -38.017  0.00  0.00    +0.000 HD
ENDROOT
BRANCH   1  10
ATOM      5  C1  UNL     1     -33.199  -6.501 -38.275  0.00  0.00    +0.000 C 
ATOM      6  C2  UNL     1     -32.434  -6.643 -39.589  0.00  0.00    +0.000 C 
ATOM      7  C3  UNL     1     -33.388  -6.475 -40.762  0.00  0.00    +0.000 C 
ATOM      8  O1  UNL     1     -34.044  -5.202 -40.748  0.00  0.00    +0.000 OA
ATOM      9  C4  UNL     1     -34.495  -4.803 -39.515  0.00  0.00    +0.000 C 
ATOM     10  C5  UNL     1     -34.177  -5.368 -38.339  0.00  0.00    +0.000 C 
ENDBRANCH   1  10
BRANCH   3  11
ATOM     11  C7  UNL     1     -35.724  -2.731 -36.089  0.00  0.00    +0.000 C 
ATOM     12  C8  UNL     1     -37.097  -2.256 -36.541  0.00  0.00    +0.000 C 
ATOM     13  C9  UNL     1     -36.786  -0.933 -37.216  0.00  0.00    +0.000 C 
ATOM     14  N2  UNL     1     -35.734  -0.331 -36.396  0.00  0.00    +0.000 NA
ATOM     15  C10 UNL     1     -35.020  -1.420 -35.713  0.00  0.00    +0.000 C 
ATOM     16  H14 UNL     1     -35.103   0.228 -36.966  0.00  0.00    +0.000 HD
ENDBRANCH   3  11
TORSDOF 2
ENDMDL
MODEL 8
REMARK VINA RESULT:    -3.994      2.874      3.932
REMARK INTER + INTRA:          -4.717
REMARK INTER:                  -4.465
REMARK INTRA:                  -0.252
REMARK UNBOUND:                -0.255
REMARK  Name = /home/anacleto/Desktop/manuscript_Mpro/naturecomm/supplementary_file_S2/6-chemical-library/molecular_docking/3D_ligand_structure/904.pdb
REMARK  2 active torsions:
REMARK  status: ('A' for Active; 'I' for Inactive)
REMARK    1  A    between atoms: C5_6  and  C6_7
REMARK    2  A    between atoms: N1_9  and  C7_10
REMARK                            x       y       z     vdW  Elec       q    Type
REMARK                         _______ _______ _______ _____ _____    ______ ____
ROOT
ATOM      1  C6  UNL     1     -24.154  -3.912 -28.127  0.00  0.00    +0.000 C 
ATOM      2  O2  UNL     1     -24.021  -3.140 -29.070  0.00  0.00    +0.000 OA
ATOM      3  N1  UNL     1     -23.095  -4.558 -27.538  0.00  0.00    +0.000 N 
ATOM      4  H8  UNL     1     -23.249  -5.241 -26.811  0.00  0.00    +0.000 HD
ENDROOT
BRANCH   1  10
ATOM      5  C1  UNL     1     -26.769  -3.786 -28.192  0.00  0.00    +0.000 C 
ATOM      6  C2  UNL     1     -27.941  -3.868 -27.216  0.00  0.00    +0.000 C 
ATOM      7  C3  UNL     1     -27.851  -5.153 -26.407  0.00  0.00    +0.000 C 
ATOM      8  O1  UNL     1     -26.628  -5.242 -25.666  0.00  0.00    +0.000 OA
ATOM      9  C4  UNL     1     -25.507  -4.862 -26.361  0.00  0.00    +0.000 C 
ATOM     10  C5  UNL     1     -25.492  -4.219 -27.540  0.00  0.00    +0.000 C 
ENDBRANCH   1  10
BRANCH   3  11
ATOM     11  C7  UNL     1     -21.739  -4.439 -28.072  0.00  0.00    +0.000 C 
ATOM     12  C8  UNL     1     -21.466  -5.515 -29.112  0.00  0.00    +0.000 C 
ATOM     13  C9  UNL     1     -21.046  -6.700 -28.263  0.00  0.00    +0.000 C 
ATOM     14  N2  UNL     1     -20.248  -6.122 -27.181  0.00  0.00    +0.000 NA
ATOM     15  C10 UNL     1     -20.681  -4.728 -27.000  0.00  0.00    +0.000 C 
ATOM     16  H14 UNL     1     -20.353  -6.659 -26.323  0.00  0.00    +0.000 HD
ENDBRANCH   3  11
TORSDOF 2
ENDMDL
MODEL 9
REMARK VINA RESULT:    -3.972      3.604      5.638
REMARK INTER + INTRA:          -4.692
REMARK INTER:                  -4.437
REMARK INTRA:                  -0.255
REMARK UNBOUND:                -0.255
REMARK  Name = /home/anacleto/Desktop/manuscript_Mpro/naturecomm/supplementary_file_S2/6-chemical-library/molecular_docking/3D_ligand_structure/904.pdb
REMARK  2 active torsions:
REMARK  status: ('A' for Active; 'I' for Inactive)
REMARK    1  A    between atoms: C5_6  and  C6_7
REMARK    2  A    between atoms: N1_9  and  C7_10
REMARK                            x       y       z     vdW  Elec       q    Type
REMARK                         _______ _______ _______ _____ _____    ______ ____
ROOT
ATOM      1  C6  UNL     1     -19.191  -6.123 -27.878  0.00  0.00    +0.000 C 
ATOM      2  O2  UNL     1     -19.613  -5.341 -28.723  0.00  0.00    +0.000 OA
ATOM      3  N1  UNL     1     -19.005  -5.769 -26.565  0.00  0.00    +0.000 N 
ATOM      4  H8  UNL     1     -18.588  -6.416 -25.912  0.00  0.00    +0.000 HD
ENDROOT
BRANCH   1  10
ATOM      5  C1  UNL     1     -17.744  -8.273 -27.509  0.00  0.00    +0.000 C 
ATOM      6  C2  UNL     1     -17.331  -9.520 -28.289  0.00  0.00    +0.000 C 
ATOM      7  C3  UNL     1     -18.568 -10.233 -28.815  0.00  0.00    +0.000 C 
ATOM      8  O1  UNL     1     -19.353  -9.395 -29.671  0.00  0.00    +0.000 OA
ATOM      9  C4  UNL     1     -19.519  -8.109 -29.220  0.00  0.00    +0.000 C 
ATOM     10  C5  UNL     1     -18.840  -7.534 -28.213  0.00  0.00    +0.000 C 
ENDBRANCH   1  10
BRANCH   3  11
ATOM     11  C7  UNL     1     -19.205  -4.393 -26.111  0.00  0.00    +0.000 C 
ATOM     12  C8  UNL     1     -17.911  -3.597 -26.198  0.00  0.00    +0.000 C 
ATOM     13  C9  UNL     1     -17.219  -3.944 -24.894  0.00  0.00    +0.000 C 
ATOM     14  N2  UNL     1     -18.294  -4.010 -23.903  0.00  0.00    +0.000 NA
ATOM     15  C10 UNL     1     -19.540  -4.333 -24.615  0.00  0.00    +0.000 C 
ATOM     16  H14 UNL     1     -18.086  -4.701 -23.185  0.00  0.00    +0.000 HD
ENDBRANCH   3  11
TORSDOF 2
ENDMDL
