MODEL 1
REMARK VINA RESULT:    -5.581      0.000      0.000
REMARK INTER + INTRA:          -7.077
REMARK INTER:                  -6.521
REMARK INTRA:                  -0.556
REMARK UNBOUND:                -0.518
REMARK  Name = /home/anacleto/Desktop/manuscript_Mpro/naturecomm/supplementary_file_S2/6-chemical-library/molecular_docking/3D_ligand_structure/737.pdb
REMARK  3 active torsions:
REMARK  status: ('A' for Active; 'I' for Inactive)
REMARK    1  A    between atoms: C6_6  and  C7_7
REMARK    2  A    between atoms: C7_7  and  C9_9
REMARK    3  A    between atoms: C10_10  and  C11_11
REMARK                            x       y       z     vdW  Elec       q    Type
REMARK                         _______ _______ _______ _____ _____    ______ ____
ROOT
ATOM      1  C7  UNL     1      19.416   3.638   9.530  0.00  0.00    +0.000 C 
ATOM      2  C8  UNL     1      20.439   2.769   9.605  0.00  0.00    +0.000 C 
ENDROOT
BRANCH   1   8
ATOM      3  C1  UNL     1      18.903   5.918   8.652  0.00  0.00    +0.000 A 
ATOM      4  C2  UNL     1      19.248   7.257   8.455  0.00  0.00    +0.000 A 
ATOM      5  C3  UNL     1      20.475   7.736   8.914  0.00  0.00    +0.000 A 
ATOM      6  C4  UNL     1      21.357   6.880   9.573  0.00  0.00    +0.000 A 
ATOM      7  C5  UNL     1      21.013   5.542   9.772  0.00  0.00    +0.000 A 
ATOM      8  C6  UNL     1      19.784   5.052   9.311  0.00  0.00    +0.000 A 
ENDBRANCH   1   8
BRANCH   1   9
ATOM      9  C9  UNL     1      18.043   3.162   9.664  0.00  0.00    +0.000 C 
ATOM     10  C10 UNL     1      17.354   2.510   8.711  0.00  0.00    +0.000 C 
BRANCH  10  11
ATOM     11  C11 UNL     1      15.984   2.020   8.815  0.00  0.00    +0.000 C 
ATOM     12  C12 UNL     1      15.225   2.392   9.864  0.00  0.00    +0.000 C 
ATOM     13  C13 UNL     1      13.793   1.985  10.057  0.00  0.00    +0.000 C 
ATOM     14  C14 UNL     1      13.165   1.376   8.805  0.00  0.00    +0.000 C 
ATOM     15  C15 UNL     1      14.127   0.402   8.137  0.00  0.00    +0.000 C 
ATOM     16  C16 UNL     1      15.438   1.093   7.748  0.00  0.00    +0.000 C 
ENDBRANCH  10  11
ENDBRANCH   1   9
TORSDOF 3
ENDMDL
MODEL 2
REMARK VINA RESULT:    -5.442      0.746      6.876
REMARK INTER + INTRA:          -6.914
REMARK INTER:                  -6.426
REMARK INTRA:                  -0.488
REMARK UNBOUND:                -0.518
REMARK  Name = /home/anacleto/Desktop/manuscript_Mpro/naturecomm/supplementary_file_S2/6-chemical-library/molecular_docking/3D_ligand_structure/737.pdb
REMARK  3 active torsions:
REMARK  status: ('A' for Active; 'I' for Inactive)
REMARK    1  A    between atoms: C6_6  and  C7_7
REMARK    2  A    between atoms: C7_7  and  C9_9
REMARK    3  A    between atoms: C10_10  and  C11_11
REMARK                            x       y       z     vdW  Elec       q    Type
REMARK                         _______ _______ _______ _____ _____    ______ ____
ROOT
ATOM      1  C7  UNL     1      17.133   2.227   9.238  0.00  0.00    +0.000 C 
ATOM      2  C8  UNL     1      17.952   1.163   9.185  0.00  0.00    +0.000 C 
ENDROOT
BRANCH   1   8
ATOM      3  C1  UNL     1      14.923   2.278  10.399  0.00  0.00    +0.000 A 
ATOM      4  C2  UNL     1      13.555   2.003  10.432  0.00  0.00    +0.000 A 
ATOM      5  C3  UNL     1      12.942   1.377   9.346  0.00  0.00    +0.000 A 
ATOM      6  C4  UNL     1      13.695   1.028   8.225  0.00  0.00    +0.000 A 
ATOM      7  C5  UNL     1      15.064   1.303   8.191  0.00  0.00    +0.000 A 
ATOM      8  C6  UNL     1      15.686   1.928   9.278  0.00  0.00    +0.000 A 
ENDBRANCH   1   8
BRANCH   1   9
ATOM      9  C9  UNL     1      17.689   3.577   9.252  0.00  0.00    +0.000 C 
ATOM     10  C10 UNL     1      19.001   3.873   9.222  0.00  0.00    +0.000 C 
BRANCH  10  11
ATOM     11  C11 UNL     1      19.586   5.209   9.232  0.00  0.00    +0.000 C 
ATOM     12  C12 UNL     1      20.476   5.535  10.189  0.00  0.00    +0.000 C 
ATOM     13  C13 UNL     1      21.172   6.863  10.277  0.00  0.00    +0.000 C 
ATOM     14  C14 UNL     1      21.034   7.702   9.008  0.00  0.00    +0.000 C 
ATOM     15  C15 UNL     1      19.607   7.651   8.479  0.00  0.00    +0.000 C 
ATOM     16  C16 UNL     1      19.180   6.211   8.170  0.00  0.00    +0.000 C 
ENDBRANCH  10  11
ENDBRANCH   1   9
TORSDOF 3
ENDMDL
MODEL 3
REMARK VINA RESULT:    -5.438      1.255      6.967
REMARK INTER + INTRA:          -6.910
REMARK INTER:                  -6.402
REMARK INTRA:                  -0.508
REMARK UNBOUND:                -0.518
REMARK  Name = /home/anacleto/Desktop/manuscript_Mpro/naturecomm/supplementary_file_S2/6-chemical-library/molecular_docking/3D_ligand_structure/737.pdb
REMARK  3 active torsions:
REMARK  status: ('A' for Active; 'I' for Inactive)
REMARK    1  A    between atoms: C6_6  and  C7_7
REMARK    2  A    between atoms: C7_7  and  C9_9
REMARK    3  A    between atoms: C10_10  and  C11_11
REMARK                            x       y       z     vdW  Elec       q    Type
REMARK                         _______ _______ _______ _____ _____    ______ ____
ROOT
ATOM      1  C7  UNL     1      15.979   2.224   8.644  0.00  0.00    +0.000 C 
ATOM      2  C8  UNL     1      16.493   1.467   7.659  0.00  0.00    +0.000 C 
ENDROOT
BRANCH   1   8
ATOM      3  C1  UNL     1      13.808   0.995   8.545  0.00  0.00    +0.000 A 
ATOM      4  C2  UNL     1      12.660   0.492   9.161  0.00  0.00    +0.000 A 
ATOM      5  C3  UNL     1      12.458   0.691  10.527  0.00  0.00    +0.000 A 
ATOM      6  C4  UNL     1      13.402   1.389  11.279  0.00  0.00    +0.000 A 
ATOM      7  C5  UNL     1      14.550   1.892  10.664  0.00  0.00    +0.000 A 
ATOM      8  C6  UNL     1      14.759   1.700   9.292  0.00  0.00    +0.000 A 
ENDBRANCH   1   8
BRANCH   1   9
ATOM      9  C9  UNL     1      16.625   3.480   9.011  0.00  0.00    +0.000 C 
ATOM     10  C10 UNL     1      17.937   3.744   8.876  0.00  0.00    +0.000 C 
BRANCH  10  11
ATOM     11  C11 UNL     1      18.611   4.988   9.231  0.00  0.00    +0.000 C 
ATOM     12  C12 UNL     1      18.797   5.293  10.529  0.00  0.00    +0.000 C 
ATOM     13  C13 UNL     1      19.510   6.523  11.013  0.00  0.00    +0.000 C 
ATOM     14  C14 UNL     1      20.292   7.239   9.914  0.00  0.00    +0.000 C 
ATOM     15  C15 UNL     1      19.473   7.317   8.632  0.00  0.00    +0.000 C 
ATOM     16  C16 UNL     1      19.084   5.921   8.135  0.00  0.00    +0.000 C 
ENDBRANCH  10  11
ENDBRANCH   1   9
TORSDOF 3
ENDMDL
MODEL 4
REMARK VINA RESULT:    -5.191      1.949      2.347
REMARK INTER + INTRA:          -6.620
REMARK INTER:                  -5.991
REMARK INTRA:                  -0.628
REMARK UNBOUND:                -0.518
REMARK  Name = /home/anacleto/Desktop/manuscript_Mpro/naturecomm/supplementary_file_S2/6-chemical-library/molecular_docking/3D_ligand_structure/737.pdb
REMARK  3 active torsions:
REMARK  status: ('A' for Active; 'I' for Inactive)
REMARK    1  A    between atoms: C6_6  and  C7_7
REMARK    2  A    between atoms: C7_7  and  C9_9
REMARK    3  A    between atoms: C10_10  and  C11_11
REMARK                            x       y       z     vdW  Elec       q    Type
REMARK                         _______ _______ _______ _____ _____    ______ ____
ROOT
ATOM      1  C7  UNL     1      19.476   5.460   9.278  0.00  0.00    +0.000 C 
ATOM      2  C8  UNL     1      20.452   5.777   8.409  0.00  0.00    +0.000 C 
ENDROOT
BRANCH   1   8
ATOM      3  C1  UNL     1      18.918   7.210  10.970  0.00  0.00    +0.000 A 
ATOM      4  C2  UNL     1      19.032   7.749  12.252  0.00  0.00    +0.000 A 
ATOM      5  C3  UNL     1      19.833   7.119  13.205  0.00  0.00    +0.000 A 
ATOM      6  C4  UNL     1      20.518   5.949  12.878  0.00  0.00    +0.000 A 
ATOM      7  C5  UNL     1      20.405   5.409  11.595  0.00  0.00    +0.000 A 
ATOM      8  C6  UNL     1      19.605   6.037  10.633  0.00  0.00    +0.000 A 
ENDBRANCH   1   8
BRANCH   1   9
ATOM      9  C9  UNL     1      18.378   4.595   8.859  0.00  0.00    +0.000 C 
ATOM     10  C10 UNL     1      17.632   3.838   9.683  0.00  0.00    +0.000 C 
BRANCH  10  11
ATOM     11  C11 UNL     1      16.528   2.967   9.295  0.00  0.00    +0.000 C 
ATOM     12  C12 UNL     1      15.545   2.710  10.180  0.00  0.00    +0.000 C 
ATOM     13  C13 UNL     1      14.342   1.863   9.881  0.00  0.00    +0.000 C 
ATOM     14  C14 UNL     1      14.159   1.578   8.392  0.00  0.00    +0.000 C 
ATOM     15  C15 UNL     1      15.490   1.224   7.742  0.00  0.00    +0.000 C 
ATOM     16  C16 UNL     1      16.508   2.358   7.908  0.00  0.00    +0.000 C 
ENDBRANCH  10  11
ENDBRANCH   1   9
TORSDOF 3
ENDMDL
MODEL 5
REMARK VINA RESULT:    -5.139     13.866     15.795
REMARK INTER + INTRA:          -6.559
REMARK INTER:                  -5.987
REMARK INTRA:                  -0.572
REMARK UNBOUND:                -0.518
REMARK  Name = /home/anacleto/Desktop/manuscript_Mpro/naturecomm/supplementary_file_S2/6-chemical-library/molecular_docking/3D_ligand_structure/737.pdb
REMARK  3 active torsions:
REMARK  status: ('A' for Active; 'I' for Inactive)
REMARK    1  A    between atoms: C6_6  and  C7_7
REMARK    2  A    between atoms: C7_7  and  C9_9
REMARK    3  A    between atoms: C10_10  and  C11_11
REMARK                            x       y       z     vdW  Elec       q    Type
REMARK                         _______ _______ _______ _____ _____    ______ ____
ROOT
ATOM      1  C7  UNL     1      15.840  14.505  -1.639  0.00  0.00    +0.000 C 
ATOM      2  C8  UNL     1      15.145  15.614  -1.333  0.00  0.00    +0.000 C 
ENDROOT
BRANCH   1   8
ATOM      3  C1  UNL     1      17.861  13.160  -1.055  0.00  0.00    +0.000 A 
ATOM      4  C2  UNL     1      19.113  13.037  -0.449  0.00  0.00    +0.000 A 
ATOM      5  C3  UNL     1      19.671  14.123   0.225  0.00  0.00    +0.000 A 
ATOM      6  C4  UNL     1      18.981  15.333   0.292  0.00  0.00    +0.000 A 
ATOM      7  C5  UNL     1      17.729  15.457  -0.313  0.00  0.00    +0.000 A 
ATOM      8  C6  UNL     1      17.161  14.370  -0.989  0.00  0.00    +0.000 A 
ENDBRANCH   1   8
BRANCH   1   9
ATOM      9  C9  UNL     1      15.279  13.523  -2.562  0.00  0.00    +0.000 C 
ATOM     10  C10 UNL     1      15.408  13.559  -3.901  0.00  0.00    +0.000 C 
BRANCH  10  11
ATOM     11  C11 UNL     1      14.863  12.593  -4.848  0.00  0.00    +0.000 C 
ATOM     12  C12 UNL     1      14.256  11.482  -4.387  0.00  0.00    +0.000 C 
ATOM     13  C13 UNL     1      13.625  10.440  -5.264  0.00  0.00    +0.000 C 
ATOM     14  C14 UNL     1      13.440  10.899  -6.709  0.00  0.00    +0.000 C 
ATOM     15  C15 UNL     1      14.680  11.628  -7.207  0.00  0.00    +0.000 C 
ATOM     16  C16 UNL     1      14.993  12.850  -6.336  0.00  0.00    +0.000 C 
ENDBRANCH  10  11
ENDBRANCH   1   9
TORSDOF 3
ENDMDL
MODEL 6
REMARK VINA RESULT:    -5.076     13.168     15.205
REMARK INTER + INTRA:          -6.484
REMARK INTER:                  -5.940
REMARK INTRA:                  -0.544
REMARK UNBOUND:                -0.518
REMARK  Name = /home/anacleto/Desktop/manuscript_Mpro/naturecomm/supplementary_file_S2/6-chemical-library/molecular_docking/3D_ligand_structure/737.pdb
REMARK  3 active torsions:
REMARK  status: ('A' for Active; 'I' for Inactive)
REMARK    1  A    between atoms: C6_6  and  C7_7
REMARK    2  A    between atoms: C7_7  and  C9_9
REMARK    3  A    between atoms: C10_10  and  C11_11
REMARK                            x       y       z     vdW  Elec       q    Type
REMARK                         _______ _______ _______ _____ _____    ______ ____
ROOT
ATOM      1  C7  UNL     1      17.660  12.344  -1.273  0.00  0.00    +0.000 C 
ATOM      2  C8  UNL     1      18.485  11.337  -0.937  0.00  0.00    +0.000 C 
ENDROOT
BRANCH   1   8
ATOM      3  C1  UNL     1      16.845  14.516  -0.349  0.00  0.00    +0.000 A 
ATOM      4  C2  UNL     1      17.076  15.729   0.301  0.00  0.00    +0.000 A 
ATOM      5  C3  UNL     1      18.365  16.067   0.712  0.00  0.00    +0.000 A 
ATOM      6  C4  UNL     1      19.425  15.192   0.475  0.00  0.00    +0.000 A 
ATOM      7  C5  UNL     1      19.196  13.978  -0.176  0.00  0.00    +0.000 A 
ATOM      8  C6  UNL     1      17.904  13.634  -0.593  0.00  0.00    +0.000 A 
ENDBRANCH   1   8
BRANCH   1   9
ATOM      9  C9  UNL     1      16.602  12.125  -2.255  0.00  0.00    +0.000 C 
ATOM     10  C10 UNL     1      16.771  12.136  -3.589  0.00  0.00    +0.000 C 
BRANCH  10  11
ATOM     11  C11 UNL     1      15.737  11.918  -4.594  0.00  0.00    +0.000 C 
ATOM     12  C12 UNL     1      15.811  12.567  -5.773  0.00  0.00    +0.000 C 
ATOM     13  C13 UNL     1      14.829  12.392  -6.895  0.00  0.00    +0.000 C 
ATOM     14  C14 UNL     1      13.919  11.179  -6.717  0.00  0.00    +0.000 C 
ATOM     15  C15 UNL     1      13.423  11.081  -5.281  0.00  0.00    +0.000 C 
ATOM     16  C16 UNL     1      14.592  10.972  -4.295  0.00  0.00    +0.000 C 
ENDBRANCH  10  11
ENDBRANCH   1   9
TORSDOF 3
ENDMDL
MODEL 7
REMARK VINA RESULT:    -5.021     14.151     16.531
REMARK INTER + INTRA:          -6.420
REMARK INTER:                  -5.890
REMARK INTRA:                  -0.530
REMARK UNBOUND:                -0.518
REMARK  Name = /home/anacleto/Desktop/manuscript_Mpro/naturecomm/supplementary_file_S2/6-chemical-library/molecular_docking/3D_ligand_structure/737.pdb
REMARK  3 active torsions:
REMARK  status: ('A' for Active; 'I' for Inactive)
REMARK    1  A    between atoms: C6_6  and  C7_7
REMARK    2  A    between atoms: C7_7  and  C9_9
REMARK    3  A    between atoms: C10_10  and  C11_11
REMARK                            x       y       z     vdW  Elec       q    Type
REMARK                         _______ _______ _______ _____ _____    ______ ____
ROOT
ATOM      1  C7  UNL     1      17.100  11.490  -4.755  0.00  0.00    +0.000 C 
ATOM      2  C8  UNL     1      18.056  10.645  -5.178  0.00  0.00    +0.000 C 
ENDROOT
BRANCH   1   8
ATOM      3  C1  UNL     1      15.556  11.482  -6.717  0.00  0.00    +0.000 A 
ATOM      4  C2  UNL     1      14.291  11.289  -7.274  0.00  0.00    +0.000 A 
ATOM      5  C3  UNL     1      13.222  10.909  -6.463  0.00  0.00    +0.000 A 
ATOM      6  C4  UNL     1      13.416  10.719  -5.095  0.00  0.00    +0.000 A 
ATOM      7  C5  UNL     1      14.681  10.911  -4.536  0.00  0.00    +0.000 A 
ATOM      8  C6  UNL     1      15.759  11.296  -5.344  0.00  0.00    +0.000 A 
ENDBRANCH   1   8
BRANCH   1   9
ATOM      9  C9  UNL     1      17.420  12.521  -3.772  0.00  0.00    +0.000 C 
ATOM     10  C10 UNL     1      17.686  12.295  -2.473  0.00  0.00    +0.000 C 
BRANCH  10  11
ATOM     11  C11 UNL     1      18.011  13.301  -1.468  0.00  0.00    +0.000 C 
ATOM     12  C12 UNL     1      19.174  13.214  -0.795  0.00  0.00    +0.000 C 
ATOM     13  C13 UNL     1      19.633  14.210   0.230  0.00  0.00    +0.000 C 
ATOM     14  C14 UNL     1      18.823  15.505   0.218  0.00  0.00    +0.000 C 
ATOM     15  C15 UNL     1      17.335  15.210   0.089  0.00  0.00    +0.000 C 
ATOM     16  C16 UNL     1      17.032  14.425  -1.192  0.00  0.00    +0.000 C 
ENDBRANCH  10  11
ENDBRANCH   1   9
TORSDOF 3
ENDMDL
MODEL 8
REMARK VINA RESULT:    -4.889     13.406     16.189
REMARK INTER + INTRA:          -6.264
REMARK INTER:                  -5.746
REMARK INTRA:                  -0.518
REMARK UNBOUND:                -0.518
REMARK  Name = /home/anacleto/Desktop/manuscript_Mpro/naturecomm/supplementary_file_S2/6-chemical-library/molecular_docking/3D_ligand_structure/737.pdb
REMARK  3 active torsions:
REMARK  status: ('A' for Active; 'I' for Inactive)
REMARK    1  A    between atoms: C6_6  and  C7_7
REMARK    2  A    between atoms: C7_7  and  C9_9
REMARK    3  A    between atoms: C10_10  and  C11_11
REMARK                            x       y       z     vdW  Elec       q    Type
REMARK                         _______ _______ _______ _____ _____    ______ ____
ROOT
ATOM      1  C7  UNL     1      16.060  11.825  -2.552  0.00  0.00    +0.000 C 
ATOM      2  C8  UNL     1      16.124  10.594  -2.016  0.00  0.00    +0.000 C 
ENDROOT
BRANCH   1   8
ATOM      3  C1  UNL     1      14.449  10.953  -4.249  0.00  0.00    +0.000 A 
ATOM      4  C2  UNL     1      13.798  11.055  -5.480  0.00  0.00    +0.000 A 
ATOM      5  C3  UNL     1      14.071  12.129  -6.327  0.00  0.00    +0.000 A 
ATOM      6  C4  UNL     1      14.992  13.104  -5.944  0.00  0.00    +0.000 A 
ATOM      7  C5  UNL     1      15.644  13.003  -4.714  0.00  0.00    +0.000 A 
ATOM      8  C6  UNL     1      15.377  11.926  -3.859  0.00  0.00    +0.000 A 
ENDBRANCH   1   8
BRANCH   1   9
ATOM      9  C9  UNL     1      16.645  12.960  -1.846  0.00  0.00    +0.000 C 
ATOM     10  C10 UNL     1      17.811  12.936  -1.176  0.00  0.00    +0.000 C 
BRANCH  10  11
ATOM     11  C11 UNL     1      18.423  14.052  -0.463  0.00  0.00    +0.000 C 
ATOM     12  C12 UNL     1      19.697  13.949  -0.039  0.00  0.00    +0.000 C 
ATOM     13  C13 UNL     1      20.443  15.044   0.668  0.00  0.00    +0.000 C 
ATOM     14  C14 UNL     1      19.747  16.401   0.582  0.00  0.00    +0.000 C 
ATOM     15  C15 UNL     1      18.249  16.256   0.818  0.00  0.00    +0.000 C 
ATOM     16  C16 UNL     1      17.614  15.308  -0.205  0.00  0.00    +0.000 C 
ENDBRANCH  10  11
ENDBRANCH   1   9
TORSDOF 3
ENDMDL
