MODEL 1
REMARK VINA RESULT:    -3.584      0.000      0.000
REMARK INTER + INTRA:          -3.584
REMARK INTER:                  -3.584
REMARK INTRA:                   0.000
REMARK UNBOUND:                 0.000
REMARK  Name = /home/anacleto/Desktop/manuscript_Mpro/naturecomm/supplementary_file_S2/6-chemical-library/molecular_docking/3D_ligand_structure/290.pdb
REMARK  0 active torsions:
REMARK  status: ('A' for Active; 'I' for Inactive)
REMARK                            x       y       z     vdW  Elec       q    Type
REMARK                         _______ _______ _______ _____ _____    ______ ____
ROOT
ATOM      1  N1  UNL     1     -37.634   6.586 -14.036  0.00  0.00    +0.000 NA
ATOM      2  C1  UNL     1     -38.583   6.306 -13.083  0.00  0.00    +0.000 A 
ATOM      3  C2  UNL     1     -39.601   7.233 -13.114  0.00  0.00    +0.000 A 
ATOM      4  N2  UNL     1     -39.252   8.088 -14.114  0.00  0.00    +0.000 N 
ATOM      5  C3  UNL     1     -38.061   7.670 -14.651  0.00  0.00    +0.000 A 
ATOM      6  C4  UNL     1     -39.943   9.288 -14.537  0.00  0.00    +0.000 C 
ATOM      7  C5  UNL     1     -39.384   9.817 -15.865  0.00  0.00    +0.000 C 
ATOM      8  N3  UNL     1     -37.913   9.788 -15.917  0.00  0.00    +0.000 NA
ATOM      9  C6  UNL     1     -37.432   8.395 -15.797  0.00  0.00    +0.000 C 
ATOM     10  H7  UNL     1     -37.532  10.311 -15.128  0.00  0.00    +0.000 HD
ENDROOT
TORSDOF 0
ENDMDL
MODEL 2
REMARK VINA RESULT:    -3.582     20.762     22.029
REMARK INTER + INTRA:          -3.582
REMARK INTER:                  -3.582
REMARK INTRA:                   0.000
REMARK UNBOUND:                 0.000
REMARK  Name = /home/anacleto/Desktop/manuscript_Mpro/naturecomm/supplementary_file_S2/6-chemical-library/molecular_docking/3D_ligand_structure/290.pdb
REMARK  0 active torsions:
REMARK  status: ('A' for Active; 'I' for Inactive)
REMARK                            x       y       z     vdW  Elec       q    Type
REMARK                         _______ _______ _______ _____ _____    ______ ____
ROOT
ATOM      1  N1  UNL     1     -24.807  -3.321 -28.951  0.00  0.00    +0.000 NA
ATOM      2  C1  UNL     1     -23.797  -3.971 -28.287  0.00  0.00    +0.000 A 
ATOM      3  C2  UNL     1     -24.288  -4.678 -27.212  0.00  0.00    +0.000 A 
ATOM      4  N2  UNL     1     -25.629  -4.447 -27.238  0.00  0.00    +0.000 N 
ATOM      5  C3  UNL     1     -25.911  -3.625 -28.299  0.00  0.00    +0.000 A 
ATOM      6  C4  UNL     1     -26.627  -4.904 -26.292  0.00  0.00    +0.000 C 
ATOM      7  C5  UNL     1     -28.048  -4.663 -26.818  0.00  0.00    +0.000 C 
ATOM      8  N3  UNL     1     -28.210  -3.337 -27.437  0.00  0.00    +0.000 NA
ATOM      9  C6  UNL     1     -27.315  -3.214 -28.608  0.00  0.00    +0.000 C 
ATOM     10  H7  UNL     1     -27.942  -2.613 -26.770  0.00  0.00    +0.000 HD
ENDROOT
TORSDOF 0
ENDMDL
MODEL 3
REMARK VINA RESULT:    -3.455     27.454     28.161
REMARK INTER + INTRA:          -3.455
REMARK INTER:                  -3.455
REMARK INTRA:                   0.000
REMARK UNBOUND:                 0.000
REMARK  Name = /home/anacleto/Desktop/manuscript_Mpro/naturecomm/supplementary_file_S2/6-chemical-library/molecular_docking/3D_ligand_structure/290.pdb
REMARK  0 active torsions:
REMARK  status: ('A' for Active; 'I' for Inactive)
REMARK                            x       y       z     vdW  Elec       q    Type
REMARK                         _______ _______ _______ _____ _____    ______ ____
ROOT
ATOM      1  N1  UNL     1     -22.687   6.504 -38.672  0.00  0.00    +0.000 NA
ATOM      2  C1  UNL     1     -24.021   6.601 -38.983  0.00  0.00    +0.000 A 
ATOM      3  C2  UNL     1     -24.558   7.770 -38.491  0.00  0.00    +0.000 A 
ATOM      4  N2  UNL     1     -23.515   8.389 -37.872  0.00  0.00    +0.000 N 
ATOM      5  C3  UNL     1     -22.401   7.600 -37.999  0.00  0.00    +0.000 A 
ATOM      6  C4  UNL     1     -23.535   9.633 -37.130  0.00  0.00    +0.000 C 
ATOM      7  C5  UNL     1     -22.114  10.124 -36.823  0.00  0.00    +0.000 C 
ATOM      8  N3  UNL     1     -21.220   9.043 -36.376  0.00  0.00    +0.000 NA
ATOM      9  C6  UNL     1     -21.081   8.030 -37.444  0.00  0.00    +0.000 C 
ATOM     10  H7  UNL     1     -21.627   8.578 -35.564  0.00  0.00    +0.000 HD
ENDROOT
TORSDOF 0
ENDMDL
MODEL 4
REMARK VINA RESULT:    -3.449     28.866     30.522
REMARK INTER + INTRA:          -3.449
REMARK INTER:                  -3.449
REMARK INTRA:                   0.000
REMARK UNBOUND:                 0.000
REMARK  Name = /home/anacleto/Desktop/manuscript_Mpro/naturecomm/supplementary_file_S2/6-chemical-library/molecular_docking/3D_ligand_structure/290.pdb
REMARK  0 active torsions:
REMARK  status: ('A' for Active; 'I' for Inactive)
REMARK                            x       y       z     vdW  Elec       q    Type
REMARK                         _______ _______ _______ _____ _____    ______ ____
ROOT
ATOM      1  N1  UNL     1     -20.886   7.671 -37.932  0.00  0.00    +0.000 NA
ATOM      2  C1  UNL     1     -21.701   8.626 -37.377  0.00  0.00    +0.000 A 
ATOM      3  C2  UNL     1     -21.112   9.870 -37.433  0.00  0.00    +0.000 A 
ATOM      4  N2  UNL     1     -19.914   9.651 -38.042  0.00  0.00    +0.000 N 
ATOM      5  C3  UNL     1     -19.808   8.315 -38.331  0.00  0.00    +0.000 A 
ATOM      6  C4  UNL     1     -18.862  10.613 -38.301  0.00  0.00    +0.000 C 
ATOM      7  C5  UNL     1     -17.796  10.035 -39.242  0.00  0.00    +0.000 C 
ATOM      8  N3  UNL     1     -17.427   8.650 -38.905  0.00  0.00    +0.000 NA
ATOM      9  C6  UNL     1     -18.606   7.768 -39.033  0.00  0.00    +0.000 C 
ATOM     10  H7  UNL     1     -17.116   8.606 -37.934  0.00  0.00    +0.000 HD
ENDROOT
TORSDOF 0
ENDMDL
MODEL 5
REMARK VINA RESULT:    -3.336     20.351     20.901
REMARK INTER + INTRA:          -3.336
REMARK INTER:                  -3.336
REMARK INTRA:                   0.000
REMARK UNBOUND:                 0.000
REMARK  Name = /home/anacleto/Desktop/manuscript_Mpro/naturecomm/supplementary_file_S2/6-chemical-library/molecular_docking/3D_ligand_structure/290.pdb
REMARK  0 active torsions:
REMARK  status: ('A' for Active; 'I' for Inactive)
REMARK                            x       y       z     vdW  Elec       q    Type
REMARK                         _______ _______ _______ _____ _____    ______ ____
ROOT
ATOM      1  N1  UNL     1     -25.769  -4.766 -25.859  0.00  0.00    +0.000 NA
ATOM      2  C1  UNL     1     -25.319  -5.285 -24.670  0.00  0.00    +0.000 A 
ATOM      3  C2  UNL     1     -26.309  -6.002 -24.038  0.00  0.00    +0.000 A 
ATOM      4  N2  UNL     1     -27.380  -5.913 -24.874  0.00  0.00    +0.000 N 
ATOM      5  C3  UNL     1     -27.021  -5.161 -25.964  0.00  0.00    +0.000 A 
ATOM      6  C4  UNL     1     -28.713  -6.440 -24.669  0.00  0.00    +0.000 C 
ATOM      7  C5  UNL     1     -29.548  -6.365 -25.954  0.00  0.00    +0.000 C 
ATOM      8  N3  UNL     1     -29.391  -5.085 -26.663  0.00  0.00    +0.000 NA
ATOM      9  C6  UNL     1     -27.983  -4.909 -27.080  0.00  0.00    +0.000 C 
ATOM     10  H7  UNL     1     -29.622  -4.315 -26.035  0.00  0.00    +0.000 HD
ENDROOT
TORSDOF 0
ENDMDL
MODEL 6
REMARK VINA RESULT:    -3.327      7.657      9.019
REMARK INTER + INTRA:          -3.327
REMARK INTER:                  -3.327
REMARK INTRA:                   0.000
REMARK UNBOUND:                 0.000
REMARK  Name = /home/anacleto/Desktop/manuscript_Mpro/naturecomm/supplementary_file_S2/6-chemical-library/molecular_docking/3D_ligand_structure/290.pdb
REMARK  0 active torsions:
REMARK  status: ('A' for Active; 'I' for Inactive)
REMARK                            x       y       z     vdW  Elec       q    Type
REMARK                         _______ _______ _______ _____ _____    ______ ____
ROOT
ATOM      1  N1  UNL     1     -37.298   1.935 -17.496  0.00  0.00    +0.000 NA
ATOM      2  C1  UNL     1     -38.265   1.682 -16.554  0.00  0.00    +0.000 A 
ATOM      3  C2  UNL     1     -38.071   0.452 -15.967  0.00  0.00    +0.000 A 
ATOM      4  N2  UNL     1     -36.956  -0.041 -16.572  0.00  0.00    +0.000 N 
ATOM      5  C3  UNL     1     -36.513   0.877 -17.488  0.00  0.00    +0.000 A 
ATOM      6  C4  UNL     1     -36.338  -1.336 -16.373  0.00  0.00    +0.000 C 
ATOM      7  C5  UNL     1     -34.954  -1.403 -17.035  0.00  0.00    +0.000 C 
ATOM      8  N3  UNL     1     -34.935  -0.804 -18.379  0.00  0.00    +0.000 NA
ATOM      9  C6  UNL     1     -35.279   0.632 -18.297  0.00  0.00    +0.000 C 
ATOM     10  H7  UNL     1     -35.639  -1.254 -18.964  0.00  0.00    +0.000 HD
ENDROOT
TORSDOF 0
ENDMDL
MODEL 7
REMARK VINA RESULT:    -3.302     20.826     21.508
REMARK INTER + INTRA:          -3.302
REMARK INTER:                  -3.302
REMARK INTRA:                   0.000
REMARK UNBOUND:                 0.000
REMARK  Name = /home/anacleto/Desktop/manuscript_Mpro/naturecomm/supplementary_file_S2/6-chemical-library/molecular_docking/3D_ligand_structure/290.pdb
REMARK  0 active torsions:
REMARK  status: ('A' for Active; 'I' for Inactive)
REMARK                            x       y       z     vdW  Elec       q    Type
REMARK                         _______ _______ _______ _____ _____    ______ ____
ROOT
ATOM      1  N1  UNL     1     -24.672  -4.988 -26.194  0.00  0.00    +0.000 NA
ATOM      2  C1  UNL     1     -25.292  -5.702 -25.199  0.00  0.00    +0.000 A 
ATOM      3  C2  UNL     1     -26.662  -5.638 -25.327  0.00  0.00    +0.000 A 
ATOM      4  N2  UNL     1     -26.864  -4.867 -26.431  0.00  0.00    +0.000 N 
ATOM      5  C3  UNL     1     -25.644  -4.492 -26.931  0.00  0.00    +0.000 A 
ATOM      6  C4  UNL     1     -28.128  -4.428 -26.987  0.00  0.00    +0.000 C 
ATOM      7  C5  UNL     1     -27.941  -3.808 -28.379  0.00  0.00    +0.000 C 
ATOM      8  N3  UNL     1     -26.780  -2.906 -28.451  0.00  0.00    +0.000 NA
ATOM      9  C6  UNL     1     -25.538  -3.658 -28.169  0.00  0.00    +0.000 C 
ATOM     10  H7  UNL     1     -26.866  -2.180 -27.739  0.00  0.00    +0.000 HD
ENDROOT
TORSDOF 0
ENDMDL
MODEL 8
REMARK VINA RESULT:    -3.300     27.451     28.128
REMARK INTER + INTRA:          -3.300
REMARK INTER:                  -3.300
REMARK INTRA:                   0.000
REMARK UNBOUND:                 0.000
REMARK  Name = /home/anacleto/Desktop/manuscript_Mpro/naturecomm/supplementary_file_S2/6-chemical-library/molecular_docking/3D_ligand_structure/290.pdb
REMARK  0 active torsions:
REMARK  status: ('A' for Active; 'I' for Inactive)
REMARK                            x       y       z     vdW  Elec       q    Type
REMARK                         _______ _______ _______ _____ _____    ______ ____
ROOT
ATOM      1  N1  UNL     1     -24.106   6.938 -38.498  0.00  0.00    +0.000 NA
ATOM      2  C1  UNL     1     -23.069   6.040 -38.541  0.00  0.00    +0.000 A 
ATOM      3  C2  UNL     1     -21.911   6.600 -38.051  0.00  0.00    +0.000 A 
ATOM      4  N2  UNL     1     -22.267   7.867 -37.702  0.00  0.00    +0.000 N 
ATOM      5  C3  UNL     1     -23.598   8.039 -37.984  0.00  0.00    +0.000 A 
ATOM      6  C4  UNL     1     -21.416   8.918 -37.185  0.00  0.00    +0.000 C 
ATOM      7  C5  UNL     1     -22.242  10.102 -36.664  0.00  0.00    +0.000 C 
ATOM      8  N3  UNL     1     -23.351  10.463 -37.562  0.00  0.00    +0.000 NA
ATOM      9  C6  UNL     1     -24.293   9.329 -37.681  0.00  0.00    +0.000 C 
ATOM     10  H7  UNL     1     -22.987  10.657 -38.495  0.00  0.00    +0.000 HD
ENDROOT
TORSDOF 0
ENDMDL
MODEL 9
REMARK VINA RESULT:    -3.268     27.357     28.522
REMARK INTER + INTRA:          -3.268
REMARK INTER:                  -3.268
REMARK INTRA:                   0.000
REMARK UNBOUND:                 0.000
REMARK  Name = /home/anacleto/Desktop/manuscript_Mpro/naturecomm/supplementary_file_S2/6-chemical-library/molecular_docking/3D_ligand_structure/290.pdb
REMARK  0 active torsions:
REMARK  status: ('A' for Active; 'I' for Inactive)
REMARK                            x       y       z     vdW  Elec       q    Type
REMARK                         _______ _______ _______ _____ _____    ______ ____
ROOT
ATOM      1  N1  UNL     1     -24.493   7.679 -38.437  0.00  0.00    +0.000 NA
ATOM      2  C1  UNL     1     -24.805   8.865 -37.818  0.00  0.00    +0.000 A 
ATOM      3  C2  UNL     1     -23.675   9.478 -37.327  0.00  0.00    +0.000 A 
ATOM      4  N2  UNL     1     -22.658   8.637 -37.664  0.00  0.00    +0.000 N 
ATOM      5  C3  UNL     1     -23.184   7.562 -38.333  0.00  0.00    +0.000 A 
ATOM      6  C4  UNL     1     -21.253   8.767 -37.337  0.00  0.00    +0.000 C 
ATOM      7  C5  UNL     1     -20.400   7.765 -38.126  0.00  0.00    +0.000 C 
ATOM      8  N3  UNL     1     -20.998   6.420 -38.173  0.00  0.00    +0.000 NA
ATOM      9  C6  UNL     1     -22.306   6.473 -38.861  0.00  0.00    +0.000 C 
ATOM     10  H7  UNL     1     -21.165   6.087 -37.224  0.00  0.00    +0.000 HD
ENDROOT
TORSDOF 0
ENDMDL
