MODEL 1
REMARK VINA RESULT:    -4.910      0.000      0.000
REMARK INTER + INTRA:          -6.238
REMARK INTER:                  -6.071
REMARK INTRA:                  -0.167
REMARK UNBOUND:                -0.181
REMARK  Name = /home/anacleto/Desktop/manuscript_Mpro/naturecomm/supplementary_file_S2/6-chemical-library/molecular_docking/3D_ligand_structure/890.pdb
REMARK  4 active torsions:
REMARK  status: ('A' for Active; 'I' for Inactive)
REMARK    1  A    between atoms: C4_5  and  C5_6
REMARK    2  A    between atoms: C5_6  and  N1_7
REMARK    3  A    between atoms: N1_7  and  C6_8
REMARK    4  A    between atoms: C6_8  and  C7_9
REMARK                            x       y       z     vdW  Elec       q    Type
REMARK                         _______ _______ _______ _____ _____    ______ ____
ROOT
ATOM      1  N1  UNL     1     -23.650   5.443 -37.989  0.00  0.00    +0.000 NA
ATOM      2  H6  UNL     1     -23.417   4.588 -37.486  0.00  0.00    +0.000 HD
ENDROOT
BRANCH   1   3
ATOM      3  C5  UNL     1     -22.407   6.148 -38.313  0.00  0.00    +0.000 C 
BRANCH   3   8
ATOM      4  S1  UNL     1     -23.791   8.521 -37.817  0.00  0.00    +0.000 S 
ATOM      5  C1  UNL     1     -22.986   9.836 -37.080  0.00  0.00    +0.000 A 
ATOM      6  C2  UNL     1     -21.669   9.548 -36.803  0.00  0.00    +0.000 A 
ATOM      7  C3  UNL     1     -21.319   8.226 -37.203  0.00  0.00    +0.000 A 
ATOM      8  C4  UNL     1     -22.381   7.546 -37.767  0.00  0.00    +0.000 A 
ENDBRANCH   3   8
ENDBRANCH   1   3
BRANCH   1   9
ATOM      9  C6  UNL     1     -24.396   5.069 -39.192  0.00  0.00    +0.000 C 
BRANCH   9  10
ATOM     10  C7  UNL     1     -25.628   4.273 -38.826  0.00  0.00    +0.000 A 
ATOM     11  C8  UNL     1     -25.505   2.953 -38.368  0.00  0.00    +0.000 A 
ATOM     12  C9  UNL     1     -26.638   2.209 -38.033  0.00  0.00    +0.000 A 
ATOM     13  C10 UNL     1     -27.905   2.776 -38.157  0.00  0.00    +0.000 A 
ATOM     14  C11 UNL     1     -28.041   4.084 -38.616  0.00  0.00    +0.000 A 
ATOM     15  C12 UNL     1     -26.908   4.830 -38.951  0.00  0.00    +0.000 A 
ENDBRANCH   9  10
ENDBRANCH   1   9
TORSDOF 4
ENDMDL
MODEL 2
REMARK VINA RESULT:    -4.887      1.543      6.515
REMARK INTER + INTRA:          -6.211
REMARK INTER:                  -6.032
REMARK INTRA:                  -0.178
REMARK UNBOUND:                -0.181
REMARK  Name = /home/anacleto/Desktop/manuscript_Mpro/naturecomm/supplementary_file_S2/6-chemical-library/molecular_docking/3D_ligand_structure/890.pdb
REMARK  4 active torsions:
REMARK  status: ('A' for Active; 'I' for Inactive)
REMARK    1  A    between atoms: C4_5  and  C5_6
REMARK    2  A    between atoms: C5_6  and  N1_7
REMARK    3  A    between atoms: N1_7  and  C6_8
REMARK    4  A    between atoms: C6_8  and  C7_9
REMARK                            x       y       z     vdW  Elec       q    Type
REMARK                         _______ _______ _______ _____ _____    ______ ____
ROOT
ATOM      1  N1  UNL     1     -23.873   5.452 -37.956  0.00  0.00    +0.000 NA
ATOM      2  H6  UNL     1     -24.459   6.169 -37.531  0.00  0.00    +0.000 HD
ENDROOT
BRANCH   1   3
ATOM      3  C5  UNL     1     -24.566   4.918 -39.131  0.00  0.00    +0.000 C 
BRANCH   3   8
ATOM      4  S1  UNL     1     -27.331   4.616 -38.897  0.00  0.00    +0.000 S 
ATOM      5  C1  UNL     1     -27.979   3.138 -38.332  0.00  0.00    +0.000 A 
ATOM      6  C2  UNL     1     -26.997   2.219 -38.042  0.00  0.00    +0.000 A 
ATOM      7  C3  UNL     1     -25.694   2.738 -38.289  0.00  0.00    +0.000 A 
ATOM      8  C4  UNL     1     -25.723   4.035 -38.765  0.00  0.00    +0.000 A 
ENDBRANCH   3   8
ENDBRANCH   1   3
BRANCH   1   9
ATOM      9  C6  UNL     1     -22.593   6.067 -38.308  0.00  0.00    +0.000 C 
BRANCH   9  10
ATOM     10  C7  UNL     1     -22.534   7.493 -37.810  0.00  0.00    +0.000 A 
ATOM     11  C8  UNL     1     -23.695   8.279 -37.780  0.00  0.00    +0.000 A 
ATOM     12  C9  UNL     1     -23.649   9.598 -37.328  0.00  0.00    +0.000 A 
ATOM     13  C10 UNL     1     -22.440  10.147 -36.904  0.00  0.00    +0.000 A 
ATOM     14  C11 UNL     1     -21.277   9.378 -36.934  0.00  0.00    +0.000 A 
ATOM     15  C12 UNL     1     -21.323   8.058 -37.387  0.00  0.00    +0.000 A 
ENDBRANCH   9  10
ENDBRANCH   1   9
TORSDOF 4
ENDMDL
MODEL 3
REMARK VINA RESULT:    -4.616     25.587     27.118
REMARK INTER + INTRA:          -5.877
REMARK INTER:                  -5.696
REMARK INTRA:                  -0.181
REMARK UNBOUND:                -0.181
REMARK  Name = /home/anacleto/Desktop/manuscript_Mpro/naturecomm/supplementary_file_S2/6-chemical-library/molecular_docking/3D_ligand_structure/890.pdb
REMARK  4 active torsions:
REMARK  status: ('A' for Active; 'I' for Inactive)
REMARK    1  A    between atoms: C4_5  and  C5_6
REMARK    2  A    between atoms: C5_6  and  N1_7
REMARK    3  A    between atoms: N1_7  and  C6_8
REMARK    4  A    between atoms: C6_8  and  C7_9
REMARK                            x       y       z     vdW  Elec       q    Type
REMARK                         _______ _______ _______ _____ _____    ______ ____
ROOT
ATOM      1  N1  UNL     1     -37.467   4.944 -15.421  0.00  0.00    +0.000 NA
ATOM      2  H6  UNL     1     -36.716   4.829 -16.099  0.00  0.00    +0.000 HD
ENDROOT
BRANCH   1   3
ATOM      3  C5  UNL     1     -37.647   3.678 -14.705  0.00  0.00    +0.000 C 
BRANCH   3   8
ATOM      4  S1  UNL     1     -38.621   1.100 -15.148  0.00  0.00    +0.000 S 
ATOM      5  C1  UNL     1     -38.299   0.313 -16.631  0.00  0.00    +0.000 A 
ATOM      6  C2  UNL     1     -37.550   1.095 -17.480  0.00  0.00    +0.000 A 
ATOM      7  C3  UNL     1     -37.238   2.360 -16.902  0.00  0.00    +0.000 A 
ATOM      8  C4  UNL     1     -37.763   2.504 -15.632  0.00  0.00    +0.000 A 
ENDBRANCH   3   8
ENDBRANCH   1   3
BRANCH   1   9
ATOM      9  C6  UNL     1     -37.100   6.036 -14.519  0.00  0.00    +0.000 C 
BRANCH   9  10
ATOM     10  C7  UNL     1     -37.978   7.242 -14.761  0.00  0.00    +0.000 A 
ATOM     11  C8  UNL     1     -37.515   8.303 -15.553  0.00  0.00    +0.000 A 
ATOM     12  C9  UNL     1     -38.317   9.424 -15.777  0.00  0.00    +0.000 A 
ATOM     13  C10 UNL     1     -39.587   9.497 -15.209  0.00  0.00    +0.000 A 
ATOM     14  C11 UNL     1     -40.056   8.452 -14.415  0.00  0.00    +0.000 A 
ATOM     15  C12 UNL     1     -39.255   7.330 -14.190  0.00  0.00    +0.000 A 
ENDBRANCH   9  10
ENDBRANCH   1   9
TORSDOF 4
ENDMDL
MODEL 4
REMARK VINA RESULT:    -4.605      1.320      1.576
REMARK INTER + INTRA:          -5.862
REMARK INTER:                  -5.658
REMARK INTRA:                  -0.204
REMARK UNBOUND:                -0.181
REMARK  Name = /home/anacleto/Desktop/manuscript_Mpro/naturecomm/supplementary_file_S2/6-chemical-library/molecular_docking/3D_ligand_structure/890.pdb
REMARK  4 active torsions:
REMARK  status: ('A' for Active; 'I' for Inactive)
REMARK    1  A    between atoms: C4_5  and  C5_6
REMARK    2  A    between atoms: C5_6  and  N1_7
REMARK    3  A    between atoms: N1_7  and  C6_8
REMARK    4  A    between atoms: C6_8  and  C7_9
REMARK                            x       y       z     vdW  Elec       q    Type
REMARK                         _______ _______ _______ _____ _____    ______ ____
ROOT
ATOM      1  N1  UNL     1     -24.025   6.190 -38.316  0.00  0.00    +0.000 NA
ATOM      2  H6  UNL     1     -24.728   6.130 -37.581  0.00  0.00    +0.000 HD
ENDROOT
BRANCH   1   3
ATOM      3  C5  UNL     1     -22.723   5.830 -37.747  0.00  0.00    +0.000 C 
BRANCH   3   8
ATOM      4  S1  UNL     1     -21.625   8.356 -37.295  0.00  0.00    +0.000 S 
ATOM      5  C1  UNL     1     -20.237   8.847 -38.164  0.00  0.00    +0.000 A 
ATOM      6  C2  UNL     1     -19.803   7.876 -39.038  0.00  0.00    +0.000 A 
ATOM      7  C3  UNL     1     -20.623   6.712 -38.989  0.00  0.00    +0.000 A 
ATOM      8  C4  UNL     1     -21.655   6.830 -38.077  0.00  0.00    +0.000 A 
ENDBRANCH   3   8
ENDBRANCH   1   3
BRANCH   1   9
ATOM      9  C6  UNL     1     -24.420   5.284 -39.395  0.00  0.00    +0.000 C 
BRANCH   9  10
ATOM     10  C7  UNL     1     -25.622   4.464 -38.985  0.00  0.00    +0.000 A 
ATOM     11  C8  UNL     1     -25.458   3.144 -38.541  0.00  0.00    +0.000 A 
ATOM     12  C9  UNL     1     -26.563   2.377 -38.168  0.00  0.00    +0.000 A 
ATOM     13  C10 UNL     1     -27.844   2.922 -38.237  0.00  0.00    +0.000 A 
ATOM     14  C11 UNL     1     -28.021   4.231 -38.682  0.00  0.00    +0.000 A 
ATOM     15  C12 UNL     1     -26.916   4.998 -39.057  0.00  0.00    +0.000 A 
ENDBRANCH   9  10
ENDBRANCH   1   9
TORSDOF 4
ENDMDL
MODEL 5
REMARK VINA RESULT:    -4.306     25.493     26.648
REMARK INTER + INTRA:          -5.494
REMARK INTER:                  -5.322
REMARK INTRA:                  -0.172
REMARK UNBOUND:                -0.181
REMARK  Name = /home/anacleto/Desktop/manuscript_Mpro/naturecomm/supplementary_file_S2/6-chemical-library/molecular_docking/3D_ligand_structure/890.pdb
REMARK  4 active torsions:
REMARK  status: ('A' for Active; 'I' for Inactive)
REMARK    1  A    between atoms: C4_5  and  C5_6
REMARK    2  A    between atoms: C5_6  and  N1_7
REMARK    3  A    between atoms: N1_7  and  C6_8
REMARK    4  A    between atoms: C6_8  and  C7_9
REMARK                            x       y       z     vdW  Elec       q    Type
REMARK                         _______ _______ _______ _____ _____    ______ ____
ROOT
ATOM      1  N1  UNL     1     -38.088   4.946 -15.065  0.00  0.00    +0.000 NA
ATOM      2  H6  UNL     1     -39.005   5.181 -15.442  0.00  0.00    +0.000 HD
ENDROOT
BRANCH   1   3
ATOM      3  C5  UNL     1     -37.638   6.049 -14.211  0.00  0.00    +0.000 C 
BRANCH   3   8
ATOM      4  S1  UNL     1     -39.671   7.961 -14.222  0.00  0.00    +0.000 S 
ATOM      5  C1  UNL     1     -39.475   9.404 -15.120  0.00  0.00    +0.000 A 
ATOM      6  C2  UNL     1     -38.263   9.449 -15.770  0.00  0.00    +0.000 A 
ATOM      7  C3  UNL     1     -37.485   8.281 -15.524  0.00  0.00    +0.000 A 
ATOM      8  C4  UNL     1     -38.125   7.384 -14.691  0.00  0.00    +0.000 A 
ENDBRANCH   3   8
ENDBRANCH   1   3
BRANCH   1   9
ATOM      9  C6  UNL     1     -38.213   3.693 -14.320  0.00  0.00    +0.000 C 
BRANCH   9  10
ATOM     10  C7  UNL     1     -37.984   2.509 -15.232  0.00  0.00    +0.000 A 
ATOM     11  C8  UNL     1     -37.356   2.685 -16.473  0.00  0.00    +0.000 A 
ATOM     12  C9  UNL     1     -37.146   1.599 -17.324  0.00  0.00    +0.000 A 
ATOM     13  C10 UNL     1     -37.566   0.326 -16.943  0.00  0.00    +0.000 A 
ATOM     14  C11 UNL     1     -38.197   0.138 -15.715  0.00  0.00    +0.000 A 
ATOM     15  C12 UNL     1     -38.408   1.224 -14.863  0.00  0.00    +0.000 A 
ENDBRANCH   9  10
ENDBRANCH   1   9
TORSDOF 4
ENDMDL
MODEL 6
REMARK VINA RESULT:    -4.300     16.287     17.675
REMARK INTER + INTRA:          -5.486
REMARK INTER:                  -5.040
REMARK INTRA:                  -0.446
REMARK UNBOUND:                -0.181
REMARK  Name = /home/anacleto/Desktop/manuscript_Mpro/naturecomm/supplementary_file_S2/6-chemical-library/molecular_docking/3D_ligand_structure/890.pdb
REMARK  4 active torsions:
REMARK  status: ('A' for Active; 'I' for Inactive)
REMARK    1  A    between atoms: C4_5  and  C5_6
REMARK    2  A    between atoms: C5_6  and  N1_7
REMARK    3  A    between atoms: N1_7  and  C6_8
REMARK    4  A    between atoms: C6_8  and  C7_9
REMARK                            x       y       z     vdW  Elec       q    Type
REMARK                         _______ _______ _______ _____ _____    ______ ____
ROOT
ATOM      1  N1  UNL     1     -37.646  -3.415 -31.653  0.00  0.00    +0.000 NA
ATOM      2  H6  UNL     1     -36.990  -4.176 -31.492  0.00  0.00    +0.000 HD
ENDROOT
BRANCH   1   3
ATOM      3  C5  UNL     1     -38.514  -3.775 -32.778  0.00  0.00    +0.000 C 
BRANCH   3   8
ATOM      4  S1  UNL     1     -37.810  -2.493 -35.155  0.00  0.00    +0.000 S 
ATOM      5  C1  UNL     1     -38.608  -1.051 -35.611  0.00  0.00    +0.000 A 
ATOM      6  C2  UNL     1     -39.559  -0.672 -34.691  0.00  0.00    +0.000 A 
ATOM      7  C3  UNL     1     -39.633  -1.583 -33.598  0.00  0.00    +0.000 A 
ATOM      8  C4  UNL     1     -38.740  -2.629 -33.720  0.00  0.00    +0.000 A 
ENDBRANCH   3   8
ENDBRANCH   1   3
BRANCH   1   9
ATOM      9  C6  UNL     1     -38.407  -3.206 -30.421  0.00  0.00    +0.000 C 
BRANCH   9  10
ATOM     10  C7  UNL     1     -38.296  -1.768 -29.966  0.00  0.00    +0.000 A 
ATOM     11  C8  UNL     1     -37.123  -1.313 -29.347  0.00  0.00    +0.000 A 
ATOM     12  C9  UNL     1     -37.013   0.011 -28.918  0.00  0.00    +0.000 A 
ATOM     13  C10 UNL     1     -38.078   0.892 -29.100  0.00  0.00    +0.000 A 
ATOM     14  C11 UNL     1     -39.251   0.450 -29.709  0.00  0.00    +0.000 A 
ATOM     15  C12 UNL     1     -39.362  -0.874 -30.138  0.00  0.00    +0.000 A 
ENDBRANCH   9  10
ENDBRANCH   1   9
TORSDOF 4
ENDMDL
MODEL 7
REMARK VINA RESULT:    -4.253     17.393     19.284
REMARK INTER + INTRA:          -5.428
REMARK INTER:                  -5.019
REMARK INTRA:                  -0.409
REMARK UNBOUND:                -0.181
REMARK  Name = /home/anacleto/Desktop/manuscript_Mpro/naturecomm/supplementary_file_S2/6-chemical-library/molecular_docking/3D_ligand_structure/890.pdb
REMARK  4 active torsions:
REMARK  status: ('A' for Active; 'I' for Inactive)
REMARK    1  A    between atoms: C4_5  and  C5_6
REMARK    2  A    between atoms: C5_6  and  N1_7
REMARK    3  A    between atoms: N1_7  and  C6_8
REMARK    4  A    between atoms: C6_8  and  C7_9
REMARK                            x       y       z     vdW  Elec       q    Type
REMARK                         _______ _______ _______ _____ _____    ______ ____
ROOT
ATOM      1  N1  UNL     1     -38.491  -2.782 -26.326  0.00  0.00    +0.000 NA
ATOM      2  H6  UNL     1     -39.192  -3.489 -26.540  0.00  0.00    +0.000 HD
ENDROOT
BRANCH   1   3
ATOM      3  C5  UNL     1     -39.136  -1.467 -26.330  0.00  0.00    +0.000 C 
BRANCH   3   8
ATOM      4  S1  UNL     1     -39.745   0.586 -28.121  0.00  0.00    +0.000 S 
ATOM      5  C1  UNL     1     -38.601   1.047 -29.305  0.00  0.00    +0.000 A 
ATOM      6  C2  UNL     1     -37.446   0.303 -29.228  0.00  0.00    +0.000 A 
ATOM      7  C3  UNL     1     -37.503  -0.659 -28.178  0.00  0.00    +0.000 A 
ATOM      8  C4  UNL     1     -38.698  -0.616 -27.486  0.00  0.00    +0.000 A 
ENDBRANCH   3   8
ENDBRANCH   1   3
BRANCH   1   9
ATOM      9  C6  UNL     1     -37.911  -3.103 -25.020  0.00  0.00    +0.000 C 
BRANCH   9  10
ATOM     10  C7  UNL     1     -36.430  -3.375 -25.150  0.00  0.00    +0.000 A 
ATOM     11  C8  UNL     1     -35.554  -2.349 -25.532  0.00  0.00    +0.000 A 
ATOM     12  C9  UNL     1     -34.186  -2.594 -25.660  0.00  0.00    +0.000 A 
ATOM     13  C10 UNL     1     -33.680  -3.868 -25.412  0.00  0.00    +0.000 A 
ATOM     14  C11 UNL     1     -34.541  -4.898 -25.037  0.00  0.00    +0.000 A 
ATOM     15  C12 UNL     1     -35.910  -4.655 -24.909  0.00  0.00    +0.000 A 
ENDBRANCH   9  10
ENDBRANCH   1   9
TORSDOF 4
ENDMDL
MODEL 8
REMARK VINA RESULT:    -4.241      1.901      6.329
REMARK INTER + INTRA:          -5.413
REMARK INTER:                  -5.235
REMARK INTRA:                  -0.178
REMARK UNBOUND:                -0.181
REMARK  Name = /home/anacleto/Desktop/manuscript_Mpro/naturecomm/supplementary_file_S2/6-chemical-library/molecular_docking/3D_ligand_structure/890.pdb
REMARK  4 active torsions:
REMARK  status: ('A' for Active; 'I' for Inactive)
REMARK    1  A    between atoms: C4_5  and  C5_6
REMARK    2  A    between atoms: C5_6  and  N1_7
REMARK    3  A    between atoms: N1_7  and  C6_8
REMARK    4  A    between atoms: C6_8  and  C7_9
REMARK                            x       y       z     vdW  Elec       q    Type
REMARK                         _______ _______ _______ _____ _____    ______ ____
ROOT
ATOM      1  N1  UNL     1     -23.977   5.349 -39.439  0.00  0.00    +0.000 NA
ATOM      2  H6  UNL     1     -23.650   5.247 -38.480  0.00  0.00    +0.000 HD
ENDROOT
BRANCH   1   3
ATOM      3  C5  UNL     1     -25.428   5.554 -39.419  0.00  0.00    +0.000 C 
BRANCH   3   8
ATOM      4  S1  UNL     1     -27.886   4.305 -38.989  0.00  0.00    +0.000 S 
ATOM      5  C1  UNL     1     -27.936   2.740 -38.302  0.00  0.00    +0.000 A 
ATOM      6  C2  UNL     1     -26.677   2.256 -38.026  0.00  0.00    +0.000 A 
ATOM      7  C3  UNL     1     -25.659   3.185 -38.386  0.00  0.00    +0.000 A 
ATOM      8  C4  UNL     1     -26.173   4.347 -38.930  0.00  0.00    +0.000 A 
ENDBRANCH   3   8
ENDBRANCH   1   3
BRANCH   1   9
ATOM      9  C6  UNL     1     -23.272   6.482 -40.039  0.00  0.00    +0.000 C 
BRANCH   9  10
ATOM     10  C7  UNL     1     -22.672   7.362 -38.966  0.00  0.00    +0.000 A 
ATOM     11  C8  UNL     1     -21.365   7.131 -38.513  0.00  0.00    +0.000 A 
ATOM     12  C9  UNL     1     -20.806   7.934 -37.518  0.00  0.00    +0.000 A 
ATOM     13  C10 UNL     1     -21.549   8.975 -36.964  0.00  0.00    +0.000 A 
ATOM     14  C11 UNL     1     -22.851   9.212 -37.402  0.00  0.00    +0.000 A 
ATOM     15  C12 UNL     1     -23.411   8.408 -38.396  0.00  0.00    +0.000 A 
ENDBRANCH   9  10
ENDBRANCH   1   9
TORSDOF 4
ENDMDL
MODEL 9
REMARK VINA RESULT:    -4.148     24.820     26.121
REMARK INTER + INTRA:          -5.298
REMARK INTER:                  -5.117
REMARK INTRA:                  -0.181
REMARK UNBOUND:                -0.181
REMARK  Name = /home/anacleto/Desktop/manuscript_Mpro/naturecomm/supplementary_file_S2/6-chemical-library/molecular_docking/3D_ligand_structure/890.pdb
REMARK  4 active torsions:
REMARK  status: ('A' for Active; 'I' for Inactive)
REMARK    1  A    between atoms: C4_5  and  C5_6
REMARK    2  A    between atoms: C5_6  and  N1_7
REMARK    3  A    between atoms: N1_7  and  C6_8
REMARK    4  A    between atoms: C6_8  and  C7_9
REMARK                            x       y       z     vdW  Elec       q    Type
REMARK                         _______ _______ _______ _____ _____    ______ ____
ROOT
ATOM      1  N1  UNL     1     -37.852   3.238 -15.830  0.00  0.00    +0.000 NA
ATOM      2  H6  UNL     1     -38.634   3.720 -16.269  0.00  0.00    +0.000 HD
ENDROOT
BRANCH   1   3
ATOM      3  C5  UNL     1     -37.618   3.832 -14.511  0.00  0.00    +0.000 C 
BRANCH   3   8
ATOM      4  S1  UNL     1     -39.760   5.601 -14.239  0.00  0.00    +0.000 S 
ATOM      5  C1  UNL     1     -39.476   7.287 -14.245  0.00  0.00    +0.000 A 
ATOM      6  C2  UNL     1     -38.141   7.587 -14.394  0.00  0.00    +0.000 A 
ATOM      7  C3  UNL     1     -37.342   6.413 -14.503  0.00  0.00    +0.000 A 
ATOM      8  C4  UNL     1     -38.091   5.254 -14.430  0.00  0.00    +0.000 A 
ENDBRANCH   3   8
ENDBRANCH   1   3
BRANCH   1   9
ATOM      9  C6  UNL     1     -38.192   1.817 -15.737  0.00  0.00    +0.000 C 
BRANCH   9  10
ATOM     10  C7  UNL     1     -37.219   0.986 -16.542  0.00  0.00    +0.000 A 
ATOM     11  C8  UNL     1     -37.006  -0.362 -16.217  0.00  0.00    +0.000 A 
ATOM     12  C9  UNL     1     -36.105  -1.136 -16.951  0.00  0.00    +0.000 A 
ATOM     13  C10 UNL     1     -35.405  -0.568 -18.014  0.00  0.00    +0.000 A 
ATOM     14  C11 UNL     1     -35.604   0.771 -18.343  0.00  0.00    +0.000 A 
ATOM     15  C12 UNL     1     -36.505   1.546 -17.610  0.00  0.00    +0.000 A 
ENDBRANCH   9  10
ENDBRANCH   1   9
TORSDOF 4
ENDMDL
