MODEL 1
REMARK VINA RESULT:    -4.702      0.000      0.000
REMARK INTER + INTRA:          -5.394
REMARK INTER:                  -5.233
REMARK INTRA:                  -0.161
REMARK UNBOUND:                -0.142
REMARK  Name = /home/anacleto/Desktop/manuscript_Mpro/naturecomm/supplementary_file_S2/6-chemical-library/molecular_docking/3D_ligand_structure/1015.pdb
REMARK  2 active torsions:
REMARK  status: ('A' for Active; 'I' for Inactive)
REMARK    1  A    between atoms: C3_5  and  S1_8
REMARK    2  A    between atoms: S1_8  and  C5_9
REMARK                            x       y       z     vdW  Elec       q    Type
REMARK                         _______ _______ _______ _____ _____    ______ ____
ROOT
ATOM      1  N1  UNL     1      14.244  10.241  -5.209  0.00  0.00    +0.000 N 
ATOM      2  C1  UNL     1      13.578  10.908  -6.182  0.00  0.00    +0.000 C 
ATOM      3  O1  UNL     1      13.141  10.403  -7.202  0.00  0.00    +0.000 OA
ATOM      4  C2  UNL     1      13.483  12.361  -5.821  0.00  0.00    +0.000 C 
ATOM      5  C3  UNL     1      14.109  12.437  -4.429  0.00  0.00    +0.000 C 
ATOM      6  C4  UNL     1      14.655  11.046  -4.199  0.00  0.00    +0.000 C 
ATOM      7  O2  UNL     1      15.357  10.686  -3.263  0.00  0.00    +0.000 OA
ATOM      8  H1  UNL     1      14.477   9.263  -5.278  0.00  0.00    +0.000 HD
ENDROOT
BRANCH   5   9
ATOM      9  S1  UNL     1      15.444  13.666  -4.346  0.00  0.00    +0.000 S 
BRANCH   9  10
ATOM     10  C5  UNL     1      14.812  14.736  -3.156  0.00  0.00    +0.000 A 
ATOM     11  N2  UNL     1      15.424  15.206  -2.099  0.00  0.00    +0.000 NA
ATOM     12  N3  UNL     1      14.536  16.039  -1.448  0.00  0.00    +0.000 NA
ATOM     13  C6  UNL     1      13.415  16.041  -2.134  0.00  0.00    +0.000 A 
ATOM     14  N4  UNL     1      13.543  15.228  -3.218  0.00  0.00    +0.000 N 
ATOM     15  H6  UNL     1      12.876  15.070  -3.962  0.00  0.00    +0.000 HD
ENDBRANCH   9  10
ENDBRANCH   5   9
TORSDOF 2
ENDMDL
MODEL 2
REMARK VINA RESULT:    -4.641      2.540      3.040
REMARK INTER + INTRA:          -5.325
REMARK INTER:                  -5.158
REMARK INTRA:                  -0.167
REMARK UNBOUND:                -0.142
REMARK  Name = /home/anacleto/Desktop/manuscript_Mpro/naturecomm/supplementary_file_S2/6-chemical-library/molecular_docking/3D_ligand_structure/1015.pdb
REMARK  2 active torsions:
REMARK  status: ('A' for Active; 'I' for Inactive)
REMARK    1  A    between atoms: C3_5  and  S1_8
REMARK    2  A    between atoms: S1_8  and  C5_9
REMARK                            x       y       z     vdW  Elec       q    Type
REMARK                         _______ _______ _______ _____ _____    ______ ____
ROOT
ATOM      1  N1  UNL     1      14.620  11.086  -7.683  0.00  0.00    +0.000 N 
ATOM      2  C1  UNL     1      13.523  10.443  -7.218  0.00  0.00    +0.000 C 
ATOM      3  O1  UNL     1      12.702   9.869  -7.914  0.00  0.00    +0.000 OA
ATOM      4  C2  UNL     1      13.464  10.565  -5.724  0.00  0.00    +0.000 C 
ATOM      5  C3  UNL     1      14.755  11.298  -5.362  0.00  0.00    +0.000 C 
ATOM      6  C4  UNL     1      15.348  11.673  -6.702  0.00  0.00    +0.000 C 
ATOM      7  O2  UNL     1      16.322  12.390  -6.890  0.00  0.00    +0.000 OA
ATOM      8  H1  UNL     1      14.821  11.183  -8.666  0.00  0.00    +0.000 HD
ENDROOT
BRANCH   5   9
ATOM      9  S1  UNL     1      14.442  12.784  -4.367  0.00  0.00    +0.000 S 
BRANCH   9  10
ATOM     10  C5  UNL     1      15.267  12.369  -2.915  0.00  0.00    +0.000 A 
ATOM     11  N2  UNL     1      15.951  13.163  -2.130  0.00  0.00    +0.000 NA
ATOM     12  N3  UNL     1      16.416  12.398  -1.079  0.00  0.00    +0.000 NA
ATOM     13  C6  UNL     1      15.999  11.167  -1.267  0.00  0.00    +0.000 A 
ATOM     14  N4  UNL     1      15.275  11.101  -2.417  0.00  0.00    +0.000 N 
ATOM     15  H6  UNL     1      14.776  10.306  -2.796  0.00  0.00    +0.000 HD
ENDBRANCH   9  10
ENDBRANCH   5   9
TORSDOF 2
ENDMDL
MODEL 3
REMARK VINA RESULT:    -4.504      1.529      2.663
REMARK INTER + INTRA:          -5.172
REMARK INTER:                  -4.956
REMARK INTRA:                  -0.216
REMARK UNBOUND:                -0.142
REMARK  Name = /home/anacleto/Desktop/manuscript_Mpro/naturecomm/supplementary_file_S2/6-chemical-library/molecular_docking/3D_ligand_structure/1015.pdb
REMARK  2 active torsions:
REMARK  status: ('A' for Active; 'I' for Inactive)
REMARK    1  A    between atoms: C3_5  and  S1_8
REMARK    2  A    between atoms: S1_8  and  C5_9
REMARK                            x       y       z     vdW  Elec       q    Type
REMARK                         _______ _______ _______ _____ _____    ______ ____
ROOT
ATOM      1  N1  UNL     1      14.623  10.638  -3.585  0.00  0.00    +0.000 N 
ATOM      2  C1  UNL     1      15.944  10.701  -3.292  0.00  0.00    +0.000 C 
ATOM      3  O1  UNL     1      16.453  10.273  -2.270  0.00  0.00    +0.000 OA
ATOM      4  C2  UNL     1      16.674  11.394  -4.404  0.00  0.00    +0.000 C 
ATOM      5  C3  UNL     1      15.593  11.645  -5.455  0.00  0.00    +0.000 C 
ATOM      6  C4  UNL     1      14.313  11.221  -4.769  0.00  0.00    +0.000 C 
ATOM      7  O2  UNL     1      13.176  11.373  -5.196  0.00  0.00    +0.000 OA
ATOM      8  H1  UNL     1      13.938  10.268  -2.945  0.00  0.00    +0.000 HD
ENDROOT
BRANCH   5   9
ATOM      9  S1  UNL     1      15.505  13.393  -5.941  0.00  0.00    +0.000 S 
BRANCH   9  10
ATOM     10  C5  UNL     1      15.160  14.124  -4.422  0.00  0.00    +0.000 A 
ATOM     11  N2  UNL     1      16.017  14.525  -3.516  0.00  0.00    +0.000 NA
ATOM     12  N3  UNL     1      15.288  15.064  -2.475  0.00  0.00    +0.000 NA
ATOM     13  C6  UNL     1      14.015  14.968  -2.786  0.00  0.00    +0.000 A 
ATOM     14  N4  UNL     1      13.888  14.375  -4.005  0.00  0.00    +0.000 N 
ATOM     15  H6  UNL     1      13.042  14.217  -4.537  0.00  0.00    +0.000 HD
ENDBRANCH   9  10
ENDBRANCH   5   9
TORSDOF 2
ENDMDL
MODEL 4
REMARK VINA RESULT:    -4.420     15.510     16.376
REMARK INTER + INTRA:          -5.079
REMARK INTER:                  -4.918
REMARK INTRA:                  -0.161
REMARK UNBOUND:                -0.142
REMARK  Name = /home/anacleto/Desktop/manuscript_Mpro/naturecomm/supplementary_file_S2/6-chemical-library/molecular_docking/3D_ligand_structure/1015.pdb
REMARK  2 active torsions:
REMARK  status: ('A' for Active; 'I' for Inactive)
REMARK    1  A    between atoms: C3_5  and  S1_8
REMARK    2  A    between atoms: S1_8  and  C5_9
REMARK                            x       y       z     vdW  Elec       q    Type
REMARK                         _______ _______ _______ _____ _____    ______ ____
ROOT
ATOM      1  N1  UNL     1      14.876   2.047   9.608  0.00  0.00    +0.000 N 
ATOM      2  C1  UNL     1      15.100   1.640   8.336  0.00  0.00    +0.000 C 
ATOM      3  O1  UNL     1      14.490   0.748   7.770  0.00  0.00    +0.000 OA
ATOM      4  C2  UNL     1      16.223   2.438   7.742  0.00  0.00    +0.000 C 
ATOM      5  C3  UNL     1      16.566   3.456   8.829  0.00  0.00    +0.000 C 
ATOM      6  C4  UNL     1      15.718   3.031  10.007  0.00  0.00    +0.000 C 
ATOM      7  O2  UNL     1      15.770   3.487  11.142  0.00  0.00    +0.000 OA
ATOM      8  H1  UNL     1      14.206   1.601  10.215  0.00  0.00    +0.000 HD
ENDROOT
BRANCH   5   9
ATOM      9  S1  UNL     1      18.328   3.418   9.268  0.00  0.00    +0.000 S 
BRANCH   9  10
ATOM     10  C5  UNL     1      18.702   5.097   9.210  0.00  0.00    +0.000 A 
ATOM     11  N2  UNL     1      19.043   5.874  10.207  0.00  0.00    +0.000 NA
ATOM     12  N3  UNL     1      19.266   7.133   9.687  0.00  0.00    +0.000 NA
ATOM     13  C6  UNL     1      19.049   7.074   8.392  0.00  0.00    +0.000 A 
ATOM     14  N4  UNL     1      18.685   5.808   8.049  0.00  0.00    +0.000 N 
ATOM     15  H6  UNL     1      18.511   5.439   7.123  0.00  0.00    +0.000 HD
ENDBRANCH   9  10
ENDBRANCH   5   9
TORSDOF 2
ENDMDL
MODEL 5
REMARK VINA RESULT:    -4.368      3.175      3.761
REMARK INTER + INTRA:          -5.021
REMARK INTER:                  -4.649
REMARK INTRA:                  -0.372
REMARK UNBOUND:                -0.142
REMARK  Name = /home/anacleto/Desktop/manuscript_Mpro/naturecomm/supplementary_file_S2/6-chemical-library/molecular_docking/3D_ligand_structure/1015.pdb
REMARK  2 active torsions:
REMARK  status: ('A' for Active; 'I' for Inactive)
REMARK    1  A    between atoms: C3_5  and  S1_8
REMARK    2  A    between atoms: S1_8  and  C5_9
REMARK                            x       y       z     vdW  Elec       q    Type
REMARK                         _______ _______ _______ _____ _____    ______ ____
ROOT
ATOM      1  N1  UNL     1      13.879  13.246  -4.620  0.00  0.00    +0.000 N 
ATOM      2  C1  UNL     1      13.920  12.047  -5.249  0.00  0.00    +0.000 C 
ATOM      3  O1  UNL     1      13.196  11.717  -6.173  0.00  0.00    +0.000 OA
ATOM      4  C2  UNL     1      14.976  11.186  -4.619  0.00  0.00    +0.000 C 
ATOM      5  C3  UNL     1      15.627  12.099  -3.582  0.00  0.00    +0.000 C 
ATOM      6  C4  UNL     1      14.768  13.343  -3.601  0.00  0.00    +0.000 C 
ATOM      7  O2  UNL     1      14.844  14.291  -2.830  0.00  0.00    +0.000 OA
ATOM      8  H1  UNL     1      13.198  13.956  -4.842  0.00  0.00    +0.000 HD
ENDROOT
BRANCH   5   9
ATOM      9  S1  UNL     1      15.632  11.355  -1.924  0.00  0.00    +0.000 S 
BRANCH   9  10
ATOM     10  C5  UNL     1      17.078  12.032  -1.282  0.00  0.00    +0.000 A 
ATOM     11  N2  UNL     1      18.228  11.433  -1.103  0.00  0.00    +0.000 NA
ATOM     12  N3  UNL     1      19.100  12.369  -0.583  0.00  0.00    +0.000 NA
ATOM     13  C6  UNL     1      18.444  13.501  -0.463  0.00  0.00    +0.000 A 
ATOM     14  N4  UNL     1      17.162  13.332  -0.887  0.00  0.00    +0.000 N 
ATOM     15  H6  UNL     1      16.435  14.032  -0.971  0.00  0.00    +0.000 HD
ENDBRANCH   9  10
ENDBRANCH   5   9
TORSDOF 2
ENDMDL
MODEL 6
REMARK VINA RESULT:    -4.321      1.692      2.066
REMARK INTER + INTRA:          -4.968
REMARK INTER:                  -4.641
REMARK INTRA:                  -0.327
REMARK UNBOUND:                -0.142
REMARK  Name = /home/anacleto/Desktop/manuscript_Mpro/naturecomm/supplementary_file_S2/6-chemical-library/molecular_docking/3D_ligand_structure/1015.pdb
REMARK  2 active torsions:
REMARK  status: ('A' for Active; 'I' for Inactive)
REMARK    1  A    between atoms: C3_5  and  S1_8
REMARK    2  A    between atoms: S1_8  and  C5_9
REMARK                            x       y       z     vdW  Elec       q    Type
REMARK                         _______ _______ _______ _____ _____    ______ ____
ROOT
ATOM      1  N1  UNL     1      14.569  10.583  -3.939  0.00  0.00    +0.000 N 
ATOM      2  C1  UNL     1      14.021  11.130  -5.050  0.00  0.00    +0.000 C 
ATOM      3  O1  UNL     1      13.528  10.499  -5.970  0.00  0.00    +0.000 OA
ATOM      4  C2  UNL     1      14.136  12.625  -4.983  0.00  0.00    +0.000 C 
ATOM      5  C3  UNL     1      14.748  12.887  -3.608  0.00  0.00    +0.000 C 
ATOM      6  C4  UNL     1      15.080  11.506  -3.088  0.00  0.00    +0.000 C 
ATOM      7  O2  UNL     1      15.709  11.244  -2.071  0.00  0.00    +0.000 OA
ATOM      8  H1  UNL     1      14.656   9.587  -3.806  0.00  0.00    +0.000 HD
ENDROOT
BRANCH   5   9
ATOM      9  S1  UNL     1      16.248  13.906  -3.710  0.00  0.00    +0.000 S 
BRANCH   9  10
ATOM     10  C5  UNL     1      16.304  14.542  -2.112  0.00  0.00    +0.000 A 
ATOM     11  N2  UNL     1      15.677  15.594  -1.649  0.00  0.00    +0.000 NA
ATOM     12  N3  UNL     1      16.005  15.711  -0.313  0.00  0.00    +0.000 NA
ATOM     13  C6  UNL     1      16.822  14.726  -0.016  0.00  0.00    +0.000 A 
ATOM     14  N4  UNL     1      17.043  13.966  -1.123  0.00  0.00    +0.000 N 
ATOM     15  H6  UNL     1      17.576  13.110  -1.196  0.00  0.00    +0.000 HD
ENDBRANCH   9  10
ENDBRANCH   5   9
TORSDOF 2
ENDMDL
MODEL 7
REMARK VINA RESULT:    -4.121     17.934     18.588
REMARK INTER + INTRA:          -4.744
REMARK INTER:                  -4.421
REMARK INTRA:                  -0.324
REMARK UNBOUND:                -0.142
REMARK  Name = /home/anacleto/Desktop/manuscript_Mpro/naturecomm/supplementary_file_S2/6-chemical-library/molecular_docking/3D_ligand_structure/1015.pdb
REMARK  2 active torsions:
REMARK  status: ('A' for Active; 'I' for Inactive)
REMARK    1  A    between atoms: C3_5  and  S1_8
REMARK    2  A    between atoms: S1_8  and  C5_9
REMARK                            x       y       z     vdW  Elec       q    Type
REMARK                         _______ _______ _______ _____ _____    ______ ____
ROOT
ATOM      1  N1  UNL     1      26.054  16.517   8.630  0.00  0.00    +0.000 N 
ATOM      2  C1  UNL     1      26.440  15.236   8.836  0.00  0.00    +0.000 C 
ATOM      3  O1  UNL     1      27.175  14.600   8.100  0.00  0.00    +0.000 OA
ATOM      4  C2  UNL     1      25.808  14.717  10.094  0.00  0.00    +0.000 C 
ATOM      5  C3  UNL     1      25.064  15.926  10.659  0.00  0.00    +0.000 C 
ATOM      6  C4  UNL     1      25.204  16.977   9.581  0.00  0.00    +0.000 C 
ATOM      7  O2  UNL     1      24.648  18.066   9.551  0.00  0.00    +0.000 OA
ATOM      8  H1  UNL     1      26.312  17.040   7.807  0.00  0.00    +0.000 HD
ENDROOT
BRANCH   5   9
ATOM      9  S1  UNL     1      23.311  15.565  10.972  0.00  0.00    +0.000 S 
BRANCH   9  10
ATOM     10  C5  UNL     1      22.960  16.741  12.178  0.00  0.00    +0.000 A 
ATOM     11  N2  UNL     1      23.173  16.651  13.467  0.00  0.00    +0.000 NA
ATOM     12  N3  UNL     1      22.753  17.837  14.035  0.00  0.00    +0.000 NA
ATOM     13  C6  UNL     1      22.297  18.602  13.069  0.00  0.00    +0.000 A 
ATOM     14  N4  UNL     1      22.403  17.948  11.880  0.00  0.00    +0.000 N 
ATOM     15  H6  UNL     1      22.191  18.297  10.955  0.00  0.00    +0.000 HD
ENDBRANCH   9  10
ENDBRANCH   5   9
TORSDOF 2
ENDMDL
MODEL 8
REMARK VINA RESULT:    -4.042      3.301      5.550
REMARK INTER + INTRA:          -4.656
REMARK INTER:                  -4.514
REMARK INTRA:                  -0.142
REMARK UNBOUND:                -0.142
REMARK  Name = /home/anacleto/Desktop/manuscript_Mpro/naturecomm/supplementary_file_S2/6-chemical-library/molecular_docking/3D_ligand_structure/1015.pdb
REMARK  2 active torsions:
REMARK  status: ('A' for Active; 'I' for Inactive)
REMARK    1  A    between atoms: C3_5  and  S1_8
REMARK    2  A    between atoms: S1_8  and  C5_9
REMARK                            x       y       z     vdW  Elec       q    Type
REMARK                         _______ _______ _______ _____ _____    ______ ____
ROOT
ATOM      1  N1  UNL     1      17.976  14.246  -0.852  0.00  0.00    +0.000 N 
ATOM      2  C1  UNL     1      16.805  14.908  -0.693  0.00  0.00    +0.000 C 
ATOM      3  O1  UNL     1      16.627  15.838   0.075  0.00  0.00    +0.000 OA
ATOM      4  C2  UNL     1      15.761  14.306  -1.587  0.00  0.00    +0.000 C 
ATOM      5  C3  UNL     1      16.523  13.244  -2.380  0.00  0.00    +0.000 C 
ATOM      6  C4  UNL     1      17.894  13.227  -1.742  0.00  0.00    +0.000 C 
ATOM      7  O2  UNL     1      18.793  12.430  -1.974  0.00  0.00    +0.000 OA
ATOM      8  H1  UNL     1      18.796  14.445  -0.300  0.00  0.00    +0.000 HD
ENDROOT
BRANCH   5   9
ATOM      9  S1  UNL     1      15.743  11.609  -2.257  0.00  0.00    +0.000 S 
BRANCH   9  10
ATOM     10  C5  UNL     1      14.791  11.606  -3.691  0.00  0.00    +0.000 A 
ATOM     11  N2  UNL     1      14.558  12.612  -4.496  0.00  0.00    +0.000 NA
ATOM     12  N3  UNL     1      13.763  12.139  -5.521  0.00  0.00    +0.000 NA
ATOM     13  C6  UNL     1      13.541  10.864  -5.298  0.00  0.00    +0.000 A 
ATOM     14  N4  UNL     1      14.167  10.486  -4.150  0.00  0.00    +0.000 N 
ATOM     15  H6  UNL     1      14.230   9.559  -3.750  0.00  0.00    +0.000 HD
ENDBRANCH   9  10
ENDBRANCH   5   9
TORSDOF 2
ENDMDL
MODEL 9
REMARK VINA RESULT:    -3.976      3.005      4.372
REMARK INTER + INTRA:          -4.583
REMARK INTER:                  -4.349
REMARK INTRA:                  -0.234
REMARK UNBOUND:                -0.142
REMARK  Name = /home/anacleto/Desktop/manuscript_Mpro/naturecomm/supplementary_file_S2/6-chemical-library/molecular_docking/3D_ligand_structure/1015.pdb
REMARK  2 active torsions:
REMARK  status: ('A' for Active; 'I' for Inactive)
REMARK    1  A    between atoms: C3_5  and  S1_8
REMARK    2  A    between atoms: S1_8  and  C5_9
REMARK                            x       y       z     vdW  Elec       q    Type
REMARK                         _______ _______ _______ _____ _____    ______ ____
ROOT
ATOM      1  N1  UNL     1      14.603  10.611  -3.560  0.00  0.00    +0.000 N 
ATOM      2  C1  UNL     1      14.107  10.975  -4.767  0.00  0.00    +0.000 C 
ATOM      3  O1  UNL     1      13.439  10.258  -5.492  0.00  0.00    +0.000 OA
ATOM      4  C2  UNL     1      14.524  12.382  -5.078  0.00  0.00    +0.000 C 
ATOM      5  C3  UNL     1      15.263  12.835  -3.820  0.00  0.00    +0.000 C 
ATOM      6  C4  UNL     1      15.343  11.584  -2.974  0.00  0.00    +0.000 C 
ATOM      7  O2  UNL     1      15.971  11.451  -1.932  0.00  0.00    +0.000 OA
ATOM      8  H1  UNL     1      14.496   9.682  -3.182  0.00  0.00    +0.000 HD
ENDROOT
BRANCH   5   9
ATOM      9  S1  UNL     1      16.927  13.460  -4.192  0.00  0.00    +0.000 S 
BRANCH   9  10
ATOM     10  C5  UNL     1      17.709  12.002  -4.668  0.00  0.00    +0.000 A 
ATOM     11  N2  UNL     1      17.624  11.391  -5.822  0.00  0.00    +0.000 NA
ATOM     12  N3  UNL     1      18.435  10.275  -5.755  0.00  0.00    +0.000 NA
ATOM     13  C6  UNL     1      18.981  10.251  -4.560  0.00  0.00    +0.000 A 
ATOM     14  N4  UNL     1      18.546  11.319  -3.838  0.00  0.00    +0.000 N 
ATOM     15  H6  UNL     1      18.833  11.604  -2.910  0.00  0.00    +0.000 HD
ENDBRANCH   9  10
ENDBRANCH   5   9
TORSDOF 2
ENDMDL
