MODEL 1
REMARK VINA RESULT:    -4.154      0.000      0.000
REMARK INTER + INTRA:          -4.154
REMARK INTER:                  -4.154
REMARK INTRA:                   0.000
REMARK UNBOUND:                 0.000
REMARK  Name = /home/anacleto/Desktop/manuscript_Mpro/naturecomm/supplementary_file_S2/6-chemical-library/molecular_docking/3D_ligand_structure/189.pdb
REMARK  0 active torsions:
REMARK  status: ('A' for Active; 'I' for Inactive)
REMARK                            x       y       z     vdW  Elec       q    Type
REMARK                         _______ _______ _______ _____ _____    ______ ____
ROOT
ATOM      1  C1  UNL     1      15.909  11.386  -6.738  0.00  0.00    +0.000 A 
ATOM      2  C2  UNL     1      14.612  11.787  -7.060  0.00  0.00    +0.000 A 
ATOM      3  C3  UNL     1      13.623  11.815  -6.072  0.00  0.00    +0.000 A 
ATOM      4  C4  UNL     1      13.928  11.440  -4.762  0.00  0.00    +0.000 A 
ATOM      5  C5  UNL     1      15.223  11.039  -4.439  0.00  0.00    +0.000 A 
ATOM      6  C6  UNL     1      16.210  11.012  -5.426  0.00  0.00    +0.000 A 
ATOM      7  O1  UNL     1      15.465  10.682  -3.134  0.00  0.00    +0.000 OA
ATOM      8  C7  UNL     1      16.740  10.285  -2.809  0.00  0.00    +0.000 A 
ATOM      9  C8  UNL     1      17.777  10.212  -3.647  0.00  0.00    +0.000 A 
ATOM     10  C9  UNL     1      17.570  10.584  -5.057  0.00  0.00    +0.000 A 
ATOM     11  O2  UNL     1      18.488  10.534  -5.865  0.00  0.00    +0.000 OA
ENDROOT
TORSDOF 0
ENDMDL
MODEL 2
REMARK VINA RESULT:    -4.135      1.156      3.367
REMARK INTER + INTRA:          -4.135
REMARK INTER:                  -4.135
REMARK INTRA:                   0.000
REMARK UNBOUND:                 0.000
REMARK  Name = /home/anacleto/Desktop/manuscript_Mpro/naturecomm/supplementary_file_S2/6-chemical-library/molecular_docking/3D_ligand_structure/189.pdb
REMARK  0 active torsions:
REMARK  status: ('A' for Active; 'I' for Inactive)
REMARK                            x       y       z     vdW  Elec       q    Type
REMARK                         _______ _______ _______ _____ _____    ______ ____
ROOT
ATOM      1  C1  UNL     1      17.548  10.570  -5.093  0.00  0.00    +0.000 A 
ATOM      2  C2  UNL     1      17.835  10.168  -3.788  0.00  0.00    +0.000 A 
ATOM      3  C3  UNL     1      16.867  10.295  -2.788  0.00  0.00    +0.000 A 
ATOM      4  C4  UNL     1      15.611  10.825  -3.089  0.00  0.00    +0.000 A 
ATOM      5  C5  UNL     1      15.322  11.227  -4.393  0.00  0.00    +0.000 A 
ATOM      6  C6  UNL     1      16.289  11.100  -5.391  0.00  0.00    +0.000 A 
ATOM      7  O1  UNL     1      14.069  11.740  -4.630  0.00  0.00    +0.000 OA
ATOM      8  C7  UNL     1      13.778  12.139  -5.913  0.00  0.00    +0.000 A 
ATOM      9  C8  UNL     1      14.603  12.075  -6.961  0.00  0.00    +0.000 A 
ATOM     10  C9  UNL     1      15.957  11.532  -6.759  0.00  0.00    +0.000 A 
ATOM     11  O2  UNL     1      16.751  11.452  -7.687  0.00  0.00    +0.000 OA
ENDROOT
TORSDOF 0
ENDMDL
MODEL 3
REMARK VINA RESULT:    -4.027     15.505     17.216
REMARK INTER + INTRA:          -4.027
REMARK INTER:                  -4.027
REMARK INTRA:                   0.000
REMARK UNBOUND:                 0.000
REMARK  Name = /home/anacleto/Desktop/manuscript_Mpro/naturecomm/supplementary_file_S2/6-chemical-library/molecular_docking/3D_ligand_structure/189.pdb
REMARK  0 active torsions:
REMARK  status: ('A' for Active; 'I' for Inactive)
REMARK                            x       y       z     vdW  Elec       q    Type
REMARK                         _______ _______ _______ _____ _____    ______ ____
ROOT
ATOM      1  C1  UNL     1      18.909   6.598   9.705  0.00  0.00    +0.000 A 
ATOM      2  C2  UNL     1      19.458   6.088   8.528  0.00  0.00    +0.000 A 
ATOM      3  C3  UNL     1      20.831   5.844   8.444  0.00  0.00    +0.000 A 
ATOM      4  C4  UNL     1      21.660   6.109   9.536  0.00  0.00    +0.000 A 
ATOM      5  C5  UNL     1      21.113   6.618  10.714  0.00  0.00    +0.000 A 
ATOM      6  C6  UNL     1      19.742   6.862  10.796  0.00  0.00    +0.000 A 
ATOM      7  O1  UNL     1      21.978   6.859  11.756  0.00  0.00    +0.000 OA
ATOM      8  C7  UNL     1      21.445   7.362  12.919  0.00  0.00    +0.000 A 
ATOM      9  C8  UNL     1      20.158   7.641  13.137  0.00  0.00    +0.000 A 
ATOM     10  C9  UNL     1      19.192   7.400  12.052  0.00  0.00    +0.000 A 
ATOM     11  O2  UNL     1      18.001   7.640  12.202  0.00  0.00    +0.000 OA
ENDROOT
TORSDOF 0
ENDMDL
MODEL 4
REMARK VINA RESULT:    -3.998     16.247     17.518
REMARK INTER + INTRA:          -3.998
REMARK INTER:                  -3.998
REMARK INTRA:                   0.000
REMARK UNBOUND:                 0.000
REMARK  Name = /home/anacleto/Desktop/manuscript_Mpro/naturecomm/supplementary_file_S2/6-chemical-library/molecular_docking/3D_ligand_structure/189.pdb
REMARK  0 active torsions:
REMARK  status: ('A' for Active; 'I' for Inactive)
REMARK                            x       y       z     vdW  Elec       q    Type
REMARK                         _______ _______ _______ _____ _____    ______ ____
ROOT
ATOM      1  C1  UNL     1      15.509   0.668   7.590  0.00  0.00    +0.000 A 
ATOM      2  C2  UNL     1      16.384   1.753   7.651  0.00  0.00    +0.000 A 
ATOM      3  C3  UNL     1      16.215   2.733   8.633  0.00  0.00    +0.000 A 
ATOM      4  C4  UNL     1      15.172   2.632   9.555  0.00  0.00    +0.000 A 
ATOM      5  C5  UNL     1      14.298   1.547   9.497  0.00  0.00    +0.000 A 
ATOM      6  C6  UNL     1      14.467   0.570   8.516  0.00  0.00    +0.000 A 
ATOM      7  O1  UNL     1      13.290   1.500  10.431  0.00  0.00    +0.000 OA
ATOM      8  C7  UNL     1      12.424   0.434  10.378  0.00  0.00    +0.000 A 
ATOM      9  C8  UNL     1      12.468  -0.570   9.498  0.00  0.00    +0.000 A 
ATOM     10  C9  UNL     1      13.528  -0.565   8.476  0.00  0.00    +0.000 A 
ATOM     11  O2  UNL     1      13.611  -1.461   7.648  0.00  0.00    +0.000 OA
ENDROOT
TORSDOF 0
ENDMDL
MODEL 5
REMARK VINA RESULT:    -3.958     15.217     17.048
REMARK INTER + INTRA:          -3.958
REMARK INTER:                  -3.958
REMARK INTRA:                   0.000
REMARK UNBOUND:                 0.000
REMARK  Name = /home/anacleto/Desktop/manuscript_Mpro/naturecomm/supplementary_file_S2/6-chemical-library/molecular_docking/3D_ligand_structure/189.pdb
REMARK  0 active torsions:
REMARK  status: ('A' for Active; 'I' for Inactive)
REMARK                            x       y       z     vdW  Elec       q    Type
REMARK                         _______ _______ _______ _____ _____    ______ ____
ROOT
ATOM      1  C1  UNL     1      21.557   5.948   9.700  0.00  0.00    +0.000 A 
ATOM      2  C2  UNL     1      20.954   5.725   8.462  0.00  0.00    +0.000 A 
ATOM      3  C3  UNL     1      19.624   6.101   8.254  0.00  0.00    +0.000 A 
ATOM      4  C4  UNL     1      18.894   6.700   9.282  0.00  0.00    +0.000 A 
ATOM      5  C5  UNL     1      19.495   6.924  10.520  0.00  0.00    +0.000 A 
ATOM      6  C6  UNL     1      20.823   6.549  10.727  0.00  0.00    +0.000 A 
ATOM      7  O1  UNL     1      18.728   7.518  11.494  0.00  0.00    +0.000 OA
ATOM      8  C7  UNL     1      19.316   7.741  12.717  0.00  0.00    +0.000 A 
ATOM      9  C8  UNL     1      20.571   7.435  13.053  0.00  0.00    +0.000 A 
ATOM     10  C9  UNL     1      21.434   6.797  12.044  0.00  0.00    +0.000 A 
ATOM     11  O2  UNL     1      22.591   6.497  12.302  0.00  0.00    +0.000 OA
ENDROOT
TORSDOF 0
ENDMDL
MODEL 6
REMARK VINA RESULT:    -3.897     16.265     17.800
REMARK INTER + INTRA:          -3.897
REMARK INTER:                  -3.897
REMARK INTRA:                   0.000
REMARK UNBOUND:                 0.000
REMARK  Name = /home/anacleto/Desktop/manuscript_Mpro/naturecomm/supplementary_file_S2/6-chemical-library/molecular_docking/3D_ligand_structure/189.pdb
REMARK  0 active torsions:
REMARK  status: ('A' for Active; 'I' for Inactive)
REMARK                            x       y       z     vdW  Elec       q    Type
REMARK                         _______ _______ _______ _____ _____    ______ ____
ROOT
ATOM      1  C1  UNL     1      14.534   1.961   9.384  0.00  0.00    +0.000 A 
ATOM      2  C2  UNL     1      15.652   2.446   8.704  0.00  0.00    +0.000 A 
ATOM      3  C3  UNL     1      16.241   1.682   7.693  0.00  0.00    +0.000 A 
ATOM      4  C4  UNL     1      15.716   0.432   7.359  0.00  0.00    +0.000 A 
ATOM      5  C5  UNL     1      14.598  -0.053   8.037  0.00  0.00    +0.000 A 
ATOM      6  C6  UNL     1      14.010   0.710   9.047  0.00  0.00    +0.000 A 
ATOM      7  O1  UNL     1      14.124  -1.289   7.665  0.00  0.00    +0.000 OA
ATOM      8  C7  UNL     1      13.023  -1.774   8.330  0.00  0.00    +0.000 A 
ATOM      9  C8  UNL     1      12.363  -1.154   9.311  0.00  0.00    +0.000 A 
ATOM     10  C9  UNL     1      12.831   0.172   9.746  0.00  0.00    +0.000 A 
ATOM     11  O2  UNL     1      12.261   0.781  10.641  0.00  0.00    +0.000 OA
ENDROOT
TORSDOF 0
ENDMDL
MODEL 7
REMARK VINA RESULT:    -3.892     14.955     16.884
REMARK INTER + INTRA:          -3.892
REMARK INTER:                  -3.892
REMARK INTRA:                   0.000
REMARK UNBOUND:                 0.000
REMARK  Name = /home/anacleto/Desktop/manuscript_Mpro/naturecomm/supplementary_file_S2/6-chemical-library/molecular_docking/3D_ligand_structure/189.pdb
REMARK  0 active torsions:
REMARK  status: ('A' for Active; 'I' for Inactive)
REMARK                            x       y       z     vdW  Elec       q    Type
REMARK                         _______ _______ _______ _____ _____    ______ ____
ROOT
ATOM      1  C1  UNL     1      19.447   7.173  10.239  0.00  0.00    +0.000 A 
ATOM      2  C2  UNL     1      18.830   6.960   9.005  0.00  0.00    +0.000 A 
ATOM      3  C3  UNL     1      19.470   6.194   8.027  0.00  0.00    +0.000 A 
ATOM      4  C4  UNL     1      20.727   5.640   8.278  0.00  0.00    +0.000 A 
ATOM      5  C5  UNL     1      21.344   5.851   9.510  0.00  0.00    +0.000 A 
ATOM      6  C6  UNL     1      20.704   6.616  10.487  0.00  0.00    +0.000 A 
ATOM      7  O1  UNL     1      22.580   5.280   9.701  0.00  0.00    +0.000 OA
ATOM      8  C7  UNL     1      23.194   5.485  10.914  0.00  0.00    +0.000 A 
ATOM      9  C8  UNL     1      22.701   6.191  11.934  0.00  0.00    +0.000 A 
ATOM     10  C9  UNL     1      21.379   6.823  11.779  0.00  0.00    +0.000 A 
ATOM     11  O2  UNL     1      20.884   7.480  12.685  0.00  0.00    +0.000 OA
ENDROOT
TORSDOF 0
ENDMDL
MODEL 8
REMARK VINA RESULT:    -3.872      1.758      3.761
REMARK INTER + INTRA:          -3.872
REMARK INTER:                  -3.872
REMARK INTRA:                   0.000
REMARK UNBOUND:                 0.000
REMARK  Name = /home/anacleto/Desktop/manuscript_Mpro/naturecomm/supplementary_file_S2/6-chemical-library/molecular_docking/3D_ligand_structure/189.pdb
REMARK  0 active torsions:
REMARK  status: ('A' for Active; 'I' for Inactive)
REMARK                            x       y       z     vdW  Elec       q    Type
REMARK                         _______ _______ _______ _____ _____    ______ ____
ROOT
ATOM      1  C1  UNL     1      17.208  11.552  -4.932  0.00  0.00    +0.000 A 
ATOM      2  C2  UNL     1      18.246  11.893  -5.800  0.00  0.00    +0.000 A 
ATOM      3  C3  UNL     1      17.996  12.034  -7.168  0.00  0.00    +0.000 A 
ATOM      4  C4  UNL     1      16.709  11.835  -7.671  0.00  0.00    +0.000 A 
ATOM      5  C5  UNL     1      15.670  11.496  -6.805  0.00  0.00    +0.000 A 
ATOM      6  C6  UNL     1      15.921  11.354  -5.440  0.00  0.00    +0.000 A 
ATOM      7  O1  UNL     1      14.425  11.312  -7.357  0.00  0.00    +0.000 OA
ATOM      8  C7  UNL     1      13.396  10.977  -6.508  0.00  0.00    +0.000 A 
ATOM      9  C8  UNL     1      13.492  10.810  -5.187  0.00  0.00    +0.000 A 
ATOM     10  C9  UNL     1      14.806  10.995  -4.547  0.00  0.00    +0.000 A 
ATOM     11  O2  UNL     1      14.945  10.853  -3.340  0.00  0.00    +0.000 OA
ENDROOT
TORSDOF 0
ENDMDL
MODEL 9
REMARK VINA RESULT:    -3.851     18.123     19.180
REMARK INTER + INTRA:          -3.851
REMARK INTER:                  -3.851
REMARK INTRA:                   0.000
REMARK UNBOUND:                 0.000
REMARK  Name = /home/anacleto/Desktop/manuscript_Mpro/naturecomm/supplementary_file_S2/6-chemical-library/molecular_docking/3D_ligand_structure/189.pdb
REMARK  0 active torsions:
REMARK  status: ('A' for Active; 'I' for Inactive)
REMARK                            x       y       z     vdW  Elec       q    Type
REMARK                         _______ _______ _______ _____ _____    ______ ____
ROOT
ATOM      1  C1  UNL     1      22.960  17.887  12.249  0.00  0.00    +0.000 A 
ATOM      2  C2  UNL     1      22.197  17.106  13.118  0.00  0.00    +0.000 A 
ATOM      3  C3  UNL     1      22.260  15.712  13.042  0.00  0.00    +0.000 A 
ATOM      4  C4  UNL     1      23.083  15.095  12.098  0.00  0.00    +0.000 A 
ATOM      5  C5  UNL     1      23.846  15.874  11.230  0.00  0.00    +0.000 A 
ATOM      6  C6  UNL     1      23.784  17.266  11.306  0.00  0.00    +0.000 A 
ATOM      7  O1  UNL     1      24.639  15.212  10.322  0.00  0.00    +0.000 OA
ATOM      8  C7  UNL     1      25.393  15.975   9.462  0.00  0.00    +0.000 A 
ATOM      9  C8  UNL     1      25.431  17.309   9.424  0.00  0.00    +0.000 A 
ATOM     10  C9  UNL     1      24.600  18.065  10.376  0.00  0.00    +0.000 A 
ATOM     11  O2  UNL     1      24.600  19.288  10.381  0.00  0.00    +0.000 OA
ENDROOT
TORSDOF 0
ENDMDL
