MODEL 1
REMARK VINA RESULT:    -4.219      0.000      0.000
REMARK INTER + INTRA:          -4.219
REMARK INTER:                  -4.219
REMARK INTRA:                   0.000
REMARK UNBOUND:                 0.000
REMARK  Name = /home/anacleto/Desktop/manuscript_Mpro/naturecomm/supplementary_file_S2/6-chemical-library/molecular_docking/3D_ligand_structure/247.pdb
REMARK  0 active torsions:
REMARK  status: ('A' for Active; 'I' for Inactive)
REMARK                            x       y       z     vdW  Elec       q    Type
REMARK                         _______ _______ _______ _____ _____    ______ ____
ROOT
ATOM      1  O1  UNL     1     -32.744  11.939 -33.953  0.00  0.00    +0.000 OA
ATOM      2  C1  UNL     1     -33.385  12.410 -33.031  0.00  0.00    +0.000 C 
ATOM      3  N1  UNL     1     -33.070  13.517 -32.255  0.00  0.00    +0.000 NA
ATOM      4  C2  UNL     1     -34.026  13.662 -31.390  0.00  0.00    +0.000 C 
ATOM      5  C3  UNL     1     -35.061  12.658 -31.520  0.00  0.00    +0.000 A 
ATOM      6  C4  UNL     1     -34.656  11.856 -32.566  0.00  0.00    +0.000 A 
ATOM      7  C5  UNL     1     -36.232  12.437 -30.827  0.00  0.00    +0.000 A 
ATOM      8  C6  UNL     1     -37.007  11.346 -31.235  0.00  0.00    +0.000 A 
ATOM      9  C7  UNL     1     -36.596  10.522 -32.307  0.00  0.00    +0.000 A 
ATOM     10  C8  UNL     1     -35.401  10.774 -32.989  0.00  0.00    +0.000 A 
ENDROOT
TORSDOF 0
ENDMDL
MODEL 2
REMARK VINA RESULT:    -4.162      2.920      3.706
REMARK INTER + INTRA:          -4.162
REMARK INTER:                  -4.162
REMARK INTRA:                   0.000
REMARK UNBOUND:                 0.000
REMARK  Name = /home/anacleto/Desktop/manuscript_Mpro/naturecomm/supplementary_file_S2/6-chemical-library/molecular_docking/3D_ligand_structure/247.pdb
REMARK  0 active torsions:
REMARK  status: ('A' for Active; 'I' for Inactive)
REMARK                            x       y       z     vdW  Elec       q    Type
REMARK                         _______ _______ _______ _____ _____    ______ ____
ROOT
ATOM      1  O1  UNL     1     -38.649  11.312 -29.656  0.00  0.00    +0.000 OA
ATOM      2  C1  UNL     1     -37.640  11.945 -29.910  0.00  0.00    +0.000 C 
ATOM      3  N1  UNL     1     -37.132  13.043 -29.230  0.00  0.00    +0.000 NA
ATOM      4  C2  UNL     1     -36.045  13.401 -29.840  0.00  0.00    +0.000 C 
ATOM      5  C3  UNL     1     -35.736  12.564 -30.980  0.00  0.00    +0.000 A 
ATOM      6  C4  UNL     1     -36.752  11.633 -31.030  0.00  0.00    +0.000 A 
ATOM      7  C5  UNL     1     -34.703  12.582 -31.891  0.00  0.00    +0.000 A 
ATOM      8  C6  UNL     1     -34.725  11.599 -32.886  0.00  0.00    +0.000 A 
ATOM      9  C7  UNL     1     -35.764  10.643 -32.941  0.00  0.00    +0.000 A 
ATOM     10  C8  UNL     1     -36.799  10.653 -32.000  0.00  0.00    +0.000 A 
ENDROOT
TORSDOF 0
ENDMDL
MODEL 3
REMARK VINA RESULT:    -4.090      2.584      3.614
REMARK INTER + INTRA:          -4.090
REMARK INTER:                  -4.090
REMARK INTRA:                   0.000
REMARK UNBOUND:                 0.000
REMARK  Name = /home/anacleto/Desktop/manuscript_Mpro/naturecomm/supplementary_file_S2/6-chemical-library/molecular_docking/3D_ligand_structure/247.pdb
REMARK  0 active torsions:
REMARK  status: ('A' for Active; 'I' for Inactive)
REMARK                            x       y       z     vdW  Elec       q    Type
REMARK                         _______ _______ _______ _____ _____    ______ ____
ROOT
ATOM      1  O1  UNL     1     -35.779  14.176 -29.571  0.00  0.00    +0.000 OA
ATOM      2  C1  UNL     1     -36.310  13.161 -29.984  0.00  0.00    +0.000 C 
ATOM      3  N1  UNL     1     -37.374  12.468 -29.422  0.00  0.00    +0.000 NA
ATOM      4  C2  UNL     1     -37.614  11.450 -30.188  0.00  0.00    +0.000 C 
ATOM      5  C3  UNL     1     -36.728  11.381 -31.330  0.00  0.00    +0.000 A 
ATOM      6  C4  UNL     1     -35.892  12.471 -31.204  0.00  0.00    +0.000 A 
ATOM      7  C5  UNL     1     -36.628  10.488 -32.375  0.00  0.00    +0.000 A 
ATOM      8  C6  UNL     1     -35.629  10.738 -33.321  0.00  0.00    +0.000 A 
ATOM      9  C7  UNL     1     -34.771  11.853 -33.197  0.00  0.00    +0.000 A 
ATOM     10  C8  UNL     1     -34.898  12.740 -32.123  0.00  0.00    +0.000 A 
ENDROOT
TORSDOF 0
ENDMDL
MODEL 4
REMARK VINA RESULT:    -4.065      1.308      2.175
REMARK INTER + INTRA:          -4.065
REMARK INTER:                  -4.065
REMARK INTRA:                   0.000
REMARK UNBOUND:                 0.000
REMARK  Name = /home/anacleto/Desktop/manuscript_Mpro/naturecomm/supplementary_file_S2/6-chemical-library/molecular_docking/3D_ligand_structure/247.pdb
REMARK  0 active torsions:
REMARK  status: ('A' for Active; 'I' for Inactive)
REMARK                            x       y       z     vdW  Elec       q    Type
REMARK                         _______ _______ _______ _____ _____    ______ ____
ROOT
ATOM      1  O1  UNL     1     -33.075  14.229 -31.856  0.00  0.00    +0.000 OA
ATOM      2  C1  UNL     1     -33.455  13.191 -32.367  0.00  0.00    +0.000 C 
ATOM      3  N1  UNL     1     -32.830  12.456 -33.364  0.00  0.00    +0.000 NA
ATOM      4  C2  UNL     1     -33.580  11.425 -33.606  0.00  0.00    +0.000 C 
ATOM      5  C3  UNL     1     -34.770  11.388 -32.785  0.00  0.00    +0.000 A 
ATOM      6  C4  UNL     1     -34.697  12.514 -31.991  0.00  0.00    +0.000 A 
ATOM      7  C5  UNL     1     -35.819  10.497 -32.709  0.00  0.00    +0.000 A 
ATOM      8  C6  UNL     1     -36.822  10.784 -31.778  0.00  0.00    +0.000 A 
ATOM      9  C7  UNL     1     -36.750  11.936 -30.963  0.00  0.00    +0.000 A 
ATOM     10  C8  UNL     1     -35.672  12.822 -31.065  0.00  0.00    +0.000 A 
ENDROOT
TORSDOF 0
ENDMDL
MODEL 5
REMARK VINA RESULT:    -3.986     15.049     16.620
REMARK INTER + INTRA:          -3.986
REMARK INTER:                  -3.986
REMARK INTRA:                   0.000
REMARK UNBOUND:                 0.000
REMARK  Name = /home/anacleto/Desktop/manuscript_Mpro/naturecomm/supplementary_file_S2/6-chemical-library/molecular_docking/3D_ligand_structure/247.pdb
REMARK  0 active torsions:
REMARK  status: ('A' for Active; 'I' for Inactive)
REMARK                            x       y       z     vdW  Elec       q    Type
REMARK                         _______ _______ _______ _____ _____    ______ ____
ROOT
ATOM      1  O1  UNL     1     -18.218  10.697 -38.210  0.00  0.00    +0.000 OA
ATOM      2  C1  UNL     1     -18.585   9.580 -38.527  0.00  0.00    +0.000 C 
ATOM      3  N1  UNL     1     -17.879   8.627 -39.247  0.00  0.00    +0.000 NA
ATOM      4  C2  UNL     1     -18.645   7.586 -39.356  0.00  0.00    +0.000 C 
ATOM      5  C3  UNL     1     -19.930   7.761 -38.713  0.00  0.00    +0.000 A 
ATOM      6  C4  UNL     1     -19.897   9.033 -38.183  0.00  0.00    +0.000 A 
ATOM      7  C5  UNL     1     -21.024   6.933 -38.586  0.00  0.00    +0.000 A 
ATOM      8  C6  UNL     1     -22.120   7.445 -37.882  0.00  0.00    +0.000 A 
ATOM      9  C7  UNL     1     -22.091   8.748 -37.337  0.00  0.00    +0.000 A 
ATOM     10  C8  UNL     1     -20.964   9.563 -37.485  0.00  0.00    +0.000 A 
ENDROOT
TORSDOF 0
ENDMDL
MODEL 6
REMARK VINA RESULT:    -3.931     15.248     16.712
REMARK INTER + INTRA:          -3.931
REMARK INTER:                  -3.931
REMARK INTRA:                   0.000
REMARK UNBOUND:                 0.000
REMARK  Name = /home/anacleto/Desktop/manuscript_Mpro/naturecomm/supplementary_file_S2/6-chemical-library/molecular_docking/3D_ligand_structure/247.pdb
REMARK  0 active torsions:
REMARK  status: ('A' for Active; 'I' for Inactive)
REMARK                            x       y       z     vdW  Elec       q    Type
REMARK                         _______ _______ _______ _____ _____    ______ ____
ROOT
ATOM      1  O1  UNL     1     -18.522   6.327 -40.189  0.00  0.00    +0.000 OA
ATOM      2  C1  UNL     1     -18.756   7.340 -39.554  0.00  0.00    +0.000 C 
ATOM      3  N1  UNL     1     -17.940   8.452 -39.399  0.00  0.00    +0.000 NA
ATOM      4  C2  UNL     1     -18.581   9.293 -38.647  0.00  0.00    +0.000 C 
ATOM      5  C3  UNL     1     -19.882   8.807 -38.240  0.00  0.00    +0.000 A 
ATOM      6  C4  UNL     1     -19.999   7.560 -38.816  0.00  0.00    +0.000 A 
ATOM      7  C5  UNL     1     -20.875   9.358 -37.458  0.00  0.00    +0.000 A 
ATOM      8  C6  UNL     1     -22.027   8.587 -37.271  0.00  0.00    +0.000 A 
ATOM      9  C7  UNL     1     -22.151   7.308 -37.860  0.00  0.00    +0.000 A 
ATOM     10  C8  UNL     1     -21.123   6.778 -38.647  0.00  0.00    +0.000 A 
ENDROOT
TORSDOF 0
ENDMDL
MODEL 7
REMARK VINA RESULT:    -3.922      2.173      2.876
REMARK INTER + INTRA:          -3.922
REMARK INTER:                  -3.922
REMARK INTRA:                   0.000
REMARK UNBOUND:                 0.000
REMARK  Name = /home/anacleto/Desktop/manuscript_Mpro/naturecomm/supplementary_file_S2/6-chemical-library/molecular_docking/3D_ligand_structure/247.pdb
REMARK  0 active torsions:
REMARK  status: ('A' for Active; 'I' for Inactive)
REMARK                            x       y       z     vdW  Elec       q    Type
REMARK                         _______ _______ _______ _____ _____    ______ ____
ROOT
ATOM      1  O1  UNL     1     -36.709  14.036 -29.681  0.00  0.00    +0.000 OA
ATOM      2  C1  UNL     1     -35.809  13.704 -30.432  0.00  0.00    +0.000 C 
ATOM      3  N1  UNL     1     -34.596  14.346 -30.640  0.00  0.00    +0.000 NA
ATOM      4  C2  UNL     1     -33.943  13.651 -31.520  0.00  0.00    +0.000 C 
ATOM      5  C3  UNL     1     -34.670  12.484 -31.970  0.00  0.00    +0.000 A 
ATOM      6  C4  UNL     1     -35.863  12.513 -31.279  0.00  0.00    +0.000 A 
ATOM      7  C5  UNL     1     -34.362  11.491 -32.875  0.00  0.00    +0.000 A 
ATOM      8  C6  UNL     1     -35.326  10.495 -33.066  0.00  0.00    +0.000 A 
ATOM      9  C7  UNL     1     -36.549  10.521 -32.360  0.00  0.00    +0.000 A 
ATOM     10  C8  UNL     1     -36.831  11.544 -31.449  0.00  0.00    +0.000 A 
ENDROOT
TORSDOF 0
ENDMDL
MODEL 8
REMARK VINA RESULT:    -3.895     14.557     16.431
REMARK INTER + INTRA:          -3.895
REMARK INTER:                  -3.895
REMARK INTRA:                   0.000
REMARK UNBOUND:                 0.000
REMARK  Name = /home/anacleto/Desktop/manuscript_Mpro/naturecomm/supplementary_file_S2/6-chemical-library/molecular_docking/3D_ligand_structure/247.pdb
REMARK  0 active torsions:
REMARK  status: ('A' for Active; 'I' for Inactive)
REMARK                            x       y       z     vdW  Elec       q    Type
REMARK                         _______ _______ _______ _____ _____    ______ ____
ROOT
ATOM      1  O1  UNL     1     -22.574   9.546 -36.837  0.00  0.00    +0.000 OA
ATOM      2  C1  UNL     1     -21.949   8.677 -37.418  0.00  0.00    +0.000 C 
ATOM      3  N1  UNL     1     -22.351   7.376 -37.684  0.00  0.00    +0.000 NA
ATOM      4  C2  UNL     1     -21.379   6.799 -38.321  0.00  0.00    +0.000 C 
ATOM      5  C3  UNL     1     -20.246   7.674 -38.533  0.00  0.00    +0.000 A 
ATOM      6  C4  UNL     1     -20.604   8.875 -37.958  0.00  0.00    +0.000 A 
ATOM      7  C5  UNL     1     -19.028   7.482 -39.149  0.00  0.00    +0.000 A 
ATOM      8  C6  UNL     1     -18.155   8.575 -39.168  0.00  0.00    +0.000 A 
ATOM      9  C7  UNL     1     -18.518   9.807 -38.579  0.00  0.00    +0.000 A 
ATOM     10  C8  UNL     1     -19.762   9.968 -37.961  0.00  0.00    +0.000 A 
ENDROOT
TORSDOF 0
ENDMDL
MODEL 9
REMARK VINA RESULT:    -3.881     12.711     14.004
REMARK INTER + INTRA:          -3.881
REMARK INTER:                  -3.881
REMARK INTRA:                   0.000
REMARK UNBOUND:                 0.000
REMARK  Name = /home/anacleto/Desktop/manuscript_Mpro/naturecomm/supplementary_file_S2/6-chemical-library/molecular_docking/3D_ligand_structure/247.pdb
REMARK  0 active torsions:
REMARK  status: ('A' for Active; 'I' for Inactive)
REMARK                            x       y       z     vdW  Elec       q    Type
REMARK                         _______ _______ _______ _____ _____    ______ ____
ROOT
ATOM      1  O1  UNL     1     -24.776  10.233 -37.568  0.00  0.00    +0.000 OA
ATOM      2  C1  UNL     1     -23.630   9.829 -37.494  0.00  0.00    +0.000 C 
ATOM      3  N1  UNL     1     -22.498  10.546 -37.131  0.00  0.00    +0.000 NA
ATOM      4  C2  UNL     1     -21.493   9.728 -37.187  0.00  0.00    +0.000 C 
ATOM      5  C3  UNL     1     -21.875   8.392 -37.593  0.00  0.00    +0.000 A 
ATOM      6  C4  UNL     1     -23.239   8.451 -37.791  0.00  0.00    +0.000 A 
ATOM      7  C5  UNL     1     -21.149   7.236 -37.781  0.00  0.00    +0.000 A 
ATOM      8  C6  UNL     1     -21.864   6.104 -38.186  0.00  0.00    +0.000 A 
ATOM      9  C7  UNL     1     -23.261   6.160 -38.390  0.00  0.00    +0.000 A 
ATOM     10  C8  UNL     1     -23.968   7.350 -38.191  0.00  0.00    +0.000 A 
ENDROOT
TORSDOF 0
ENDMDL
