MODEL 1
REMARK VINA RESULT:    -4.651      0.000      0.000
REMARK INTER + INTRA:          -4.651
REMARK INTER:                  -4.651
REMARK INTRA:                   0.000
REMARK UNBOUND:                 0.000
REMARK  Name = /home/anacleto/Desktop/manuscript_Mpro/naturecomm/supplementary_file_S2/6-chemical-library/molecular_docking/3D_ligand_structure/1458.pdb
REMARK  0 active torsions:
REMARK  status: ('A' for Active; 'I' for Inactive)
REMARK                            x       y       z     vdW  Elec       q    Type
REMARK                         _______ _______ _______ _____ _____    ______ ____
ROOT
ATOM      1  C1  UNL     1      15.200  11.362  -7.072  0.00  0.00    +0.000 A 
ATOM      2  C2  UNL     1      13.843  11.022  -7.114  0.00  0.00    +0.000 A 
ATOM      3  C3  UNL     1      13.158  10.695  -5.948  0.00  0.00    +0.000 A 
ATOM      4  C4  UNL     1      13.804  10.698  -4.707  0.00  0.00    +0.000 A 
ATOM      5  C5  UNL     1      15.164  11.044  -4.676  0.00  0.00    +0.000 A 
ATOM      6  C6  UNL     1      15.873  11.372  -5.835  0.00  0.00    +0.000 A 
ATOM      7  N1  UNL     1      16.055  11.135  -3.632  0.00  0.00    +0.000 N 
ATOM      8  C7  UNL     1      17.303  11.503  -4.079  0.00  0.00    +0.000 A 
ATOM      9  C8  UNL     1      17.213  11.657  -5.447  0.00  0.00    +0.000 A 
ATOM     10  C9  UNL     1      18.444  11.699  -3.142  0.00  0.00    +0.000 C 
ATOM     11  N2  UNL     1      18.218  11.043  -1.849  0.00  0.00    +0.000 NA
ATOM     12  C10 UNL     1      16.890  11.379  -1.325  0.00  0.00    +0.000 C 
ATOM     13  C11 UNL     1      15.778  10.844  -2.235  0.00  0.00    +0.000 C 
ATOM     14  H8  UNL     1      18.936  11.359  -1.198  0.00  0.00    +0.000 HD
ENDROOT
TORSDOF 0
ENDMDL
MODEL 2
REMARK VINA RESULT:    -4.545     14.613     17.063
REMARK INTER + INTRA:          -4.545
REMARK INTER:                  -4.545
REMARK INTRA:                   0.000
REMARK UNBOUND:                 0.000
REMARK  Name = /home/anacleto/Desktop/manuscript_Mpro/naturecomm/supplementary_file_S2/6-chemical-library/molecular_docking/3D_ligand_structure/1458.pdb
REMARK  0 active torsions:
REMARK  status: ('A' for Active; 'I' for Inactive)
REMARK                            x       y       z     vdW  Elec       q    Type
REMARK                         _______ _______ _______ _____ _____    ______ ____
ROOT
ATOM      1  C1  UNL     1      18.827   6.887   9.043  0.00  0.00    +0.000 A 
ATOM      2  C2  UNL     1      19.496   6.203   8.022  0.00  0.00    +0.000 A 
ATOM      3  C3  UNL     1      20.727   5.600   8.261  0.00  0.00    +0.000 A 
ATOM      4  C4  UNL     1      21.326   5.660   9.524  0.00  0.00    +0.000 A 
ATOM      5  C5  UNL     1      20.644   6.346  10.542  0.00  0.00    +0.000 A 
ATOM      6  C6  UNL     1      19.409   6.963  10.323  0.00  0.00    +0.000 A 
ATOM      7  N1  UNL     1      20.969   6.574  11.859  0.00  0.00    +0.000 N 
ATOM      8  C7  UNL     1      19.994   7.314  12.486  0.00  0.00    +0.000 A 
ATOM      9  C8  UNL     1      19.013   7.567  11.549  0.00  0.00    +0.000 A 
ATOM     10  C9  UNL     1      20.090   7.676  13.928  0.00  0.00    +0.000 C 
ATOM     11  N2  UNL     1      21.462   7.566  14.436  0.00  0.00    +0.000 NA
ATOM     12  C10 UNL     1      22.053   6.279  14.053  0.00  0.00    +0.000 C 
ATOM     13  C11 UNL     1      22.187   6.155  12.532  0.00  0.00    +0.000 C 
ATOM     14  H8  UNL     1      21.437   7.647  15.452  0.00  0.00    +0.000 HD
ENDROOT
TORSDOF 0
ENDMDL
MODEL 3
REMARK VINA RESULT:    -4.529      3.165      6.180
REMARK INTER + INTRA:          -4.529
REMARK INTER:                  -4.529
REMARK INTRA:                   0.000
REMARK UNBOUND:                 0.000
REMARK  Name = /home/anacleto/Desktop/manuscript_Mpro/naturecomm/supplementary_file_S2/6-chemical-library/molecular_docking/3D_ligand_structure/1458.pdb
REMARK  0 active torsions:
REMARK  status: ('A' for Active; 'I' for Inactive)
REMARK                            x       y       z     vdW  Elec       q    Type
REMARK                         _______ _______ _______ _____ _____    ______ ____
ROOT
ATOM      1  C1  UNL     1      17.814  15.866  -0.002  0.00  0.00    +0.000 A 
ATOM      2  C2  UNL     1      19.096  15.904   0.558  0.00  0.00    +0.000 A 
ATOM      3  C3  UNL     1      19.916  14.780   0.529  0.00  0.00    +0.000 A 
ATOM      4  C4  UNL     1      19.483  13.587  -0.060  0.00  0.00    +0.000 A 
ATOM      5  C5  UNL     1      18.197  13.561  -0.621  0.00  0.00    +0.000 A 
ATOM      6  C6  UNL     1      17.355  14.676  -0.600  0.00  0.00    +0.000 A 
ATOM      7  N1  UNL     1      17.504  12.557  -1.257  0.00  0.00    +0.000 N 
ATOM      8  C7  UNL     1      16.253  12.986  -1.637  0.00  0.00    +0.000 A 
ATOM      9  C8  UNL     1      16.139  14.303  -1.238  0.00  0.00    +0.000 A 
ATOM     10  C9  UNL     1      15.309  12.097  -2.369  0.00  0.00    +0.000 C 
ATOM     11  N2  UNL     1      15.660  10.679  -2.228  0.00  0.00    +0.000 NA
ATOM     12  C10 UNL     1      17.086  10.471  -2.503  0.00  0.00    +0.000 C 
ATOM     13  C11 UNL     1      17.965  11.197  -1.478  0.00  0.00    +0.000 C 
ATOM     14  H8  UNL     1      15.099  10.142  -2.888  0.00  0.00    +0.000 HD
ENDROOT
TORSDOF 0
ENDMDL
MODEL 4
REMARK VINA RESULT:    -4.485      1.016      2.331
REMARK INTER + INTRA:          -4.485
REMARK INTER:                  -4.485
REMARK INTRA:                   0.000
REMARK UNBOUND:                 0.000
REMARK  Name = /home/anacleto/Desktop/manuscript_Mpro/naturecomm/supplementary_file_S2/6-chemical-library/molecular_docking/3D_ligand_structure/1458.pdb
REMARK  0 active torsions:
REMARK  status: ('A' for Active; 'I' for Inactive)
REMARK                            x       y       z     vdW  Elec       q    Type
REMARK                         _______ _______ _______ _____ _____    ______ ____
ROOT
ATOM      1  C1  UNL     1      13.493  10.589  -5.066  0.00  0.00    +0.000 A 
ATOM      2  C2  UNL     1      13.210  10.753  -6.426  0.00  0.00    +0.000 A 
ATOM      3  C3  UNL     1      14.165  11.282  -7.290  0.00  0.00    +0.000 A 
ATOM      4  C4  UNL     1      15.428  11.661  -6.823  0.00  0.00    +0.000 A 
ATOM      5  C5  UNL     1      15.702  11.489  -5.457  0.00  0.00    +0.000 A 
ATOM      6  C6  UNL     1      14.757  10.964  -4.571  0.00  0.00    +0.000 A 
ATOM      7  N1  UNL     1      16.827  11.763  -4.715  0.00  0.00    +0.000 N 
ATOM      8  C7  UNL     1      16.636  11.438  -3.392  0.00  0.00    +0.000 A 
ATOM      9  C8  UNL     1      15.355  10.938  -3.279  0.00  0.00    +0.000 A 
ATOM     10  C9  UNL     1      17.714  11.613  -2.378  0.00  0.00    +0.000 C 
ATOM     11  N2  UNL     1      18.756  12.541  -2.832  0.00  0.00    +0.000 NA
ATOM     12  C10 UNL     1      19.196  12.199  -4.189  0.00  0.00    +0.000 C 
ATOM     13  C11 UNL     1      18.058  12.361  -5.203  0.00  0.00    +0.000 C 
ATOM     14  H8  UNL     1      19.543  12.480  -2.188  0.00  0.00    +0.000 HD
ENDROOT
TORSDOF 0
ENDMDL
MODEL 5
REMARK VINA RESULT:    -4.369      1.567      2.092
REMARK INTER + INTRA:          -4.369
REMARK INTER:                  -4.369
REMARK INTRA:                   0.000
REMARK UNBOUND:                 0.000
REMARK  Name = /home/anacleto/Desktop/manuscript_Mpro/naturecomm/supplementary_file_S2/6-chemical-library/molecular_docking/3D_ligand_structure/1458.pdb
REMARK  0 active torsions:
REMARK  status: ('A' for Active; 'I' for Inactive)
REMARK                            x       y       z     vdW  Elec       q    Type
REMARK                         _______ _______ _______ _____ _____    ______ ____
ROOT
ATOM      1  C1  UNL     1      14.252  11.263  -7.289  0.00  0.00    +0.000 A 
ATOM      2  C2  UNL     1      13.182  10.895  -6.465  0.00  0.00    +0.000 A 
ATOM      3  C3  UNL     1      13.370  10.715  -5.097  0.00  0.00    +0.000 A 
ATOM      4  C4  UNL     1      14.628  10.896  -4.513  0.00  0.00    +0.000 A 
ATOM      5  C5  UNL     1      15.693  11.268  -5.348  0.00  0.00    +0.000 A 
ATOM      6  C6  UNL     1      15.529  11.451  -6.724  0.00  0.00    +0.000 A 
ATOM      7  N1  UNL     1      17.019  11.514  -5.076  0.00  0.00    +0.000 N 
ATOM      8  C7  UNL     1      17.706  11.842  -6.222  0.00  0.00    +0.000 A 
ATOM      9  C8  UNL     1      16.797  11.809  -7.260  0.00  0.00    +0.000 A 
ATOM     10  C9  UNL     1      19.156  12.181  -6.196  0.00  0.00    +0.000 C 
ATOM     11  N2  UNL     1      19.816  11.701  -4.977  0.00  0.00    +0.000 NA
ATOM     12  C10 UNL     1      19.044  12.079  -3.789  0.00  0.00    +0.000 C 
ATOM     13  C11 UNL     1      17.666  11.408  -3.779  0.00  0.00    +0.000 C 
ATOM     14  H8  UNL     1      20.747  12.114  -4.931  0.00  0.00    +0.000 HD
ENDROOT
TORSDOF 0
ENDMDL
MODEL 6
REMARK VINA RESULT:    -4.360      3.318      6.254
REMARK INTER + INTRA:          -4.360
REMARK INTER:                  -4.360
REMARK INTRA:                   0.000
REMARK UNBOUND:                 0.000
REMARK  Name = /home/anacleto/Desktop/manuscript_Mpro/naturecomm/supplementary_file_S2/6-chemical-library/molecular_docking/3D_ligand_structure/1458.pdb
REMARK  0 active torsions:
REMARK  status: ('A' for Active; 'I' for Inactive)
REMARK                            x       y       z     vdW  Elec       q    Type
REMARK                         _______ _______ _______ _____ _____    ______ ____
ROOT
ATOM      1  C1  UNL     1      19.974  14.394   0.508  0.00  0.00    +0.000 A 
ATOM      2  C2  UNL     1      19.635  15.705   0.863  0.00  0.00    +0.000 A 
ATOM      3  C3  UNL     1      18.406  16.244   0.493  0.00  0.00    +0.000 A 
ATOM      4  C4  UNL     1      17.482  15.494  -0.241  0.00  0.00    +0.000 A 
ATOM      5  C5  UNL     1      17.831  14.180  -0.590  0.00  0.00    +0.000 A 
ATOM      6  C6  UNL     1      19.060  13.619  -0.232  0.00  0.00    +0.000 A 
ATOM      7  N1  UNL     1      17.149  13.214  -1.293  0.00  0.00    +0.000 N 
ATOM      8  C7  UNL     1      17.895  12.064  -1.402  0.00  0.00    +0.000 A 
ATOM      9  C8  UNL     1      19.088  12.293  -0.748  0.00  0.00    +0.000 A 
ATOM     10  C9  UNL     1      17.373  10.854  -2.097  0.00  0.00    +0.000 C 
ATOM     11  N2  UNL     1      16.252  11.168  -2.990  0.00  0.00    +0.000 NA
ATOM     12  C10 UNL     1      15.257  11.995  -2.298  0.00  0.00    +0.000 C 
ATOM     13  C11 UNL     1      15.837  13.357  -1.903  0.00  0.00    +0.000 C 
ATOM     14  H8  UNL     1      15.825  10.293  -3.291  0.00  0.00    +0.000 HD
ENDROOT
TORSDOF 0
ENDMDL
MODEL 7
REMARK VINA RESULT:    -4.287     15.092     17.153
REMARK INTER + INTRA:          -4.287
REMARK INTER:                  -4.287
REMARK INTRA:                   0.000
REMARK UNBOUND:                 0.000
REMARK  Name = /home/anacleto/Desktop/manuscript_Mpro/naturecomm/supplementary_file_S2/6-chemical-library/molecular_docking/3D_ligand_structure/1458.pdb
REMARK  0 active torsions:
REMARK  status: ('A' for Active; 'I' for Inactive)
REMARK                            x       y       z     vdW  Elec       q    Type
REMARK                         _______ _______ _______ _____ _____    ______ ____
ROOT
ATOM      1  C1  UNL     1      21.786   6.068   9.474  0.00  0.00    +0.000 A 
ATOM      2  C2  UNL     1      20.966   5.699   8.402  0.00  0.00    +0.000 A 
ATOM      3  C3  UNL     1      19.580   5.756   8.518  0.00  0.00    +0.000 A 
ATOM      4  C4  UNL     1      18.973   6.184   9.703  0.00  0.00    +0.000 A 
ATOM      5  C5  UNL     1      19.805   6.554  10.771  0.00  0.00    +0.000 A 
ATOM      6  C6  UNL     1      21.199   6.501  10.679  0.00  0.00    +0.000 A 
ATOM      7  N1  UNL     1      19.513   7.006  12.037  0.00  0.00    +0.000 N 
ATOM      8  C7  UNL     1      20.662   7.237  12.756  0.00  0.00    +0.000 A 
ATOM      9  C8  UNL     1      21.724   6.931  11.929  0.00  0.00    +0.000 A 
ATOM     10  C9  UNL     1      20.623   7.758  14.151  0.00  0.00    +0.000 C 
ATOM     11  N2  UNL     1      19.312   7.559  14.780  0.00  0.00    +0.000 NA
ATOM     12  C10 UNL     1      18.238   8.014  13.891  0.00  0.00    +0.000 C 
ATOM     13  C11 UNL     1      18.186   7.183  12.604  0.00  0.00    +0.000 C 
ATOM     14  H8  UNL     1      19.289   8.089  15.650  0.00  0.00    +0.000 HD
ENDROOT
TORSDOF 0
ENDMDL
MODEL 8
REMARK VINA RESULT:    -4.246      2.898      4.711
REMARK INTER + INTRA:          -4.246
REMARK INTER:                  -4.246
REMARK INTRA:                   0.000
REMARK UNBOUND:                 0.000
REMARK  Name = /home/anacleto/Desktop/manuscript_Mpro/naturecomm/supplementary_file_S2/6-chemical-library/molecular_docking/3D_ligand_structure/1458.pdb
REMARK  0 active torsions:
REMARK  status: ('A' for Active; 'I' for Inactive)
REMARK                            x       y       z     vdW  Elec       q    Type
REMARK                         _______ _______ _______ _____ _____    ______ ____
ROOT
ATOM      1  C1  UNL     1      16.870  15.537  -5.683  0.00  0.00    +0.000 A 
ATOM      2  C2  UNL     1      17.217  16.023  -6.948  0.00  0.00    +0.000 A 
ATOM      3  C3  UNL     1      16.819  15.350  -8.100  0.00  0.00    +0.000 A 
ATOM      4  C4  UNL     1      16.064  14.175  -8.023  0.00  0.00    +0.000 A 
ATOM      5  C5  UNL     1      15.718  13.698  -6.749  0.00  0.00    +0.000 A 
ATOM      6  C6  UNL     1      16.110  14.355  -5.579  0.00  0.00    +0.000 A 
ATOM      7  N1  UNL     1      15.000  12.593  -6.356  0.00  0.00    +0.000 N 
ATOM      8  C7  UNL     1      14.922  12.517  -4.985  0.00  0.00    +0.000 A 
ATOM      9  C8  UNL     1      15.606  13.604  -4.480  0.00  0.00    +0.000 A 
ATOM     10  C9  UNL     1      14.173  11.425  -4.301  0.00  0.00    +0.000 C 
ATOM     11  N2  UNL     1      13.950  10.272  -5.181  0.00  0.00    +0.000 NA
ATOM     12  C10 UNL     1      13.418  10.706  -6.476  0.00  0.00    +0.000 C 
ATOM     13  C11 UNL     1      14.423  11.585  -7.229  0.00  0.00    +0.000 C 
ATOM     14  H8  UNL     1      13.287   9.645  -4.727  0.00  0.00    +0.000 HD
ENDROOT
TORSDOF 0
ENDMDL
MODEL 9
REMARK VINA RESULT:    -4.181      4.171      6.817
REMARK INTER + INTRA:          -4.181
REMARK INTER:                  -4.181
REMARK INTRA:                   0.000
REMARK UNBOUND:                 0.000
REMARK  Name = /home/anacleto/Desktop/manuscript_Mpro/naturecomm/supplementary_file_S2/6-chemical-library/molecular_docking/3D_ligand_structure/1458.pdb
REMARK  0 active torsions:
REMARK  status: ('A' for Active; 'I' for Inactive)
REMARK                            x       y       z     vdW  Elec       q    Type
REMARK                         _______ _______ _______ _____ _____    ______ ____
ROOT
ATOM      1  C1  UNL     1      19.476  14.229   0.194  0.00  0.00    +0.000 A 
ATOM      2  C2  UNL     1      19.819  15.395   0.888  0.00  0.00    +0.000 A 
ATOM      3  C3  UNL     1      18.959  16.489   0.904  0.00  0.00    +0.000 A 
ATOM      4  C4  UNL     1      17.734  16.452   0.230  0.00  0.00    +0.000 A 
ATOM      5  C5  UNL     1      17.398  15.277  -0.460  0.00  0.00    +0.000 A 
ATOM      6  C6  UNL     1      18.248  14.168  -0.493  0.00  0.00    +0.000 A 
ATOM      7  N1  UNL     1      16.289  14.944  -1.201  0.00  0.00    +0.000 N 
ATOM      8  C7  UNL     1      16.399  13.670  -1.709  0.00  0.00    +0.000 A 
ATOM      9  C8  UNL     1      17.610  13.168  -1.280  0.00  0.00    +0.000 A 
ATOM     10  C9  UNL     1      15.317  13.056  -2.528  0.00  0.00    +0.000 C 
ATOM     11  N2  UNL     1      14.403  14.062  -3.081  0.00  0.00    +0.000 NA
ATOM     12  C10 UNL     1      13.970  14.997  -2.037  0.00  0.00    +0.000 C 
ATOM     13  C11 UNL     1      15.150  15.802  -1.483  0.00  0.00    +0.000 C 
ATOM     14  H8  UNL     1      13.593  13.581  -3.472  0.00  0.00    +0.000 HD
ENDROOT
TORSDOF 0
ENDMDL
