MODEL 1
REMARK VINA RESULT:    -4.126      0.000      0.000
REMARK INTER + INTRA:          -4.454
REMARK INTER:                  -4.386
REMARK INTRA:                  -0.068
REMARK UNBOUND:                -0.087
REMARK  Name = /home/anacleto/Desktop/manuscript_Mpro/naturecomm/supplementary_file_S2/6-chemical-library/molecular_docking/3D_ligand_structure/1266.pdb
REMARK  1 active torsions:
REMARK  status: ('A' for Active; 'I' for Inactive)
REMARK    1  A    between atoms: C3_5  and  C4_6
REMARK                            x       y       z     vdW  Elec       q    Type
REMARK                         _______ _______ _______ _____ _____    ______ ____
ROOT
ATOM      1  C4  UNL     1      14.218  16.246  -1.473  0.00  0.00    +0.000 A 
ATOM      2  C5  UNL     1      14.448  17.410  -2.218  0.00  0.00    +0.000 A 
ATOM      3  C6  UNL     1      13.421  18.323  -2.416  0.00  0.00    +0.000 A 
ATOM      4  N2  UNL     1      12.209  18.088  -1.893  0.00  0.00    +0.000 N 
ATOM      5  C7  UNL     1      11.942  16.986  -1.173  0.00  0.00    +0.000 A 
ATOM      6  C8  UNL     1      12.938  16.041  -0.946  0.00  0.00    +0.000 A 
ATOM      7  H5  UNL     1      11.465  18.769  -2.049  0.00  0.00    +0.000 HD
ENDROOT
BRANCH   1  12
ATOM      8  N1  UNL     1      16.211  15.489  -0.235  0.00  0.00    +0.000 NA
ATOM      9  C1  UNL     1      17.118  14.536  -0.241  0.00  0.00    +0.000 A 
ATOM     10  S1  UNL     1      16.966  13.366  -1.481  0.00  0.00    +0.000 S 
ATOM     11  C2  UNL     1      15.576  14.193  -2.062  0.00  0.00    +0.000 A 
ATOM     12  C3  UNL     1      15.318  15.303  -1.280  0.00  0.00    +0.000 A 
ENDBRANCH   1  12
TORSDOF 1
ENDMDL
MODEL 2
REMARK VINA RESULT:    -3.959      5.368      6.329
REMARK INTER + INTRA:          -4.277
REMARK INTER:                  -4.202
REMARK INTRA:                  -0.076
REMARK UNBOUND:                -0.087
REMARK  Name = /home/anacleto/Desktop/manuscript_Mpro/naturecomm/supplementary_file_S2/6-chemical-library/molecular_docking/3D_ligand_structure/1266.pdb
REMARK  1 active torsions:
REMARK  status: ('A' for Active; 'I' for Inactive)
REMARK    1  A    between atoms: C3_5  and  C4_6
REMARK                            x       y       z     vdW  Elec       q    Type
REMARK                         _______ _______ _______ _____ _____    ______ ____
ROOT
ATOM      1  C4  UNL     1      15.041  11.116  -4.833  0.00  0.00    +0.000 A 
ATOM      2  C5  UNL     1      15.711  11.539  -5.989  0.00  0.00    +0.000 A 
ATOM      3  C6  UNL     1      15.069  11.500  -7.218  0.00  0.00    +0.000 A 
ATOM      4  N2  UNL     1      13.805  11.057  -7.297  0.00  0.00    +0.000 N 
ATOM      5  C7  UNL     1      13.125  10.641  -6.218  0.00  0.00    +0.000 A 
ATOM      6  C8  UNL     1      13.725  10.661  -4.962  0.00  0.00    +0.000 A 
ATOM      7  H5  UNL     1      13.348  11.034  -8.210  0.00  0.00    +0.000 HD
ENDROOT
BRANCH   1  12
ATOM      8  N1  UNL     1      16.937  10.482  -3.390  0.00  0.00    +0.000 NA
ATOM      9  C1  UNL     1      17.399  10.660  -2.171  0.00  0.00    +0.000 A 
ATOM     10  S1  UNL     1      16.448  11.649  -1.147  0.00  0.00    +0.000 S 
ATOM     11  C2  UNL     1      15.325  11.862  -2.430  0.00  0.00    +0.000 A 
ATOM     12  C3  UNL     1      15.743  11.169  -3.551  0.00  0.00    +0.000 A 
ENDBRANCH   1  12
TORSDOF 1
ENDMDL
MODEL 3
REMARK VINA RESULT:    -3.862      4.736      5.660
REMARK INTER + INTRA:          -4.175
REMARK INTER:                  -4.082
REMARK INTRA:                  -0.093
REMARK UNBOUND:                -0.087
REMARK  Name = /home/anacleto/Desktop/manuscript_Mpro/naturecomm/supplementary_file_S2/6-chemical-library/molecular_docking/3D_ligand_structure/1266.pdb
REMARK  1 active torsions:
REMARK  status: ('A' for Active; 'I' for Inactive)
REMARK    1  A    between atoms: C3_5  and  C4_6
REMARK                            x       y       z     vdW  Elec       q    Type
REMARK                         _______ _______ _______ _____ _____    ______ ____
ROOT
ATOM      1  C4  UNL     1      18.969  14.723  -0.044  0.00  0.00    +0.000 A 
ATOM      2  C5  UNL     1      20.359  14.746   0.136  0.00  0.00    +0.000 A 
ATOM      3  C6  UNL     1      20.990  15.918   0.529  0.00  0.00    +0.000 A 
ATOM      4  N2  UNL     1      20.266  17.028   0.737  0.00  0.00    +0.000 N 
ATOM      5  C7  UNL     1      18.934  17.053   0.577  0.00  0.00    +0.000 A 
ATOM      6  C8  UNL     1      18.255  15.904   0.184  0.00  0.00    +0.000 A 
ATOM      7  H5  UNL     1      20.747  17.882   1.025  0.00  0.00    +0.000 HD
ENDROOT
BRANCH   1  12
ATOM      8  N1  UNL     1      19.102  12.337  -0.651  0.00  0.00    +0.000 NA
ATOM      9  C1  UNL     1      18.339  11.332  -1.019  0.00  0.00    +0.000 A 
ATOM     10  S1  UNL     1      16.667  11.673  -1.157  0.00  0.00    +0.000 S 
ATOM     11  C2  UNL     1      16.980  13.296  -0.688  0.00  0.00    +0.000 A 
ATOM     12  C3  UNL     1      18.332  13.474  -0.458  0.00  0.00    +0.000 A 
ENDBRANCH   1  12
TORSDOF 1
ENDMDL
MODEL 4
REMARK VINA RESULT:    -3.739      3.777      5.221
REMARK INTER + INTRA:          -4.045
REMARK INTER:                  -3.960
REMARK INTRA:                  -0.084
REMARK UNBOUND:                -0.087
REMARK  Name = /home/anacleto/Desktop/manuscript_Mpro/naturecomm/supplementary_file_S2/6-chemical-library/molecular_docking/3D_ligand_structure/1266.pdb
REMARK  1 active torsions:
REMARK  status: ('A' for Active; 'I' for Inactive)
REMARK    1  A    between atoms: C3_5  and  C4_6
REMARK                            x       y       z     vdW  Elec       q    Type
REMARK                         _______ _______ _______ _____ _____    ______ ____
ROOT
ATOM      1  C4  UNL     1      18.011  14.401  -0.218  0.00  0.00    +0.000 A 
ATOM      2  C5  UNL     1      17.508  15.599   0.307  0.00  0.00    +0.000 A 
ATOM      3  C6  UNL     1      18.352  16.471   0.980  0.00  0.00    +0.000 A 
ATOM      4  N2  UNL     1      19.650  16.164   1.127  0.00  0.00    +0.000 N 
ATOM      5  C7  UNL     1      20.175  15.029   0.641  0.00  0.00    +0.000 A 
ATOM      6  C8  UNL     1      19.370  14.122  -0.042  0.00  0.00    +0.000 A 
ATOM      7  H5  UNL     1      20.257  16.817   1.625  0.00  0.00    +0.000 HD
ENDROOT
BRANCH   1  12
ATOM      8  N1  UNL     1      16.089  14.026  -1.716  0.00  0.00    +0.000 NA
ATOM      9  C1  UNL     1      15.387  13.053  -2.256  0.00  0.00    +0.000 A 
ATOM     10  S1  UNL     1      15.881  11.464  -1.856  0.00  0.00    +0.000 S 
ATOM     11  C2  UNL     1      17.135  12.121  -0.883  0.00  0.00    +0.000 A 
ATOM     12  C3  UNL     1      17.099  13.502  -0.923  0.00  0.00    +0.000 A 
ENDBRANCH   1  12
TORSDOF 1
ENDMDL
MODEL 5
REMARK VINA RESULT:    -3.692      6.521      7.449
REMARK INTER + INTRA:          -3.995
REMARK INTER:                  -3.926
REMARK INTRA:                  -0.069
REMARK UNBOUND:                -0.087
REMARK  Name = /home/anacleto/Desktop/manuscript_Mpro/naturecomm/supplementary_file_S2/6-chemical-library/molecular_docking/3D_ligand_structure/1266.pdb
REMARK  1 active torsions:
REMARK  status: ('A' for Active; 'I' for Inactive)
REMARK    1  A    between atoms: C3_5  and  C4_6
REMARK                            x       y       z     vdW  Elec       q    Type
REMARK                         _______ _______ _______ _____ _____    ______ ____
ROOT
ATOM      1  C4  UNL     1      15.439  11.765  -6.236  0.00  0.00    +0.000 A 
ATOM      2  C5  UNL     1      15.910  11.612  -4.925  0.00  0.00    +0.000 A 
ATOM      3  C6  UNL     1      15.142  10.939  -3.985  0.00  0.00    +0.000 A 
ATOM      4  N2  UNL     1      13.949  10.436  -4.335  0.00  0.00    +0.000 N 
ATOM      5  C7  UNL     1      13.458  10.559  -5.578  0.00  0.00    +0.000 A 
ATOM      6  C8  UNL     1      14.190  11.225  -6.556  0.00  0.00    +0.000 A 
ATOM      7  H5  UNL     1      13.396   9.944  -3.631  0.00  0.00    +0.000 HD
ENDROOT
BRANCH   1  12
ATOM      8  N1  UNL     1      17.304  11.814  -7.848  0.00  0.00    +0.000 NA
ATOM      9  C1  UNL     1      17.922  12.632  -8.672  0.00  0.00    +0.000 A 
ATOM     10  S1  UNL     1      17.316  14.232  -8.735  0.00  0.00    +0.000 S 
ATOM     11  C2  UNL     1      16.129  13.805  -7.567  0.00  0.00    +0.000 A 
ATOM     12  C3  UNL     1      16.270  12.478  -7.205  0.00  0.00    +0.000 A 
ENDBRANCH   1  12
TORSDOF 1
ENDMDL
MODEL 6
REMARK VINA RESULT:    -3.674      3.224      4.759
REMARK INTER + INTRA:          -3.976
REMARK INTER:                  -3.889
REMARK INTRA:                  -0.087
REMARK UNBOUND:                -0.087
REMARK  Name = /home/anacleto/Desktop/manuscript_Mpro/naturecomm/supplementary_file_S2/6-chemical-library/molecular_docking/3D_ligand_structure/1266.pdb
REMARK  1 active torsions:
REMARK  status: ('A' for Active; 'I' for Inactive)
REMARK    1  A    between atoms: C3_5  and  C4_6
REMARK                            x       y       z     vdW  Elec       q    Type
REMARK                         _______ _______ _______ _____ _____    ______ ____
ROOT
ATOM      1  C4  UNL     1      15.543  13.538  -2.330  0.00  0.00    +0.000 A 
ATOM      2  C5  UNL     1      16.505  12.886  -1.547  0.00  0.00    +0.000 A 
ATOM      3  C6  UNL     1      17.072  13.536  -0.460  0.00  0.00    +0.000 A 
ATOM      4  N2  UNL     1      16.697  14.789  -0.161  0.00  0.00    +0.000 N 
ATOM      5  C7  UNL     1      15.780  15.452  -0.883  0.00  0.00    +0.000 A 
ATOM      6  C8  UNL     1      15.182  14.843  -1.982  0.00  0.00    +0.000 A 
ATOM      7  H5  UNL     1      17.125  15.252   0.642  0.00  0.00    +0.000 HD
ENDROOT
BRANCH   1  12
ATOM      8  N1  UNL     1      14.873  11.444  -3.448  0.00  0.00    +0.000 NA
ATOM      9  C1  UNL     1      14.324  11.010  -4.561  0.00  0.00    +0.000 A 
ATOM     10  S1  UNL     1      13.881  12.212  -5.696  0.00  0.00    +0.000 S 
ATOM     11  C2  UNL     1      14.467  13.416  -4.619  0.00  0.00    +0.000 A 
ATOM     12  C3  UNL     1      14.962  12.828  -3.469  0.00  0.00    +0.000 A 
ENDBRANCH   1  12
TORSDOF 1
ENDMDL
MODEL 7
REMARK VINA RESULT:    -3.582      3.376      5.209
REMARK INTER + INTRA:          -3.878
REMARK INTER:                  -3.808
REMARK INTRA:                  -0.070
REMARK UNBOUND:                -0.087
REMARK  Name = /home/anacleto/Desktop/manuscript_Mpro/naturecomm/supplementary_file_S2/6-chemical-library/molecular_docking/3D_ligand_structure/1266.pdb
REMARK  1 active torsions:
REMARK  status: ('A' for Active; 'I' for Inactive)
REMARK    1  A    between atoms: C3_5  and  C4_6
REMARK                            x       y       z     vdW  Elec       q    Type
REMARK                         _______ _______ _______ _____ _____    ______ ____
ROOT
ATOM      1  C4  UNL     1      14.763  13.215  -3.458  0.00  0.00    +0.000 A 
ATOM      2  C5  UNL     1      15.453  12.266  -2.693  0.00  0.00    +0.000 A 
ATOM      3  C6  UNL     1      15.581  10.962  -3.153  0.00  0.00    +0.000 A 
ATOM      4  N2  UNL     1      15.042  10.615  -4.331  0.00  0.00    +0.000 N 
ATOM      5  C7  UNL     1      14.372  11.490  -5.097  0.00  0.00    +0.000 A 
ATOM      6  C8  UNL     1      14.217  12.809  -4.679  0.00  0.00    +0.000 A 
ATOM      7  H5  UNL     1      15.144   9.651  -4.654  0.00  0.00    +0.000 HD
ENDROOT
BRANCH   1  12
ATOM      8  N1  UNL     1      15.750  15.419  -2.960  0.00  0.00    +0.000 NA
ATOM      9  C1  UNL     1      15.430  16.594  -2.461  0.00  0.00    +0.000 A 
ATOM     10  S1  UNL     1      13.806  16.774  -1.951  0.00  0.00    +0.000 S 
ATOM     11  C2  UNL     1      13.497  15.154  -2.433  0.00  0.00    +0.000 A 
ATOM     12  C3  UNL     1      14.645  14.581  -2.948  0.00  0.00    +0.000 A 
ENDBRANCH   1  12
TORSDOF 1
ENDMDL
MODEL 8
REMARK VINA RESULT:    -3.526      5.496      6.483
REMARK INTER + INTRA:          -3.820
REMARK INTER:                  -3.744
REMARK INTRA:                  -0.076
REMARK UNBOUND:                -0.087
REMARK  Name = /home/anacleto/Desktop/manuscript_Mpro/naturecomm/supplementary_file_S2/6-chemical-library/molecular_docking/3D_ligand_structure/1266.pdb
REMARK  1 active torsions:
REMARK  status: ('A' for Active; 'I' for Inactive)
REMARK    1  A    between atoms: C3_5  and  C4_6
REMARK                            x       y       z     vdW  Elec       q    Type
REMARK                         _______ _______ _______ _____ _____    ______ ____
ROOT
ATOM      1  C4  UNL     1      15.526  11.459  -5.204  0.00  0.00    +0.000 A 
ATOM      2  C5  UNL     1      14.413  10.969  -4.507  0.00  0.00    +0.000 A 
ATOM      3  C6  UNL     1      13.253  10.638  -5.194  0.00  0.00    +0.000 A 
ATOM      4  N2  UNL     1      13.200  10.788  -6.526  0.00  0.00    +0.000 N 
ATOM      5  C7  UNL     1      14.241  11.254  -7.234  0.00  0.00    +0.000 A 
ATOM      6  C8  UNL     1      15.426  11.599  -6.592  0.00  0.00    +0.000 A 
ATOM      7  H5  UNL     1      12.339  10.541  -7.015  0.00  0.00    +0.000 HD
ENDROOT
BRANCH   1  12
ATOM      8  N1  UNL     1      17.961  11.296  -4.860  0.00  0.00    +0.000 NA
ATOM      9  C1  UNL     1      18.911  11.719  -4.054  0.00  0.00    +0.000 A 
ATOM     10  S1  UNL     1      18.407  12.736  -2.772  0.00  0.00    +0.000 S 
ATOM     11  C2  UNL     1      16.788  12.605  -3.333  0.00  0.00    +0.000 A 
ATOM     12  C3  UNL     1      16.734  11.798  -4.454  0.00  0.00    +0.000 A 
ENDBRANCH   1  12
TORSDOF 1
ENDMDL
MODEL 9
REMARK VINA RESULT:    -3.429      2.150      2.932
REMARK INTER + INTRA:          -3.716
REMARK INTER:                  -3.629
REMARK INTRA:                  -0.087
REMARK UNBOUND:                -0.087
REMARK  Name = /home/anacleto/Desktop/manuscript_Mpro/naturecomm/supplementary_file_S2/6-chemical-library/molecular_docking/3D_ligand_structure/1266.pdb
REMARK  1 active torsions:
REMARK  status: ('A' for Active; 'I' for Inactive)
REMARK    1  A    between atoms: C3_5  and  C4_6
REMARK                            x       y       z     vdW  Elec       q    Type
REMARK                         _______ _______ _______ _____ _____    ______ ____
ROOT
ATOM      1  C4  UNL     1      15.886  15.113  -1.644  0.00  0.00    +0.000 A 
ATOM      2  C5  UNL     1      15.780  14.308  -2.787  0.00  0.00    +0.000 A 
ATOM      3  C6  UNL     1      14.607  14.305  -3.528  0.00  0.00    +0.000 A 
ATOM      4  N2  UNL     1      13.575  15.074  -3.149  0.00  0.00    +0.000 N 
ATOM      5  C7  UNL     1      13.631  15.859  -2.063  0.00  0.00    +0.000 A 
ATOM      6  C8  UNL     1      14.785  15.898  -1.286  0.00  0.00    +0.000 A 
ATOM      7  H5  UNL     1      12.719  15.058  -3.706  0.00  0.00    +0.000 HD
ENDROOT
BRANCH   1  12
ATOM      8  N1  UNL     1      17.913  13.950  -0.860  0.00  0.00    +0.000 NA
ATOM      9  C1  UNL     1      18.984  14.147  -0.122  0.00  0.00    +0.000 A 
ATOM     10  S1  UNL     1      19.130  15.698   0.587  0.00  0.00    +0.000 S 
ATOM     11  C2  UNL     1      17.645  16.151  -0.148  0.00  0.00    +0.000 A 
ATOM     12  C3  UNL     1      17.134  15.097  -0.883  0.00  0.00    +0.000 A 
ENDBRANCH   1  12
TORSDOF 1
ENDMDL
