MODEL 1
REMARK VINA RESULT:    -4.872      0.000      0.000
REMARK INTER + INTRA:          -6.862
REMARK INTER:                  -6.520
REMARK INTRA:                  -0.342
REMARK UNBOUND:                -0.566
REMARK  Name = /home/anacleto/Desktop/manuscript_Mpro/naturecomm/supplementary_file_S2/6-chemical-library/molecular_docking/3D_ligand_structure/545.pdb
REMARK  5 active torsions:
REMARK  status: ('A' for Active; 'I' for Inactive)
REMARK    1  A    between atoms: C5_6  and  C6_7
REMARK    2  A    between atoms: C6_7  and  C7_8
REMARK    3  A    between atoms: N2_10  and  C8_11
REMARK    4  A    between atoms: C8_11  and  C9_12
REMARK    5  A    between atoms: C9_12  and  N3_13
REMARK                            x       y       z     vdW  Elec       q    Type
REMARK                         _______ _______ _______ _____ _____    ______ ____
ROOT
ATOM      1  C7  UNL     1      16.956   2.885   8.604  0.00  0.00    +0.000 C 
ATOM      2  O1  UNL     1      17.260   2.175   9.558  0.00  0.00    +0.000 OA
ATOM      3  N2  UNL     1      17.385   4.191   8.453  0.00  0.00    +0.000 N 
ATOM      4  H7  UNL     1      17.389   4.539   7.499  0.00  0.00    +0.000 HD
ENDROOT
BRANCH   1   5
ATOM      5  C6  UNL     1      16.090   2.385   7.463  0.00  0.00    +0.000 C 
BRANCH   5  11
ATOM      6  C1  UNL     1      15.380  -0.031   7.636  0.00  0.00    +0.000 A 
ATOM      7  N1  UNL     1      14.554  -1.042   7.991  0.00  0.00    +0.000 NA
ATOM      8  C2  UNL     1      13.427  -0.702   8.652  0.00  0.00    +0.000 A 
ATOM      9  C3  UNL     1      13.089   0.602   8.975  0.00  0.00    +0.000 A 
ATOM     10  C4  UNL     1      13.955   1.623   8.595  0.00  0.00    +0.000 A 
ATOM     11  C5  UNL     1      15.128   1.313   7.903  0.00  0.00    +0.000 A 
ENDBRANCH   5  11
ENDBRANCH   1   5
BRANCH   3  12
ATOM     12  C8  UNL     1      18.496   4.682   9.252  0.00  0.00    +0.000 C 
BRANCH  12  13
ATOM     13  C9  UNL     1      19.104   5.948   8.612  0.00  0.00    +0.000 C 
BRANCH  13  14
ATOM     14  N3  UNL     1      19.509   6.937   9.634  0.00  0.00    +0.000 NA
ATOM     15  C10 UNL     1      20.966   7.197   9.606  0.00  0.00    +0.000 C 
ATOM     16  C11 UNL     1      21.742   6.438  10.693  0.00  0.00    +0.000 C 
ATOM     17  O2  UNL     1      21.310   6.756  12.022  0.00  0.00    +0.000 OA
ATOM     18  C12 UNL     1      19.941   7.181  12.084  0.00  0.00    +0.000 C 
ATOM     19  C13 UNL     1      19.074   6.536  10.991  0.00  0.00    +0.000 C 
ENDBRANCH  13  14
ENDBRANCH  12  13
ENDBRANCH   3  12
TORSDOF 5
ENDMDL
MODEL 2
REMARK VINA RESULT:    -4.827     14.229     16.828
REMARK INTER + INTRA:          -6.804
REMARK INTER:                  -6.328
REMARK INTRA:                  -0.476
REMARK UNBOUND:                -0.566
REMARK  Name = /home/anacleto/Desktop/manuscript_Mpro/naturecomm/supplementary_file_S2/6-chemical-library/molecular_docking/3D_ligand_structure/545.pdb
REMARK  5 active torsions:
REMARK  status: ('A' for Active; 'I' for Inactive)
REMARK    1  A    between atoms: C5_6  and  C6_7
REMARK    2  A    between atoms: C6_7  and  C7_8
REMARK    3  A    between atoms: N2_10  and  C8_11
REMARK    4  A    between atoms: C8_11  and  C9_12
REMARK    5  A    between atoms: C9_12  and  N3_13
REMARK                            x       y       z     vdW  Elec       q    Type
REMARK                         _______ _______ _______ _____ _____    ______ ____
ROOT
ATOM      1  C7  UNL     1      18.113  12.105  -1.933  0.00  0.00    +0.000 C 
ATOM      2  O1  UNL     1      18.428  12.590  -3.016  0.00  0.00    +0.000 OA
ATOM      3  N2  UNL     1      17.001  11.306  -1.746  0.00  0.00    +0.000 N 
ATOM      4  H7  UNL     1      17.043  10.684  -0.945  0.00  0.00    +0.000 HD
ENDROOT
BRANCH   1   5
ATOM      5  C6  UNL     1      18.941  12.314  -0.679  0.00  0.00    +0.000 C 
BRANCH   5  11
ATOM      6  C1  UNL     1      17.696  14.465  -0.242  0.00  0.00    +0.000 A 
ATOM      7  N1  UNL     1      17.574  15.747   0.174  0.00  0.00    +0.000 NA
ATOM      8  C2  UNL     1      18.682  16.328   0.682  0.00  0.00    +0.000 A 
ATOM      9  C3  UNL     1      19.905  15.686   0.793  0.00  0.00    +0.000 A 
ATOM     10  C4  UNL     1      20.002  14.369   0.355  0.00  0.00    +0.000 A 
ATOM     11  C5  UNL     1      18.880  13.734  -0.183  0.00  0.00    +0.000 A 
ENDBRANCH   5  11
ENDBRANCH   1   5
BRANCH   3  12
ATOM     12  C8  UNL     1      16.331  10.721  -2.897  0.00  0.00    +0.000 C 
BRANCH  12  13
ATOM     13  C9  UNL     1      15.074  11.537  -3.262  0.00  0.00    +0.000 C 
BRANCH  13  14
ATOM     14  N3  UNL     1      15.189  12.149  -4.603  0.00  0.00    +0.000 NA
ATOM     15  C10 UNL     1      13.864  12.422  -5.203  0.00  0.00    +0.000 C 
ATOM     16  C11 UNL     1      13.428  11.363  -6.227  0.00  0.00    +0.000 C 
ATOM     17  O2  UNL     1      14.339  11.231  -7.326  0.00  0.00    +0.000 OA
ATOM     18  C12 UNL     1      15.685  11.597  -6.990  0.00  0.00    +0.000 C 
ATOM     19  C13 UNL     1      16.018  11.328  -5.514  0.00  0.00    +0.000 C 
ENDBRANCH  13  14
ENDBRANCH  12  13
ENDBRANCH   3  12
TORSDOF 5
ENDMDL
MODEL 3
REMARK VINA RESULT:    -4.808      1.191      1.621
REMARK INTER + INTRA:          -6.779
REMARK INTER:                  -6.386
REMARK INTRA:                  -0.394
REMARK UNBOUND:                -0.566
REMARK  Name = /home/anacleto/Desktop/manuscript_Mpro/naturecomm/supplementary_file_S2/6-chemical-library/molecular_docking/3D_ligand_structure/545.pdb
REMARK  5 active torsions:
REMARK  status: ('A' for Active; 'I' for Inactive)
REMARK    1  A    between atoms: C5_6  and  C6_7
REMARK    2  A    between atoms: C6_7  and  C7_8
REMARK    3  A    between atoms: N2_10  and  C8_11
REMARK    4  A    between atoms: C8_11  and  C9_12
REMARK    5  A    between atoms: C9_12  and  N3_13
REMARK                            x       y       z     vdW  Elec       q    Type
REMARK                         _______ _______ _______ _____ _____    ______ ____
ROOT
ATOM      1  C7  UNL     1      16.863   2.495   8.549  0.00  0.00    +0.000 C 
ATOM      2  O1  UNL     1      17.360   1.608   9.235  0.00  0.00    +0.000 OA
ATOM      3  N2  UNL     1      17.310   3.803   8.544  0.00  0.00    +0.000 N 
ATOM      4  H7  UNL     1      17.091   4.335   7.708  0.00  0.00    +0.000 HD
ENDROOT
BRANCH   1   5
ATOM      5  C6  UNL     1      15.708   2.236   7.599  0.00  0.00    +0.000 C 
BRANCH   5  11
ATOM      6  C1  UNL     1      14.664  -0.050   7.841  0.00  0.00    +0.000 A 
ATOM      7  N1  UNL     1      13.766  -0.941   8.319  0.00  0.00    +0.000 NA
ATOM      8  C2  UNL     1      12.850  -0.470   9.192  0.00  0.00    +0.000 A 
ATOM      9  C3  UNL     1      12.790   0.850   9.607  0.00  0.00    +0.000 A 
ATOM     10  C4  UNL     1      13.724   1.746   9.096  0.00  0.00    +0.000 A 
ATOM     11  C5  UNL     1      14.684   1.300   8.185  0.00  0.00    +0.000 A 
ENDBRANCH   5  11
ENDBRANCH   1   5
BRANCH   3  12
ATOM     12  C8  UNL     1      18.615   4.121   9.105  0.00  0.00    +0.000 C 
BRANCH  12  13
ATOM     13  C9  UNL     1      18.461   4.780  10.491  0.00  0.00    +0.000 C 
BRANCH  13  14
ATOM     14  N3  UNL     1      19.589   5.687  10.794  0.00  0.00    +0.000 NA
ATOM     15  C10 UNL     1      19.247   7.103  10.529  0.00  0.00    +0.000 C 
ATOM     16  C11 UNL     1      19.789   7.621   9.188  0.00  0.00    +0.000 C 
ATOM     17  O2  UNL     1      21.216   7.532   9.083  0.00  0.00    +0.000 OA
ATOM     18  C12 UNL     1      21.777   6.487   9.889  0.00  0.00    +0.000 C 
ATOM     19  C13 UNL     1      20.818   5.299  10.066  0.00  0.00    +0.000 C 
ENDBRANCH  13  14
ENDBRANCH  12  13
ENDBRANCH   3  12
TORSDOF 5
ENDMDL
MODEL 4
REMARK VINA RESULT:    -4.585     14.439     15.516
REMARK INTER + INTRA:          -6.492
REMARK INTER:                  -6.150
REMARK INTRA:                  -0.342
REMARK UNBOUND:                -0.566
REMARK  Name = /home/anacleto/Desktop/manuscript_Mpro/naturecomm/supplementary_file_S2/6-chemical-library/molecular_docking/3D_ligand_structure/545.pdb
REMARK  5 active torsions:
REMARK  status: ('A' for Active; 'I' for Inactive)
REMARK    1  A    between atoms: C5_6  and  C6_7
REMARK    2  A    between atoms: C6_7  and  C7_8
REMARK    3  A    between atoms: N2_10  and  C8_11
REMARK    4  A    between atoms: C8_11  and  C9_12
REMARK    5  A    between atoms: C9_12  and  N3_13
REMARK                            x       y       z     vdW  Elec       q    Type
REMARK                         _______ _______ _______ _____ _____    ______ ____
ROOT
ATOM      1  C7  UNL     1      15.760  12.266  -2.539  0.00  0.00    +0.000 C 
ATOM      2  O1  UNL     1      15.035  13.255  -2.591  0.00  0.00    +0.000 OA
ATOM      3  N2  UNL     1      16.990  12.249  -1.907  0.00  0.00    +0.000 N 
ATOM      4  H7  UNL     1      17.314  11.334  -1.610  0.00  0.00    +0.000 HD
ENDROOT
BRANCH   1   5
ATOM      5  C6  UNL     1      15.361  10.934  -3.146  0.00  0.00    +0.000 C 
BRANCH   5  11
ATOM      6  C1  UNL     1      13.654  10.721  -4.994  0.00  0.00    +0.000 A 
ATOM      7  N1  UNL     1      13.217  10.802  -6.271  0.00  0.00    +0.000 NA
ATOM      8  C2  UNL     1      14.099  11.255  -7.187  0.00  0.00    +0.000 A 
ATOM      9  C3  UNL     1      15.398  11.631  -6.885  0.00  0.00    +0.000 A 
ATOM     10  C4  UNL     1      15.822  11.534  -5.563  0.00  0.00    +0.000 A 
ATOM     11  C5  UNL     1      14.942  11.064  -4.586  0.00  0.00    +0.000 A 
ENDBRANCH   5  11
ENDBRANCH   1   5
BRANCH   3  12
ATOM     12  C8  UNL     1      17.338  13.314  -0.979  0.00  0.00    +0.000 C 
BRANCH  12  13
ATOM     13  C9  UNL     1      18.845  13.274  -0.652  0.00  0.00    +0.000 C 
BRANCH  13  14
ATOM     14  N3  UNL     1      19.234  14.364   0.268  0.00  0.00    +0.000 NA
ATOM     15  C10 UNL     1      18.317  15.521   0.176  0.00  0.00    +0.000 C 
ATOM     16  C11 UNL     1      18.867  16.669  -0.684  0.00  0.00    +0.000 C 
ATOM     17  O2  UNL     1      20.112  17.191  -0.201  0.00  0.00    +0.000 OA
ATOM     18  C12 UNL     1      20.877  16.228   0.537  0.00  0.00    +0.000 C 
ATOM     19  C13 UNL     1      20.636  14.788   0.057  0.00  0.00    +0.000 C 
ENDBRANCH  13  14
ENDBRANCH  12  13
ENDBRANCH   3  12
TORSDOF 5
ENDMDL
MODEL 5
REMARK VINA RESULT:    -4.509     15.734     17.687
REMARK INTER + INTRA:          -6.394
REMARK INTER:                  -5.770
REMARK INTRA:                  -0.624
REMARK UNBOUND:                -0.566
REMARK  Name = /home/anacleto/Desktop/manuscript_Mpro/naturecomm/supplementary_file_S2/6-chemical-library/molecular_docking/3D_ligand_structure/545.pdb
REMARK  5 active torsions:
REMARK  status: ('A' for Active; 'I' for Inactive)
REMARK    1  A    between atoms: C5_6  and  C6_7
REMARK    2  A    between atoms: C6_7  and  C7_8
REMARK    3  A    between atoms: N2_10  and  C8_11
REMARK    4  A    between atoms: C8_11  and  C9_12
REMARK    5  A    between atoms: C9_12  and  N3_13
REMARK                            x       y       z     vdW  Elec       q    Type
REMARK                         _______ _______ _______ _____ _____    ______ ____
ROOT
ATOM      1  C7  UNL     1      16.469  15.265  -3.188  0.00  0.00    +0.000 C 
ATOM      2  O1  UNL     1      17.236  14.333  -2.967  0.00  0.00    +0.000 OA
ATOM      3  N2  UNL     1      15.823  15.459  -4.395  0.00  0.00    +0.000 N 
ATOM      4  H7  UNL     1      14.970  16.007  -4.349  0.00  0.00    +0.000 HD
ENDROOT
BRANCH   1   5
ATOM      5  C6  UNL     1      16.124  16.299  -2.132  0.00  0.00    +0.000 C 
BRANCH   5  11
ATOM      6  C1  UNL     1      14.034  17.712  -2.214  0.00  0.00    +0.000 A 
ATOM      7  N1  UNL     1      12.708  17.947  -2.079  0.00  0.00    +0.000 NA
ATOM      8  C2  UNL     1      11.944  16.903  -1.693  0.00  0.00    +0.000 A 
ATOM      9  C3  UNL     1      12.443  15.637  -1.437  0.00  0.00    +0.000 A 
ATOM     10  C4  UNL     1      13.811  15.424  -1.582  0.00  0.00    +0.000 A 
ATOM     11  C5  UNL     1      14.637  16.480  -1.972  0.00  0.00    +0.000 A 
ENDBRANCH   5  11
ENDBRANCH   1   5
BRANCH   3  12
ATOM     12  C8  UNL     1      15.760  14.373  -5.361  0.00  0.00    +0.000 C 
BRANCH  12  13
ATOM     13  C9  UNL     1      14.667  13.360  -4.963  0.00  0.00    +0.000 C 
BRANCH  13  14
ATOM     14  N3  UNL     1      15.135  11.964  -5.108  0.00  0.00    +0.000 NA
ATOM     15  C10 UNL     1      14.791  11.139  -3.929  0.00  0.00    +0.000 C 
ATOM     16  C11 UNL     1      15.964  10.947  -2.955  0.00  0.00    +0.000 C 
ATOM     17  O2  UNL     1      17.102  10.318  -3.559  0.00  0.00    +0.000 OA
ATOM     18  C12 UNL     1      17.189  10.546  -4.972  0.00  0.00    +0.000 C 
ATOM     19  C13 UNL     1      16.586  11.897  -5.390  0.00  0.00    +0.000 C 
ENDBRANCH  13  14
ENDBRANCH  12  13
ENDBRANCH   3  12
TORSDOF 5
ENDMDL
MODEL 6
REMARK VINA RESULT:    -4.505      1.814      2.275
REMARK INTER + INTRA:          -6.388
REMARK INTER:                  -6.007
REMARK INTRA:                  -0.380
REMARK UNBOUND:                -0.566
REMARK  Name = /home/anacleto/Desktop/manuscript_Mpro/naturecomm/supplementary_file_S2/6-chemical-library/molecular_docking/3D_ligand_structure/545.pdb
REMARK  5 active torsions:
REMARK  status: ('A' for Active; 'I' for Inactive)
REMARK    1  A    between atoms: C5_6  and  C6_7
REMARK    2  A    between atoms: C6_7  and  C7_8
REMARK    3  A    between atoms: N2_10  and  C8_11
REMARK    4  A    between atoms: C8_11  and  C9_12
REMARK    5  A    between atoms: C9_12  and  N3_13
REMARK                            x       y       z     vdW  Elec       q    Type
REMARK                         _______ _______ _______ _____ _____    ______ ____
ROOT
ATOM      1  C7  UNL     1      17.330   2.903   8.665  0.00  0.00    +0.000 C 
ATOM      2  O1  UNL     1      17.964   2.051   9.281  0.00  0.00    +0.000 OA
ATOM      3  N2  UNL     1      17.668   4.243   8.642  0.00  0.00    +0.000 N 
ATOM      4  H7  UNL     1      17.324   4.765   7.842  0.00  0.00    +0.000 HD
ENDROOT
BRANCH   1   5
ATOM      5  C6  UNL     1      16.111   2.560   7.829  0.00  0.00    +0.000 C 
BRANCH   5  11
ATOM      6  C1  UNL     1      14.742   2.503   9.949  0.00  0.00    +0.000 A 
ATOM      7  N1  UNL     1      13.752   2.056  10.755  0.00  0.00    +0.000 NA
ATOM      8  C2  UNL     1      12.952   1.091  10.256  0.00  0.00    +0.000 A 
ATOM      9  C3  UNL     1      13.095   0.553   8.988  0.00  0.00    +0.000 A 
ATOM     10  C4  UNL     1      14.124   1.028   8.180  0.00  0.00    +0.000 A 
ATOM     11  C5  UNL     1      14.979   2.022   8.663  0.00  0.00    +0.000 A 
ENDBRANCH   5  11
ENDBRANCH   1   5
BRANCH   3  12
ATOM     12  C8  UNL     1      18.992   4.660   9.077  0.00  0.00    +0.000 C 
BRANCH  12  13
ATOM     13  C9  UNL     1      18.967   6.128   9.550  0.00  0.00    +0.000 C 
BRANCH  13  14
ATOM     14  N3  UNL     1      19.424   6.259  10.951  0.00  0.00    +0.000 NA
ATOM     15  C10 UNL     1      18.950   5.139  11.795  0.00  0.00    +0.000 C 
ATOM     16  C11 UNL     1      17.721   5.494  12.645  0.00  0.00    +0.000 C 
ATOM     17  O2  UNL     1      17.948   6.592  13.538  0.00  0.00    +0.000 OA
ATOM     18  C12 UNL     1      18.959   7.497  13.072  0.00  0.00    +0.000 C 
ATOM     19  C13 UNL     1      19.034   7.560  11.538  0.00  0.00    +0.000 C 
ENDBRANCH  13  14
ENDBRANCH  12  13
ENDBRANCH   3  12
TORSDOF 5
ENDMDL
MODEL 7
REMARK VINA RESULT:    -4.469     14.570     15.592
REMARK INTER + INTRA:          -6.341
REMARK INTER:                  -6.006
REMARK INTRA:                  -0.335
REMARK UNBOUND:                -0.566
REMARK  Name = /home/anacleto/Desktop/manuscript_Mpro/naturecomm/supplementary_file_S2/6-chemical-library/molecular_docking/3D_ligand_structure/545.pdb
REMARK  5 active torsions:
REMARK  status: ('A' for Active; 'I' for Inactive)
REMARK    1  A    between atoms: C5_6  and  C6_7
REMARK    2  A    between atoms: C6_7  and  C7_8
REMARK    3  A    between atoms: N2_10  and  C8_11
REMARK    4  A    between atoms: C8_11  and  C9_12
REMARK    5  A    between atoms: C9_12  and  N3_13
REMARK                            x       y       z     vdW  Elec       q    Type
REMARK                         _______ _______ _______ _____ _____    ______ ____
ROOT
ATOM      1  C7  UNL     1      16.276  11.635  -2.262  0.00  0.00    +0.000 C 
ATOM      2  O1  UNL     1      15.736  11.148  -1.273  0.00  0.00    +0.000 OA
ATOM      3  N2  UNL     1      16.638  12.966  -2.361  0.00  0.00    +0.000 N 
ATOM      4  H7  UNL     1      17.377  13.167  -3.026  0.00  0.00    +0.000 HD
ENDROOT
BRANCH   1   5
ATOM      5  C6  UNL     1      16.633  10.807  -3.483  0.00  0.00    +0.000 C 
BRANCH   5  11
ATOM      6  C1  UNL     1      14.306  10.906  -4.455  0.00  0.00    +0.000 A 
ATOM      7  N1  UNL     1      13.398  11.085  -5.442  0.00  0.00    +0.000 NA
ATOM      8  C2  UNL     1      13.881  11.420  -6.657  0.00  0.00    +0.000 A 
ATOM      9  C3  UNL     1      15.228  11.584  -6.931  0.00  0.00    +0.000 A 
ATOM     10  C4  UNL     1      16.141  11.391  -5.898  0.00  0.00    +0.000 A 
ATOM     11  C5  UNL     1      15.682  11.036  -4.627  0.00  0.00    +0.000 A 
ENDBRANCH   5  11
ENDBRANCH   1   5
BRANCH   3  12
ATOM     12  C8  UNL     1      16.701  13.786  -1.161  0.00  0.00    +0.000 C 
BRANCH  12  13
ATOM     13  C9  UNL     1      15.860  15.067  -1.338  0.00  0.00    +0.000 C 
BRANCH  13  14
ATOM     14  N3  UNL     1      16.407  16.194  -0.552  0.00  0.00    +0.000 NA
ATOM     15  C10 UNL     1      17.558  16.833  -1.228  0.00  0.00    +0.000 C 
ATOM     16  C11 UNL     1      18.918  16.385  -0.672  0.00  0.00    +0.000 C 
ATOM     17  O2  UNL     1      19.076  16.662   0.725  0.00  0.00    +0.000 OA
ATOM     18  C12 UNL     1      17.831  16.707   1.436  0.00  0.00    +0.000 C 
ATOM     19  C13 UNL     1      16.768  15.783   0.823  0.00  0.00    +0.000 C 
ENDBRANCH  13  14
ENDBRANCH  12  13
ENDBRANCH   3  12
TORSDOF 5
ENDMDL
MODEL 8
REMARK VINA RESULT:    -4.375     15.042     17.396
REMARK INTER + INTRA:          -6.220
REMARK INTER:                  -5.537
REMARK INTRA:                  -0.683
REMARK UNBOUND:                -0.566
REMARK  Name = /home/anacleto/Desktop/manuscript_Mpro/naturecomm/supplementary_file_S2/6-chemical-library/molecular_docking/3D_ligand_structure/545.pdb
REMARK  5 active torsions:
REMARK  status: ('A' for Active; 'I' for Inactive)
REMARK    1  A    between atoms: C5_6  and  C6_7
REMARK    2  A    between atoms: C6_7  and  C7_8
REMARK    3  A    between atoms: N2_10  and  C8_11
REMARK    4  A    between atoms: C8_11  and  C9_12
REMARK    5  A    between atoms: C9_12  and  N3_13
REMARK                            x       y       z     vdW  Elec       q    Type
REMARK                         _______ _______ _______ _____ _____    ______ ____
ROOT
ATOM      1  C7  UNL     1      16.229  14.719  -2.835  0.00  0.00    +0.000 C 
ATOM      2  O1  UNL     1      17.347  14.221  -2.922  0.00  0.00    +0.000 OA
ATOM      3  N2  UNL     1      15.383  14.898  -3.915  0.00  0.00    +0.000 N 
ATOM      4  H7  UNL     1      14.396  14.961  -3.688  0.00  0.00    +0.000 HD
ENDROOT
BRANCH   1   5
ATOM      5  C6  UNL     1      15.641  15.168  -1.511  0.00  0.00    +0.000 C 
BRANCH   5  11
ATOM      6  C1  UNL     1      17.156  17.180  -1.345  0.00  0.00    +0.000 A 
ATOM      7  N1  UNL     1      18.014  18.018  -0.719  0.00  0.00    +0.000 NA
ATOM      8  C2  UNL     1      18.302  17.740   0.570  0.00  0.00    +0.000 A 
ATOM      9  C3  UNL     1      17.773  16.664   1.262  0.00  0.00    +0.000 A 
ATOM     10  C4  UNL     1      16.896  15.815   0.593  0.00  0.00    +0.000 A 
ATOM     11  C5  UNL     1      16.577  16.064  -0.744  0.00  0.00    +0.000 A 
ENDBRANCH   5  11
ENDBRANCH   1   5
BRANCH   3  12
ATOM     12  C8  UNL     1      15.646  14.194  -5.160  0.00  0.00    +0.000 C 
BRANCH  12  13
ATOM     13  C9  UNL     1      14.587  13.096  -5.393  0.00  0.00    +0.000 C 
BRANCH  13  14
ATOM     14  N3  UNL     1      15.172  11.742  -5.295  0.00  0.00    +0.000 NA
ATOM     15  C10 UNL     1      14.724  11.032  -4.076  0.00  0.00    +0.000 C 
ATOM     16  C11 UNL     1      15.756  11.062  -2.938  0.00  0.00    +0.000 C 
ATOM     17  O2  UNL     1      17.012  10.472  -3.299  0.00  0.00    +0.000 OA
ATOM     18  C12 UNL     1      17.284  10.541  -4.706  0.00  0.00    +0.000 C 
ATOM     19  C13 UNL     1      16.650  11.774  -5.370  0.00  0.00    +0.000 C 
ENDBRANCH  13  14
ENDBRANCH  12  13
ENDBRANCH   3  12
TORSDOF 5
ENDMDL
MODEL 9
REMARK VINA RESULT:    -4.300     14.696     17.003
REMARK INTER + INTRA:          -6.124
REMARK INTER:                  -5.557
REMARK INTRA:                  -0.566
REMARK UNBOUND:                -0.566
REMARK  Name = /home/anacleto/Desktop/manuscript_Mpro/naturecomm/supplementary_file_S2/6-chemical-library/molecular_docking/3D_ligand_structure/545.pdb
REMARK  5 active torsions:
REMARK  status: ('A' for Active; 'I' for Inactive)
REMARK    1  A    between atoms: C5_6  and  C6_7
REMARK    2  A    between atoms: C6_7  and  C7_8
REMARK    3  A    between atoms: N2_10  and  C8_11
REMARK    4  A    between atoms: C8_11  and  C9_12
REMARK    5  A    between atoms: C9_12  and  N3_13
REMARK                            x       y       z     vdW  Elec       q    Type
REMARK                         _______ _______ _______ _____ _____    ______ ____
ROOT
ATOM      1  C7  UNL     1      16.298  15.518  -1.155  0.00  0.00    +0.000 C 
ATOM      2  O1  UNL     1      15.871  16.587  -1.582  0.00  0.00    +0.000 OA
ATOM      3  N2  UNL     1      16.304  14.347  -1.889  0.00  0.00    +0.000 N 
ATOM      4  H7  UNL     1      16.986  13.654  -1.597  0.00  0.00    +0.000 HD
ENDROOT
BRANCH   1   5
ATOM      5  C6  UNL     1      16.897  15.380   0.232  0.00  0.00    +0.000 C 
BRANCH   5  11
ATOM      6  C1  UNL     1      18.923  16.885   0.285  0.00  0.00    +0.000 A 
ATOM      7  N1  UNL     1      20.249  17.154   0.278  0.00  0.00    +0.000 NA
ATOM      8  C2  UNL     1      21.083  16.093   0.231  0.00  0.00    +0.000 A 
ATOM      9  C3  UNL     1      20.652  14.778   0.190  0.00  0.00    +0.000 A 
ATOM     10  C4  UNL     1      19.283  14.530   0.194  0.00  0.00    +0.000 A 
ATOM     11  C5  UNL     1      18.387  15.600   0.236  0.00  0.00    +0.000 A 
ENDBRANCH   5  11
ENDBRANCH   1   5
BRANCH   3  12
ATOM     12  C8  UNL     1      16.112  14.397  -3.330  0.00  0.00    +0.000 C 
BRANCH  12  13
ATOM     13  C9  UNL     1      14.816  13.662  -3.728  0.00  0.00    +0.000 C 
BRANCH  13  14
ATOM     14  N3  UNL     1      15.101  12.410  -4.463  0.00  0.00    +0.000 NA
ATOM     15  C10 UNL     1      14.973  11.218  -3.596  0.00  0.00    +0.000 C 
ATOM     16  C11 UNL     1      16.321  10.686  -3.086  0.00  0.00    +0.000 C 
ATOM     17  O2  UNL     1      17.217  10.312  -4.141  0.00  0.00    +0.000 OA
ATOM     18  C12 UNL     1      16.984  11.032  -5.360  0.00  0.00    +0.000 C 
ATOM     19  C13 UNL     1      16.430  12.444  -5.114  0.00  0.00    +0.000 C 
ENDBRANCH  13  14
ENDBRANCH  12  13
ENDBRANCH   3  12
TORSDOF 5
ENDMDL
