MODEL 1
REMARK VINA RESULT:    -5.393      0.000      0.000
REMARK INTER + INTRA:          -6.983
REMARK INTER:                  -6.674
REMARK INTRA:                  -0.309
REMARK UNBOUND:                -0.329
REMARK  Name = /home/anacleto/Desktop/manuscript_Mpro/naturecomm/supplementary_file_S2/6-chemical-library/molecular_docking/3D_ligand_structure/667.pdb
REMARK  4 active torsions:
REMARK  status: ('A' for Active; 'I' for Inactive)
REMARK    1  A    between atoms: C3_5  and  C4_6
REMARK    2  A    between atoms: C4_6  and  C5_7
REMARK    3  A    between atoms: C5_7  and  C6_8
REMARK    4  A    between atoms: N3_10  and  C7_11
REMARK                            x       y       z     vdW  Elec       q    Type
REMARK                         _______ _______ _______ _____ _____    ______ ____
ROOT
ATOM      1  C6  UNL     1      17.202   3.613   8.826  0.00  0.00    +0.000 C 
ATOM      2  O1  UNL     1      17.205   3.387  10.030  0.00  0.00    +0.000 OA
ATOM      3  N3  UNL     1      17.944   4.616   8.235  0.00  0.00    +0.000 N 
ATOM      4  H8  UNL     1      18.028   4.616   7.225  0.00  0.00    +0.000 HD
ENDROOT
BRANCH   3   5
ATOM      5  C7  UNL     1      18.877   5.432   8.999  0.00  0.00    +0.000 C 
ATOM      6  C8  UNL     1      18.894   6.865   8.454  0.00  0.00    +0.000 C 
ATOM      7  C9  UNL     1      19.905   7.737   9.193  0.00  0.00    +0.000 C 
ATOM      8  C10 UNL     1      21.300   7.122   9.171  0.00  0.00    +0.000 C 
ATOM      9  C11 UNL     1      21.293   5.695   9.711  0.00  0.00    +0.000 C 
ATOM     10  C12 UNL     1      20.283   4.818   8.975  0.00  0.00    +0.000 C 
ENDBRANCH   3   5
BRANCH   1  11
ATOM     11  C5  UNL     1      16.394   2.814   7.825  0.00  0.00    +0.000 C 
BRANCH  11  12
ATOM     12  C4  UNL     1      15.273   2.033   8.506  0.00  0.00    +0.000 C 
BRANCH  12  17
ATOM     13  N1  UNL     1      16.120   0.087   7.149  0.00  0.00    +0.000 N 
ATOM     14  C1  UNL     1      15.705  -1.178   6.844  0.00  0.00    +0.000 A 
ATOM     15  N2  UNL     1      14.560  -1.461   7.418  0.00  0.00    +0.000 NA
ATOM     16  C2  UNL     1      14.223  -0.340   8.128  0.00  0.00    +0.000 A 
ATOM     17  C3  UNL     1      15.171   0.648   7.967  0.00  0.00    +0.000 A 
ATOM     18  H1  UNL     1      16.974   0.522   6.830  0.00  0.00    +0.000 HD
ENDBRANCH  12  17
ENDBRANCH  11  12
ENDBRANCH   1  11
TORSDOF 4
ENDMDL
MODEL 2
REMARK VINA RESULT:    -5.389      1.636      1.944
REMARK INTER + INTRA:          -6.978
REMARK INTER:                  -6.496
REMARK INTRA:                  -0.482
REMARK UNBOUND:                -0.329
REMARK  Name = /home/anacleto/Desktop/manuscript_Mpro/naturecomm/supplementary_file_S2/6-chemical-library/molecular_docking/3D_ligand_structure/667.pdb
REMARK  4 active torsions:
REMARK  status: ('A' for Active; 'I' for Inactive)
REMARK    1  A    between atoms: C3_5  and  C4_6
REMARK    2  A    between atoms: C4_6  and  C5_7
REMARK    3  A    between atoms: C5_7  and  C6_8
REMARK    4  A    between atoms: N3_10  and  C7_11
REMARK                            x       y       z     vdW  Elec       q    Type
REMARK                         _______ _______ _______ _____ _____    ______ ____
ROOT
ATOM      1  C6  UNL     1      17.216   3.650   8.767  0.00  0.00    +0.000 C 
ATOM      2  O1  UNL     1      17.196   3.423   9.971  0.00  0.00    +0.000 OA
ATOM      3  N3  UNL     1      17.976   4.647   8.189  0.00  0.00    +0.000 N 
ATOM      4  H8  UNL     1      18.077   4.647   7.181  0.00  0.00    +0.000 HD
ENDROOT
BRANCH   3   5
ATOM      5  C7  UNL     1      18.902   5.456   8.971  0.00  0.00    +0.000 C 
ATOM      6  C8  UNL     1      18.912   6.898   8.451  0.00  0.00    +0.000 C 
ATOM      7  C9  UNL     1      19.915   7.763   9.208  0.00  0.00    +0.000 C 
ATOM      8  C10 UNL     1      21.315   7.156   9.179  0.00  0.00    +0.000 C 
ATOM      9  C11 UNL     1      21.315   5.720   9.695  0.00  0.00    +0.000 C 
ATOM     10  C12 UNL     1      20.312   4.850   8.940  0.00  0.00    +0.000 C 
ENDBRANCH   3   5
BRANCH   1  11
ATOM     11  C5  UNL     1      16.420   2.858   7.752  0.00  0.00    +0.000 C 
BRANCH  11  12
ATOM     12  C4  UNL     1      16.117   1.448   8.252  0.00  0.00    +0.000 C 
BRANCH  12  17
ATOM     13  N1  UNL     1      14.565   1.669  10.224  0.00  0.00    +0.000 N 
ATOM     14  C1  UNL     1      13.235   1.495  10.477  0.00  0.00    +0.000 A 
ATOM     15  N2  UNL     1      12.585   1.116   9.401  0.00  0.00    +0.000 NA
ATOM     16  C2  UNL     1      13.530   1.050   8.412  0.00  0.00    +0.000 A 
ATOM     17  C3  UNL     1      14.777   1.376   8.900  0.00  0.00    +0.000 A 
ATOM     18  H1  UNL     1      15.260   1.967  10.894  0.00  0.00    +0.000 HD
ENDBRANCH  12  17
ENDBRANCH  11  12
ENDBRANCH   1  11
TORSDOF 4
ENDMDL
MODEL 3
REMARK VINA RESULT:    -4.965     13.895     14.632
REMARK INTER + INTRA:          -6.455
REMARK INTER:                  -6.222
REMARK INTRA:                  -0.233
REMARK UNBOUND:                -0.329
REMARK  Name = /home/anacleto/Desktop/manuscript_Mpro/naturecomm/supplementary_file_S2/6-chemical-library/molecular_docking/3D_ligand_structure/667.pdb
REMARK  4 active torsions:
REMARK  status: ('A' for Active; 'I' for Inactive)
REMARK    1  A    between atoms: C3_5  and  C4_6
REMARK    2  A    between atoms: C4_6  and  C5_7
REMARK    3  A    between atoms: C5_7  and  C6_8
REMARK    4  A    between atoms: N3_10  and  C7_11
REMARK                            x       y       z     vdW  Elec       q    Type
REMARK                         _______ _______ _______ _____ _____    ______ ____
ROOT
ATOM      1  C6  UNL     1      16.290  12.678  -1.329  0.00  0.00    +0.000 C 
ATOM      2  O1  UNL     1      16.596  11.772  -0.563  0.00  0.00    +0.000 OA
ATOM      3  N3  UNL     1      16.766  13.969  -1.215  0.00  0.00    +0.000 N 
ATOM      4  H8  UNL     1      16.612  14.605  -1.989  0.00  0.00    +0.000 HD
ENDROOT
BRANCH   3   5
ATOM      5  C7  UNL     1      17.760  14.335  -0.216  0.00  0.00    +0.000 C 
ATOM      6  C8  UNL     1      17.649  15.826   0.119  0.00  0.00    +0.000 C 
ATOM      7  C9  UNL     1      18.715  16.260   1.121  0.00  0.00    +0.000 C 
ATOM      8  C10 UNL     1      20.117  15.908   0.636  0.00  0.00    +0.000 C 
ATOM      9  C11 UNL     1      20.239  14.425   0.299  0.00  0.00    +0.000 C 
ATOM     10  C12 UNL     1      19.173  13.985  -0.703  0.00  0.00    +0.000 C 
ENDBRANCH   3   5
BRANCH   1  11
ATOM     11  C5  UNL     1      15.360  12.498  -2.510  0.00  0.00    +0.000 C 
BRANCH  11  12
ATOM     12  C4  UNL     1      15.485  11.103  -3.114  0.00  0.00    +0.000 C 
BRANCH  12  17
ATOM     13  N1  UNL     1      13.674  10.287  -4.664  0.00  0.00    +0.000 N 
ATOM     14  C1  UNL     1      13.338  10.434  -5.979  0.00  0.00    +0.000 A 
ATOM     15  N2  UNL     1      14.183  11.218  -6.607  0.00  0.00    +0.000 NA
ATOM     16  C2  UNL     1      15.096  11.599  -5.660  0.00  0.00    +0.000 A 
ATOM     17  C3  UNL     1      14.811  11.022  -4.441  0.00  0.00    +0.000 A 
ATOM     18  H1  UNL     1      13.167   9.739  -3.982  0.00  0.00    +0.000 HD
ENDBRANCH  12  17
ENDBRANCH  11  12
ENDBRANCH   1  11
TORSDOF 4
ENDMDL
MODEL 4
REMARK VINA RESULT:    -4.920      2.527      7.293
REMARK INTER + INTRA:          -6.400
REMARK INTER:                  -6.035
REMARK INTRA:                  -0.365
REMARK UNBOUND:                -0.329
REMARK  Name = /home/anacleto/Desktop/manuscript_Mpro/naturecomm/supplementary_file_S2/6-chemical-library/molecular_docking/3D_ligand_structure/667.pdb
REMARK  4 active torsions:
REMARK  status: ('A' for Active; 'I' for Inactive)
REMARK    1  A    between atoms: C3_5  and  C4_6
REMARK    2  A    between atoms: C4_6  and  C5_7
REMARK    3  A    between atoms: C5_7  and  C6_8
REMARK    4  A    between atoms: N3_10  and  C7_11
REMARK                            x       y       z     vdW  Elec       q    Type
REMARK                         _______ _______ _______ _____ _____    ______ ____
ROOT
ATOM      1  C6  UNL     1      18.900   4.751   8.842  0.00  0.00    +0.000 C 
ATOM      2  O1  UNL     1      19.711   3.911   9.213  0.00  0.00    +0.000 OA
ATOM      3  N3  UNL     1      17.582   4.465   8.549  0.00  0.00    +0.000 N 
ATOM      4  H8  UNL     1      16.940   5.239   8.429  0.00  0.00    +0.000 HD
ENDROOT
BRANCH   3   5
ATOM      5  C7  UNL     1      17.022   3.136   8.755  0.00  0.00    +0.000 C 
ATOM      6  C8  UNL     1      16.248   2.689   7.510  0.00  0.00    +0.000 C 
ATOM      7  C9  UNL     1      15.596   1.325   7.710  0.00  0.00    +0.000 C 
ATOM      8  C10 UNL     1      14.706   1.304   8.949  0.00  0.00    +0.000 C 
ATOM      9  C11 UNL     1      15.467   1.749  10.195  0.00  0.00    +0.000 C 
ATOM     10  C12 UNL     1      16.122   3.114   9.999  0.00  0.00    +0.000 C 
ENDBRANCH   3   5
BRANCH   1  11
ATOM     11  C5  UNL     1      19.234   6.218   8.668  0.00  0.00    +0.000 C 
BRANCH  11  12
ATOM     12  C4  UNL     1      20.449   6.619   9.500  0.00  0.00    +0.000 C 
BRANCH  12  17
ATOM     13  N1  UNL     1      20.964   7.271  11.877  0.00  0.00    +0.000 N 
ATOM     14  C1  UNL     1      20.261   7.601  13.001  0.00  0.00    +0.000 A 
ATOM     15  N2  UNL     1      18.968   7.580  12.784  0.00  0.00    +0.000 NA
ATOM     16  C2  UNL     1      18.827   7.231  11.467  0.00  0.00    +0.000 A 
ATOM     17  C3  UNL     1      20.055   7.018  10.880  0.00  0.00    +0.000 A 
ATOM     18  H1  UNL     1      21.971   7.229  11.801  0.00  0.00    +0.000 HD
ENDBRANCH  12  17
ENDBRANCH  11  12
ENDBRANCH   1  11
TORSDOF 4
ENDMDL
MODEL 5
REMARK VINA RESULT:    -4.883     15.271     17.558
REMARK INTER + INTRA:          -6.354
REMARK INTER:                  -5.883
REMARK INTRA:                  -0.470
REMARK UNBOUND:                -0.329
REMARK  Name = /home/anacleto/Desktop/manuscript_Mpro/naturecomm/supplementary_file_S2/6-chemical-library/molecular_docking/3D_ligand_structure/667.pdb
REMARK  4 active torsions:
REMARK  status: ('A' for Active; 'I' for Inactive)
REMARK    1  A    between atoms: C3_5  and  C4_6
REMARK    2  A    between atoms: C4_6  and  C5_7
REMARK    3  A    between atoms: C5_7  and  C6_8
REMARK    4  A    between atoms: N3_10  and  C7_11
REMARK                            x       y       z     vdW  Elec       q    Type
REMARK                         _______ _______ _______ _____ _____    ______ ____
ROOT
ATOM      1  C6  UNL     1      14.427  13.998  -2.986  0.00  0.00    +0.000 C 
ATOM      2  O1  UNL     1      14.927  13.097  -2.322  0.00  0.00    +0.000 OA
ATOM      3  N3  UNL     1      14.180  13.902  -4.341  0.00  0.00    +0.000 N 
ATOM      4  H8  UNL     1      13.601  14.613  -4.772  0.00  0.00    +0.000 HD
ENDROOT
BRANCH   3   5
ATOM      5  C7  UNL     1      14.410  12.667  -5.077  0.00  0.00    +0.000 C 
ATOM      6  C8  UNL     1      15.243  12.947  -6.334  0.00  0.00    +0.000 C 
ATOM      7  C9  UNL     1      15.455  11.685  -7.163  0.00  0.00    +0.000 C 
ATOM      8  C10 UNL     1      14.130  11.016  -7.518  0.00  0.00    +0.000 C 
ATOM      9  C11 UNL     1      13.294  10.733  -6.273  0.00  0.00    +0.000 C 
ATOM     10  C12 UNL     1      13.079  11.994  -5.439  0.00  0.00    +0.000 C 
ENDBRANCH   3   5
BRANCH   1  11
ATOM     11  C5  UNL     1      14.002  15.330  -2.405  0.00  0.00    +0.000 C 
BRANCH  11  12
ATOM     12  C4  UNL     1      15.109  16.373  -2.526  0.00  0.00    +0.000 C 
BRANCH  12  17
ATOM     13  N1  UNL     1      15.864  15.479  -0.295  0.00  0.00    +0.000 N 
ATOM     14  C1  UNL     1      16.929  15.645   0.543  0.00  0.00    +0.000 A 
ATOM     15  N2  UNL     1      17.801  16.494   0.051  0.00  0.00    +0.000 NA
ATOM     16  C2  UNL     1      17.284  16.887  -1.155  0.00  0.00    +0.000 A 
ATOM     17  C3  UNL     1      16.069  16.281  -1.391  0.00  0.00    +0.000 A 
ATOM     18  H1  UNL     1      15.074  14.870  -0.134  0.00  0.00    +0.000 HD
ENDBRANCH  12  17
ENDBRANCH  11  12
ENDBRANCH   1  11
TORSDOF 4
ENDMDL
MODEL 6
REMARK VINA RESULT:    -4.843     13.798     16.197
REMARK INTER + INTRA:          -6.304
REMARK INTER:                  -5.843
REMARK INTRA:                  -0.461
REMARK UNBOUND:                -0.329
REMARK  Name = /home/anacleto/Desktop/manuscript_Mpro/naturecomm/supplementary_file_S2/6-chemical-library/molecular_docking/3D_ligand_structure/667.pdb
REMARK  4 active torsions:
REMARK  status: ('A' for Active; 'I' for Inactive)
REMARK    1  A    between atoms: C3_5  and  C4_6
REMARK    2  A    between atoms: C4_6  and  C5_7
REMARK    3  A    between atoms: C5_7  and  C6_8
REMARK    4  A    between atoms: N3_10  and  C7_11
REMARK                            x       y       z     vdW  Elec       q    Type
REMARK                         _______ _______ _______ _____ _____    ______ ____
ROOT
ATOM      1  C6  UNL     1      15.871  12.175  -2.285  0.00  0.00    +0.000 C 
ATOM      2  O1  UNL     1      15.245  13.226  -2.221  0.00  0.00    +0.000 OA
ATOM      3  N3  UNL     1      15.830  11.325  -3.372  0.00  0.00    +0.000 N 
ATOM      4  H8  UNL     1      16.513  10.578  -3.421  0.00  0.00    +0.000 HD
ENDROOT
BRANCH   3   5
ATOM      5  C7  UNL     1      15.103  11.668  -4.586  0.00  0.00    +0.000 C 
ATOM      6  C8  UNL     1      13.825  10.827  -4.693  0.00  0.00    +0.000 C 
ATOM      7  C9  UNL     1      13.065  11.116  -5.983  0.00  0.00    +0.000 C 
ATOM      8  C10 UNL     1      13.952  10.930  -7.211  0.00  0.00    +0.000 C 
ATOM      9  C11 UNL     1      15.226  11.763  -7.115  0.00  0.00    +0.000 C 
ATOM     10  C12 UNL     1      15.990  11.477  -5.824  0.00  0.00    +0.000 C 
ENDBRANCH   3   5
BRANCH   1  11
ATOM     11  C5  UNL     1      16.783  11.675  -1.184  0.00  0.00    +0.000 C 
BRANCH  11  12
ATOM     12  C4  UNL     1      18.222  12.138  -1.394  0.00  0.00    +0.000 C 
BRANCH  12  17
ATOM     13  N1  UNL     1      17.567  14.391  -0.477  0.00  0.00    +0.000 N 
ATOM     14  C1  UNL     1      18.159  15.394   0.237  0.00  0.00    +0.000 A 
ATOM     15  N2  UNL     1      19.404  15.104   0.533  0.00  0.00    +0.000 NA
ATOM     16  C2  UNL     1      19.625  13.863  -0.004  0.00  0.00    +0.000 A 
ATOM     17  C3  UNL     1      18.500  13.400  -0.652  0.00  0.00    +0.000 A 
ATOM     18  H1  UNL     1      16.612  14.385  -0.808  0.00  0.00    +0.000 HD
ENDBRANCH  12  17
ENDBRANCH  11  12
ENDBRANCH   1  11
TORSDOF 4
ENDMDL
MODEL 7
REMARK VINA RESULT:    -4.314     15.777     16.579
REMARK INTER + INTRA:          -5.651
REMARK INTER:                  -5.343
REMARK INTRA:                  -0.308
REMARK UNBOUND:                -0.329
REMARK  Name = /home/anacleto/Desktop/manuscript_Mpro/naturecomm/supplementary_file_S2/6-chemical-library/molecular_docking/3D_ligand_structure/667.pdb
REMARK  4 active torsions:
REMARK  status: ('A' for Active; 'I' for Inactive)
REMARK    1  A    between atoms: C3_5  and  C4_6
REMARK    2  A    between atoms: C4_6  and  C5_7
REMARK    3  A    between atoms: C5_7  and  C6_8
REMARK    4  A    between atoms: N3_10  and  C7_11
REMARK                            x       y       z     vdW  Elec       q    Type
REMARK                         _______ _______ _______ _____ _____    ______ ____
ROOT
ATOM      1  C6  UNL     1      18.469  10.189  -5.979  0.00  0.00    +0.000 C 
ATOM      2  O1  UNL     1      18.394  10.513  -7.158  0.00  0.00    +0.000 OA
ATOM      3  N3  UNL     1      19.536   9.498  -5.442  0.00  0.00    +0.000 N 
ATOM      4  H8  UNL     1      19.604   9.433  -4.433  0.00  0.00    +0.000 HD
ENDROOT
BRANCH   3   5
ATOM      5  C7  UNL     1      20.719   9.181  -6.230  0.00  0.00    +0.000 C 
ATOM      6  C8  UNL     1      21.326   7.854  -5.762  0.00  0.00    +0.000 C 
ATOM      7  C9  UNL     1      22.603   7.517  -6.526  0.00  0.00    +0.000 C 
ATOM      8  C10 UNL     1      23.623   8.649  -6.442  0.00  0.00    +0.000 C 
ATOM      9  C11 UNL     1      23.028   9.975  -6.906  0.00  0.00    +0.000 C 
ATOM     10  C12 UNL     1      21.749  10.316  -6.144  0.00  0.00    +0.000 C 
ENDBRANCH   3   5
BRANCH   1  11
ATOM     11  C5  UNL     1      17.405  10.516  -4.952  0.00  0.00    +0.000 C 
BRANCH  11  12
ATOM     12  C4  UNL     1      16.565  11.717  -5.377  0.00  0.00    +0.000 C 
BRANCH  12  17
ATOM     13  N1  UNL     1      14.456  10.531  -4.677  0.00  0.00    +0.000 N 
ATOM     14  C1  UNL     1      13.179  10.398  -5.143  0.00  0.00    +0.000 A 
ATOM     15  N2  UNL     1      12.997  11.077  -6.251  0.00  0.00    +0.000 NA
ATOM     16  C2  UNL     1      14.200  11.678  -6.509  0.00  0.00    +0.000 A 
ATOM     17  C3  UNL     1      15.133  11.344  -5.551  0.00  0.00    +0.000 A 
ATOM     18  H1  UNL     1      14.826  10.109  -3.837  0.00  0.00    +0.000 HD
ENDBRANCH  12  17
ENDBRANCH  11  12
ENDBRANCH   1  11
TORSDOF 4
ENDMDL
MODEL 8
REMARK VINA RESULT:    -4.288     14.720     15.737
REMARK INTER + INTRA:          -5.620
REMARK INTER:                  -5.264
REMARK INTRA:                  -0.356
REMARK UNBOUND:                -0.329
REMARK  Name = /home/anacleto/Desktop/manuscript_Mpro/naturecomm/supplementary_file_S2/6-chemical-library/molecular_docking/3D_ligand_structure/667.pdb
REMARK  4 active torsions:
REMARK  status: ('A' for Active; 'I' for Inactive)
REMARK    1  A    between atoms: C3_5  and  C4_6
REMARK    2  A    between atoms: C4_6  and  C5_7
REMARK    3  A    between atoms: C5_7  and  C6_8
REMARK    4  A    between atoms: N3_10  and  C7_11
REMARK                            x       y       z     vdW  Elec       q    Type
REMARK                         _______ _______ _______ _____ _____    ______ ____
ROOT
ATOM      1  C6  UNL     1      17.635  14.562  -3.871  0.00  0.00    +0.000 C 
ATOM      2  O1  UNL     1      18.487  15.265  -4.402  0.00  0.00    +0.000 OA
ATOM      3  N3  UNL     1      17.498  14.431  -2.503  0.00  0.00    +0.000 N 
ATOM      4  H8  UNL     1      16.662  13.982  -2.148  0.00  0.00    +0.000 HD
ENDROOT
BRANCH   3   5
ATOM      5  C7  UNL     1      18.306  15.207  -1.573  0.00  0.00    +0.000 C 
ATOM      6  C8  UNL     1      18.855  14.300  -0.465  0.00  0.00    +0.000 C 
ATOM      7  C9  UNL     1      19.659  15.089   0.563  0.00  0.00    +0.000 C 
ATOM      8  C10 UNL     1      18.848  16.242   1.146  0.00  0.00    +0.000 C 
ATOM      9  C11 UNL     1      18.297  17.150   0.051  0.00  0.00    +0.000 C 
ATOM     10  C12 UNL     1      17.491  16.365  -0.981  0.00  0.00    +0.000 C 
ENDBRANCH   3   5
BRANCH   1  11
ATOM     11  C5  UNL     1      16.614  13.755  -4.643  0.00  0.00    +0.000 C 
BRANCH  11  12
ATOM     12  C4  UNL     1      16.191  12.505  -3.876  0.00  0.00    +0.000 C 
BRANCH  12  17
ATOM     13  N1  UNL     1      14.522  10.637  -4.139  0.00  0.00    +0.000 N 
ATOM     14  C1  UNL     1      13.388  10.400  -4.862  0.00  0.00    +0.000 A 
ATOM     15  N2  UNL     1      13.078  11.424  -5.621  0.00  0.00    +0.000 NA
ATOM     16  C2  UNL     1      14.043  12.364  -5.375  0.00  0.00    +0.000 A 
ATOM     17  C3  UNL     1      14.966  11.895  -4.464  0.00  0.00    +0.000 A 
ATOM     18  H1  UNL     1      14.947   9.999  -3.481  0.00  0.00    +0.000 HD
ENDBRANCH  12  17
ENDBRANCH  11  12
ENDBRANCH   1  11
TORSDOF 4
ENDMDL
MODEL 9
REMARK VINA RESULT:    -4.235     14.852     16.897
REMARK INTER + INTRA:          -5.554
REMARK INTER:                  -5.225
REMARK INTRA:                  -0.329
REMARK UNBOUND:                -0.329
REMARK  Name = /home/anacleto/Desktop/manuscript_Mpro/naturecomm/supplementary_file_S2/6-chemical-library/molecular_docking/3D_ligand_structure/667.pdb
REMARK  4 active torsions:
REMARK  status: ('A' for Active; 'I' for Inactive)
REMARK    1  A    between atoms: C3_5  and  C4_6
REMARK    2  A    between atoms: C4_6  and  C5_7
REMARK    3  A    between atoms: C5_7  and  C6_8
REMARK    4  A    between atoms: N3_10  and  C7_11
REMARK                            x       y       z     vdW  Elec       q    Type
REMARK                         _______ _______ _______ _____ _____    ______ ____
ROOT
ATOM      1  C6  UNL     1      15.214  15.254  -1.791  0.00  0.00    +0.000 C 
ATOM      2  O1  UNL     1      14.007  15.358  -1.608  0.00  0.00    +0.000 OA
ATOM      3  N3  UNL     1      15.783  14.308  -2.620  0.00  0.00    +0.000 N 
ATOM      4  H8  UNL     1      16.763  14.408  -2.857  0.00  0.00    +0.000 HD
ENDROOT
BRANCH   3   5
ATOM      5  C7  UNL     1      14.971  13.409  -3.429  0.00  0.00    +0.000 C 
ATOM      6  C8  UNL     1      15.354  11.952  -3.146  0.00  0.00    +0.000 C 
ATOM      7  C9  UNL     1      14.564  10.982  -4.019  0.00  0.00    +0.000 C 
ATOM      8  C10 UNL     1      14.711  11.313  -5.501  0.00  0.00    +0.000 C 
ATOM      9  C11 UNL     1      14.332  12.762  -5.793  0.00  0.00    +0.000 C 
ATOM     10  C12 UNL     1      15.120  13.737  -4.921  0.00  0.00    +0.000 C 
ENDBRANCH   3   5
BRANCH   1  11
ATOM     11  C5  UNL     1      16.241  16.158  -1.142  0.00  0.00    +0.000 C 
BRANCH  11  12
ATOM     12  C4  UNL     1      16.952  15.459   0.014  0.00  0.00    +0.000 C 
BRANCH  12  17
ATOM     13  N1  UNL     1      19.373  15.132   0.627  0.00  0.00    +0.000 N 
ATOM     14  C1  UNL     1      20.519  15.875   0.618  0.00  0.00    +0.000 A 
ATOM     15  N2  UNL     1      20.305  17.085   0.158  0.00  0.00    +0.000 NA
ATOM     16  C2  UNL     1      18.971  17.125  -0.149  0.00  0.00    +0.000 A 
ATOM     17  C3  UNL     1      18.361  15.925   0.147  0.00  0.00    +0.000 A 
ATOM     18  H1  UNL     1      19.294  14.171   0.929  0.00  0.00    +0.000 HD
ENDBRANCH  12  17
ENDBRANCH  11  12
ENDBRANCH   1  11
TORSDOF 4
ENDMDL
