MODEL 1
REMARK VINA RESULT:    -3.416      0.000      0.000
REMARK INTER + INTRA:          -3.416
REMARK INTER:                  -3.416
REMARK INTRA:                   0.000
REMARK UNBOUND:                 0.000
REMARK  Name = /home/anacleto/Desktop/manuscript_Mpro/naturecomm/supplementary_file_S2/6-chemical-library/molecular_docking/3D_ligand_structure/23.pdb
REMARK  0 active torsions:
REMARK  status: ('A' for Active; 'I' for Inactive)
REMARK                            x       y       z     vdW  Elec       q    Type
REMARK                         _______ _______ _______ _____ _____    ______ ____
ROOT
ATOM      1  O1  UNL     1      12.746  10.636  -6.956  0.00  0.00    +0.000 OA
ATOM      2  C1  UNL     1      13.369  11.133  -6.029  0.00  0.00    +0.000 A 
ATOM      3  N1  UNL     1      14.105  10.419  -5.124  0.00  0.00    +0.000 N 
ATOM      4  C2  UNL     1      14.736  11.130  -4.154  0.00  0.00    +0.000 A 
ATOM      5  O2  UNL     1      15.436  10.689  -3.260  0.00  0.00    +0.000 OA
ATOM      6  S1  UNL     1      14.371  12.840  -4.401  0.00  0.00    +0.000 S 
ATOM      7  N2  UNL     1      13.421  12.480  -5.756  0.00  0.00    +0.000 N 
ATOM      8  H1  UNL     1      14.176   9.417  -5.175  0.00  0.00    +0.000 HD
ATOM      9  H2  UNL     1      12.934  13.160  -6.324  0.00  0.00    +0.000 HD
ENDROOT
TORSDOF 0
ENDMDL
MODEL 2
REMARK VINA RESULT:    -3.390      1.632      2.031
REMARK INTER + INTRA:          -3.390
REMARK INTER:                  -3.390
REMARK INTRA:                   0.000
REMARK UNBOUND:                 0.000
REMARK  Name = /home/anacleto/Desktop/manuscript_Mpro/naturecomm/supplementary_file_S2/6-chemical-library/molecular_docking/3D_ligand_structure/23.pdb
REMARK  0 active torsions:
REMARK  status: ('A' for Active; 'I' for Inactive)
REMARK                            x       y       z     vdW  Elec       q    Type
REMARK                         _______ _______ _______ _____ _____    ______ ____
ROOT
ATOM      1  O1  UNL     1      12.729  10.611  -6.915  0.00  0.00    +0.000 OA
ATOM      2  C1  UNL     1      13.370  11.094  -5.993  0.00  0.00    +0.000 A 
ATOM      3  N1  UNL     1      13.467  12.434  -5.741  0.00  0.00    +0.000 N 
ATOM      4  C2  UNL     1      14.222  12.801  -4.673  0.00  0.00    +0.000 A 
ATOM      5  O2  UNL     1      14.434  13.935  -4.280  0.00  0.00    +0.000 OA
ATOM      6  S1  UNL     1      14.864  11.336  -3.926  0.00  0.00    +0.000 S 
ATOM      7  N2  UNL     1      14.089  10.364  -5.076  0.00  0.00    +0.000 N 
ATOM      8  H1  UNL     1      13.001  13.114  -6.317  0.00  0.00    +0.000 HD
ATOM      9  H2  UNL     1      14.131   9.355  -5.109  0.00  0.00    +0.000 HD
ENDROOT
TORSDOF 0
ENDMDL
MODEL 3
REMARK VINA RESULT:    -3.184     18.936     19.035
REMARK INTER + INTRA:          -3.184
REMARK INTER:                  -3.184
REMARK INTRA:                   0.000
REMARK UNBOUND:                 0.000
REMARK  Name = /home/anacleto/Desktop/manuscript_Mpro/naturecomm/supplementary_file_S2/6-chemical-library/molecular_docking/3D_ligand_structure/23.pdb
REMARK  0 active torsions:
REMARK  status: ('A' for Active; 'I' for Inactive)
REMARK                            x       y       z     vdW  Elec       q    Type
REMARK                         _______ _______ _______ _____ _____    ______ ____
ROOT
ATOM      1  O1  UNL     1      22.353  15.459  11.404  0.00  0.00    +0.000 OA
ATOM      2  C1  UNL     1      23.325  15.843  10.771  0.00  0.00    +0.000 A 
ATOM      3  N1  UNL     1      24.207  15.015  10.135  0.00  0.00    +0.000 N 
ATOM      4  C2  UNL     1      25.236  15.610   9.476  0.00  0.00    +0.000 A 
ATOM      5  O2  UNL     1      26.122  15.057   8.850  0.00  0.00    +0.000 OA
ATOM      6  S1  UNL     1      25.078  17.357   9.675  0.00  0.00    +0.000 S 
ATOM      7  N2  UNL     1      23.677  17.162  10.606  0.00  0.00    +0.000 N 
ATOM      8  H1  UNL     1      24.100  14.016  10.153  0.00  0.00    +0.000 HD
ATOM      9  H2  UNL     1      23.136  17.916  11.009  0.00  0.00    +0.000 HD
ENDROOT
TORSDOF 0
ENDMDL
MODEL 4
REMARK VINA RESULT:    -3.144      1.648      3.190
REMARK INTER + INTRA:          -3.144
REMARK INTER:                  -3.144
REMARK INTRA:                   0.000
REMARK UNBOUND:                 0.000
REMARK  Name = /home/anacleto/Desktop/manuscript_Mpro/naturecomm/supplementary_file_S2/6-chemical-library/molecular_docking/3D_ligand_structure/23.pdb
REMARK  0 active torsions:
REMARK  status: ('A' for Active; 'I' for Inactive)
REMARK                            x       y       z     vdW  Elec       q    Type
REMARK                         _______ _______ _______ _____ _____    ______ ____
ROOT
ATOM      1  O1  UNL     1      15.802  11.292  -1.815  0.00  0.00    +0.000 OA
ATOM      2  C1  UNL     1      15.251  11.512  -2.884  0.00  0.00    +0.000 A 
ATOM      3  N1  UNL     1      14.664  10.553  -3.661  0.00  0.00    +0.000 N 
ATOM      4  C2  UNL     1      14.097  10.972  -4.823  0.00  0.00    +0.000 A 
ATOM      5  O2  UNL     1      13.527  10.283  -5.650  0.00  0.00    +0.000 OA
ATOM      6  S1  UNL     1      14.323  12.719  -4.945  0.00  0.00    +0.000 S 
ATOM      7  N2  UNL     1      15.143  12.755  -3.464  0.00  0.00    +0.000 N 
ATOM      8  H1  UNL     1      14.653   9.586  -3.387  0.00  0.00    +0.000 HD
ATOM      9  H2  UNL     1      15.521  13.585  -3.028  0.00  0.00    +0.000 HD
ENDROOT
TORSDOF 0
ENDMDL
MODEL 5
REMARK VINA RESULT:    -3.034      2.743      3.025
REMARK INTER + INTRA:          -3.034
REMARK INTER:                  -3.034
REMARK INTRA:                   0.000
REMARK UNBOUND:                 0.000
REMARK  Name = /home/anacleto/Desktop/manuscript_Mpro/naturecomm/supplementary_file_S2/6-chemical-library/molecular_docking/3D_ligand_structure/23.pdb
REMARK  0 active torsions:
REMARK  status: ('A' for Active; 'I' for Inactive)
REMARK                            x       y       z     vdW  Elec       q    Type
REMARK                         _______ _______ _______ _____ _____    ______ ____
ROOT
ATOM      1  O1  UNL     1      14.287  11.116  -5.052  0.00  0.00    +0.000 OA
ATOM      2  C1  UNL     1      15.127  10.933  -4.184  0.00  0.00    +0.000 A 
ATOM      3  N1  UNL     1      14.961  11.264  -2.868  0.00  0.00    +0.000 N 
ATOM      4  C2  UNL     1      15.999  10.992  -2.034  0.00  0.00    +0.000 A 
ATOM      5  O2  UNL     1      16.052  11.206  -0.836  0.00  0.00    +0.000 OA
ATOM      6  S1  UNL     1      17.291  10.259  -2.988  0.00  0.00    +0.000 S 
ATOM      7  N2  UNL     1      16.363  10.370  -4.400  0.00  0.00    +0.000 N 
ATOM      8  H1  UNL     1      14.113  11.689  -2.534  0.00  0.00    +0.000 HD
ATOM      9  H2  UNL     1      16.659  10.063  -5.317  0.00  0.00    +0.000 HD
ENDROOT
TORSDOF 0
ENDMDL
MODEL 6
REMARK VINA RESULT:    -2.999     18.978     19.046
REMARK INTER + INTRA:          -2.999
REMARK INTER:                  -2.999
REMARK INTRA:                   0.000
REMARK UNBOUND:                 0.000
REMARK  Name = /home/anacleto/Desktop/manuscript_Mpro/naturecomm/supplementary_file_S2/6-chemical-library/molecular_docking/3D_ligand_structure/23.pdb
REMARK  0 active torsions:
REMARK  status: ('A' for Active; 'I' for Inactive)
REMARK                            x       y       z     vdW  Elec       q    Type
REMARK                         _______ _______ _______ _____ _____    ______ ____
ROOT
ATOM      1  O1  UNL     1      26.586  14.312   8.817  0.00  0.00    +0.000 OA
ATOM      2  C1  UNL     1      25.824  15.184   9.210  0.00  0.00    +0.000 A 
ATOM      3  N1  UNL     1      24.688  14.948   9.932  0.00  0.00    +0.000 N 
ATOM      4  C2  UNL     1      23.954  16.035  10.288  0.00  0.00    +0.000 A 
ATOM      5  O2  UNL     1      22.918  16.041  10.928  0.00  0.00    +0.000 OA
ATOM      6  S1  UNL     1      24.762  17.472   9.658  0.00  0.00    +0.000 S 
ATOM      7  N2  UNL     1      25.995  16.529   8.981  0.00  0.00    +0.000 N 
ATOM      8  H1  UNL     1      24.410  14.017  10.188  0.00  0.00    +0.000 HD
ATOM      9  H2  UNL     1      26.785  16.888   8.461  0.00  0.00    +0.000 HD
ENDROOT
TORSDOF 0
ENDMDL
MODEL 7
REMARK VINA RESULT:    -2.916      1.957      2.140
REMARK INTER + INTRA:          -2.916
REMARK INTER:                  -2.916
REMARK INTRA:                   0.000
REMARK UNBOUND:                 0.000
REMARK  Name = /home/anacleto/Desktop/manuscript_Mpro/naturecomm/supplementary_file_S2/6-chemical-library/molecular_docking/3D_ligand_structure/23.pdb
REMARK  0 active torsions:
REMARK  status: ('A' for Active; 'I' for Inactive)
REMARK                            x       y       z     vdW  Elec       q    Type
REMARK                         _______ _______ _______ _____ _____    ______ ____
ROOT
ATOM      1  O1  UNL     1      13.283  10.641  -6.071  0.00  0.00    +0.000 OA
ATOM      2  C1  UNL     1      14.251  10.826  -5.348  0.00  0.00    +0.000 A 
ATOM      3  N1  UNL     1      15.459  11.295  -5.782  0.00  0.00    +0.000 N 
ATOM      4  C2  UNL     1      16.430  11.441  -4.843  0.00  0.00    +0.000 A 
ATOM      5  O2  UNL     1      17.567  11.843  -5.021  0.00  0.00    +0.000 OA
ATOM      6  S1  UNL     1      15.766  10.945  -3.285  0.00  0.00    +0.000 S 
ATOM      7  N2  UNL     1      14.270  10.587  -3.994  0.00  0.00    +0.000 N 
ATOM      8  H1  UNL     1      15.621  11.521  -6.748  0.00  0.00    +0.000 HD
ATOM      9  H2  UNL     1      13.461  10.236  -3.500  0.00  0.00    +0.000 HD
ENDROOT
TORSDOF 0
ENDMDL
MODEL 8
REMARK VINA RESULT:    -2.853      2.273      3.103
REMARK INTER + INTRA:          -2.853
REMARK INTER:                  -2.853
REMARK INTRA:                   0.000
REMARK UNBOUND:                 0.000
REMARK  Name = /home/anacleto/Desktop/manuscript_Mpro/naturecomm/supplementary_file_S2/6-chemical-library/molecular_docking/3D_ligand_structure/23.pdb
REMARK  0 active torsions:
REMARK  status: ('A' for Active; 'I' for Inactive)
REMARK                            x       y       z     vdW  Elec       q    Type
REMARK                         _______ _______ _______ _____ _____    ______ ____
ROOT
ATOM      1  O1  UNL     1      17.722  10.848  -4.944  0.00  0.00    +0.000 OA
ATOM      2  C1  UNL     1      16.579  11.002  -5.347  0.00  0.00    +0.000 A 
ATOM      3  N1  UNL     1      15.463  10.571  -4.685  0.00  0.00    +0.000 N 
ATOM      4  C2  UNL     1      14.267  10.825  -5.276  0.00  0.00    +0.000 A 
ATOM      5  O2  UNL     1      13.163  10.528  -4.854  0.00  0.00    +0.000 OA
ATOM      6  S1  UNL     1      14.573  11.676  -6.792  0.00  0.00    +0.000 S 
ATOM      7  N2  UNL     1      16.244  11.629  -6.525  0.00  0.00    +0.000 N 
ATOM      8  H1  UNL     1      15.526  10.090  -3.804  0.00  0.00    +0.000 HD
ATOM      9  H2  UNL     1      16.945  12.012  -7.146  0.00  0.00    +0.000 HD
ENDROOT
TORSDOF 0
ENDMDL
MODEL 9
REMARK VINA RESULT:    -2.777      2.822      3.589
REMARK INTER + INTRA:          -2.777
REMARK INTER:                  -2.777
REMARK INTRA:                   0.000
REMARK UNBOUND:                 0.000
REMARK  Name = /home/anacleto/Desktop/manuscript_Mpro/naturecomm/supplementary_file_S2/6-chemical-library/molecular_docking/3D_ligand_structure/23.pdb
REMARK  0 active torsions:
REMARK  status: ('A' for Active; 'I' for Inactive)
REMARK                            x       y       z     vdW  Elec       q    Type
REMARK                         _______ _______ _______ _____ _____    ______ ____
ROOT
ATOM      1  O1  UNL     1      14.431  15.292  -2.217  0.00  0.00    +0.000 OA
ATOM      2  C1  UNL     1      14.497  14.336  -2.976  0.00  0.00    +0.000 A 
ATOM      3  N1  UNL     1      14.885  13.079  -2.601  0.00  0.00    +0.000 N 
ATOM      4  C2  UNL     1      14.903  12.131  -3.574  0.00  0.00    +0.000 A 
ATOM      5  O2  UNL     1      15.214  10.960  -3.450  0.00  0.00    +0.000 OA
ATOM      6  S1  UNL     1      14.391  12.886  -5.086  0.00  0.00    +0.000 S 
ATOM      7  N2  UNL     1      14.195  14.382  -4.317  0.00  0.00    +0.000 N 
ATOM      8  H1  UNL     1      15.143  12.868  -1.653  0.00  0.00    +0.000 HD
ATOM      9  H2  UNL     1      13.890  15.233  -4.768  0.00  0.00    +0.000 HD
ENDROOT
TORSDOF 0
ENDMDL
