MODEL 1
REMARK VINA RESULT:    -4.368      0.000      0.000
REMARK INTER + INTRA:          -4.368
REMARK INTER:                  -4.368
REMARK INTRA:                   0.000
REMARK UNBOUND:                 0.000
REMARK  Name = /home/anacleto/Desktop/manuscript_Mpro/naturecomm/supplementary_file_S2/6-chemical-library/molecular_docking/3D_ligand_structure/161.pdb
REMARK  0 active torsions:
REMARK  status: ('A' for Active; 'I' for Inactive)
REMARK                            x       y       z     vdW  Elec       q    Type
REMARK                         _______ _______ _______ _____ _____    ______ ____
ROOT
ATOM      1  O1  UNL     1      16.251  10.340  -2.769  0.00  0.00    +0.000 OA
ATOM      2  C1  UNL     1      15.597  10.719  -3.722  0.00  0.00    +0.000 C 
ATOM      3  N1  UNL     1      14.236  10.653  -3.857  0.00  0.00    +0.000 N 
ATOM      4  C2  UNL     1      13.812  11.006  -5.110  0.00  0.00    +0.000 C 
ATOM      5  O2  UNL     1      12.660  11.164  -5.468  0.00  0.00    +0.000 OA
ATOM      6  C3  UNL     1      15.044  11.056  -5.966  0.00  0.00    +0.000 C 
ATOM      7  C4  UNL     1      16.099  11.443  -4.937  0.00  0.00    +0.000 C 
ATOM      8  C5  UNL     1      15.105  11.995  -7.152  0.00  0.00    +0.000 C 
ATOM      9  C6  UNL     1      16.545  12.123  -7.611  0.00  0.00    +0.000 C 
ATOM     10  C7  UNL     1      17.601  11.718  -6.877  0.00  0.00    +0.000 C 
ATOM     11  C8  UNL     1      17.483  11.151  -5.476  0.00  0.00    +0.000 C 
ATOM     12  H1  UNL     1      13.614  10.376  -3.114  0.00  0.00    +0.000 HD
ENDROOT
TORSDOF 0
ENDMDL
MODEL 2
REMARK VINA RESULT:    -4.365      0.071      2.676
REMARK INTER + INTRA:          -4.365
REMARK INTER:                  -4.365
REMARK INTRA:                   0.000
REMARK UNBOUND:                 0.000
REMARK  Name = /home/anacleto/Desktop/manuscript_Mpro/naturecomm/supplementary_file_S2/6-chemical-library/molecular_docking/3D_ligand_structure/161.pdb
REMARK  0 active torsions:
REMARK  status: ('A' for Active; 'I' for Inactive)
REMARK                            x       y       z     vdW  Elec       q    Type
REMARK                         _______ _______ _______ _____ _____    ______ ____
ROOT
ATOM      1  O1  UNL     1      12.662  11.170  -5.509  0.00  0.00    +0.000 OA
ATOM      2  C1  UNL     1      13.810  10.992  -5.146  0.00  0.00    +0.000 C 
ATOM      3  N1  UNL     1      14.224  10.640  -3.890  0.00  0.00    +0.000 N 
ATOM      4  C2  UNL     1      15.585  10.679  -3.752  0.00  0.00    +0.000 C 
ATOM      5  O2  UNL     1      16.228  10.292  -2.795  0.00  0.00    +0.000 OA
ATOM      6  C3  UNL     1      16.105  11.384  -4.970  0.00  0.00    +0.000 C 
ATOM      7  C4  UNL     1      15.044  11.011  -5.999  0.00  0.00    +0.000 C 
ATOM      8  C5  UNL     1      17.484  11.058  -5.504  0.00  0.00    +0.000 C 
ATOM      9  C6  UNL     1      17.618  11.613  -6.909  0.00  0.00    +0.000 C 
ATOM     10  C7  UNL     1      16.571  12.034  -7.648  0.00  0.00    +0.000 C 
ATOM     11  C8  UNL     1      15.129  11.939  -7.192  0.00  0.00    +0.000 C 
ATOM     12  H1  UNL     1      13.594  10.380  -3.147  0.00  0.00    +0.000 HD
ENDROOT
TORSDOF 0
ENDMDL
MODEL 3
REMARK VINA RESULT:    -4.257      1.990      2.992
REMARK INTER + INTRA:          -4.257
REMARK INTER:                  -4.257
REMARK INTRA:                   0.000
REMARK UNBOUND:                 0.000
REMARK  Name = /home/anacleto/Desktop/manuscript_Mpro/naturecomm/supplementary_file_S2/6-chemical-library/molecular_docking/3D_ligand_structure/161.pdb
REMARK  0 active torsions:
REMARK  status: ('A' for Active; 'I' for Inactive)
REMARK                            x       y       z     vdW  Elec       q    Type
REMARK                         _______ _______ _______ _____ _____    ______ ____
ROOT
ATOM      1  O1  UNL     1      18.469   9.926  -6.008  0.00  0.00    +0.000 OA
ATOM      2  C1  UNL     1      17.603  10.332  -5.256  0.00  0.00    +0.000 C 
ATOM      3  N1  UNL     1      17.463  10.024  -3.930  0.00  0.00    +0.000 N 
ATOM      4  C2  UNL     1      16.297  10.502  -3.397  0.00  0.00    +0.000 C 
ATOM      5  O2  UNL     1      15.978  10.491  -2.223  0.00  0.00    +0.000 OA
ATOM      6  C3  UNL     1      15.459  10.945  -4.561  0.00  0.00    +0.000 C 
ATOM      7  C4  UNL     1      16.538  11.344  -5.562  0.00  0.00    +0.000 C 
ATOM      8  C5  UNL     1      14.462  12.072  -4.394  0.00  0.00    +0.000 C 
ATOM      9  C6  UNL     1      14.029  12.561  -5.762  0.00  0.00    +0.000 C 
ATOM     10  C7  UNL     1      14.673  12.248  -6.905  0.00  0.00    +0.000 C 
ATOM     11  C8  UNL     1      15.949  11.430  -6.954  0.00  0.00    +0.000 C 
ATOM     12  H1  UNL     1      18.147   9.503  -3.403  0.00  0.00    +0.000 HD
ENDROOT
TORSDOF 0
ENDMDL
MODEL 4
REMARK VINA RESULT:    -4.205     16.004     17.347
REMARK INTER + INTRA:          -4.205
REMARK INTER:                  -4.205
REMARK INTRA:                   0.000
REMARK UNBOUND:                 0.000
REMARK  Name = /home/anacleto/Desktop/manuscript_Mpro/naturecomm/supplementary_file_S2/6-chemical-library/molecular_docking/3D_ligand_structure/161.pdb
REMARK  0 active torsions:
REMARK  status: ('A' for Active; 'I' for Inactive)
REMARK                            x       y       z     vdW  Elec       q    Type
REMARK                         _______ _______ _______ _____ _____    ______ ____
ROOT
ATOM      1  O1  UNL     1      23.672   5.023   9.234  0.00  0.00    +0.000 OA
ATOM      2  C1  UNL     1      22.846   5.698   9.821  0.00  0.00    +0.000 C 
ATOM      3  N1  UNL     1      22.933   6.158  11.107  0.00  0.00    +0.000 N 
ATOM      4  C2  UNL     1      21.774   6.746  11.537  0.00  0.00    +0.000 C 
ATOM      5  O2  UNL     1      21.612   7.353  12.579  0.00  0.00    +0.000 OA
ATOM      6  C3  UNL     1      20.731   6.402  10.515  0.00  0.00    +0.000 C 
ATOM      7  C4  UNL     1      21.583   6.279   9.257  0.00  0.00    +0.000 C 
ATOM      8  C5  UNL     1      19.571   7.344  10.267  0.00  0.00    +0.000 C 
ATOM      9  C6  UNL     1      18.887   6.961   8.969  0.00  0.00    +0.000 C 
ATOM     10  C7  UNL     1      19.431   6.130   8.056  0.00  0.00    +0.000 C 
ATOM     11  C8  UNL     1      20.819   5.534   8.182  0.00  0.00    +0.000 C 
ATOM     12  H1  UNL     1      23.761   6.073  11.676  0.00  0.00    +0.000 HD
ENDROOT
TORSDOF 0
ENDMDL
MODEL 5
REMARK VINA RESULT:    -4.202     15.996     17.326
REMARK INTER + INTRA:          -4.202
REMARK INTER:                  -4.202
REMARK INTRA:                   0.000
REMARK UNBOUND:                 0.000
REMARK  Name = /home/anacleto/Desktop/manuscript_Mpro/naturecomm/supplementary_file_S2/6-chemical-library/molecular_docking/3D_ligand_structure/161.pdb
REMARK  0 active torsions:
REMARK  status: ('A' for Active; 'I' for Inactive)
REMARK                            x       y       z     vdW  Elec       q    Type
REMARK                         _______ _______ _______ _____ _____    ______ ____
ROOT
ATOM      1  O1  UNL     1      22.802   6.625  12.058  0.00  0.00    +0.000 OA
ATOM      2  C1  UNL     1      21.673   6.887  11.688  0.00  0.00    +0.000 C 
ATOM      3  N1  UNL     1      20.661   7.400  12.454  0.00  0.00    +0.000 N 
ATOM      4  C2  UNL     1      19.462   7.427  11.795  0.00  0.00    +0.000 C 
ATOM      5  O2  UNL     1      18.433   7.948  12.182  0.00  0.00    +0.000 OA
ATOM      6  C3  UNL     1      19.651   6.602  10.555  0.00  0.00    +0.000 C 
ATOM      7  C4  UNL     1      21.137   6.812  10.289  0.00  0.00    +0.000 C 
ATOM      8  C5  UNL     1      18.850   6.911   9.308  0.00  0.00    +0.000 C 
ATOM      9  C6  UNL     1      19.476   6.200   8.125  0.00  0.00    +0.000 C 
ATOM     10  C7  UNL     1      20.710   5.656   8.148  0.00  0.00    +0.000 C 
ATOM     11  C8  UNL     1      21.648   5.752   9.335  0.00  0.00    +0.000 C 
ATOM     12  H1  UNL     1      20.786   7.723  13.401  0.00  0.00    +0.000 HD
ENDROOT
TORSDOF 0
ENDMDL
MODEL 6
REMARK VINA RESULT:    -4.195     16.114     17.588
REMARK INTER + INTRA:          -4.195
REMARK INTER:                  -4.195
REMARK INTRA:                   0.000
REMARK UNBOUND:                 0.000
REMARK  Name = /home/anacleto/Desktop/manuscript_Mpro/naturecomm/supplementary_file_S2/6-chemical-library/molecular_docking/3D_ligand_structure/161.pdb
REMARK  0 active torsions:
REMARK  status: ('A' for Active; 'I' for Inactive)
REMARK                            x       y       z     vdW  Elec       q    Type
REMARK                         _______ _______ _______ _____ _____    ______ ____
ROOT
ATOM      1  O1  UNL     1      18.365   7.868  12.187  0.00  0.00    +0.000 OA
ATOM      2  C1  UNL     1      19.429   7.390  11.841  0.00  0.00    +0.000 C 
ATOM      3  N1  UNL     1      20.612   7.447  12.529  0.00  0.00    +0.000 N 
ATOM      4  C2  UNL     1      21.668   6.964  11.805  0.00  0.00    +0.000 C 
ATOM      5  O2  UNL     1      22.799   6.774  12.210  0.00  0.00    +0.000 OA
ATOM      6  C3  UNL     1      21.172   6.817  10.396  0.00  0.00    +0.000 C 
ATOM      7  C4  UNL     1      19.692   6.538  10.635  0.00  0.00    +0.000 C 
ATOM      8  C5  UNL     1      21.762   5.756   9.491  0.00  0.00    +0.000 C 
ATOM      9  C6  UNL     1      20.860   5.573   8.285  0.00  0.00    +0.000 C 
ATOM     10  C7  UNL     1      19.600   6.051   8.216  0.00  0.00    +0.000 C 
ATOM     11  C8  UNL     1      18.908   6.766   9.359  0.00  0.00    +0.000 C 
ATOM     12  H1  UNL     1      20.695   7.806  13.468  0.00  0.00    +0.000 HD
ENDROOT
TORSDOF 0
ENDMDL
MODEL 7
REMARK VINA RESULT:    -4.132     16.834     17.724
REMARK INTER + INTRA:          -4.132
REMARK INTER:                  -4.132
REMARK INTRA:                   0.000
REMARK UNBOUND:                 0.000
REMARK  Name = /home/anacleto/Desktop/manuscript_Mpro/naturecomm/supplementary_file_S2/6-chemical-library/molecular_docking/3D_ligand_structure/161.pdb
REMARK  0 active torsions:
REMARK  status: ('A' for Active; 'I' for Inactive)
REMARK                            x       y       z     vdW  Elec       q    Type
REMARK                         _______ _______ _______ _____ _____    ______ ____
ROOT
ATOM      1  O1  UNL     1      14.031  -1.774   7.236  0.00  0.00    +0.000 OA
ATOM      2  C1  UNL     1      13.839  -0.874   8.033  0.00  0.00    +0.000 C 
ATOM      3  N1  UNL     1      12.736  -0.708   8.826  0.00  0.00    +0.000 N 
ATOM      4  C2  UNL     1      12.740   0.488   9.492  0.00  0.00    +0.000 C 
ATOM      5  O2  UNL     1      11.960   0.839  10.357  0.00  0.00    +0.000 OA
ATOM      6  C3  UNL     1      13.833   1.306   8.869  0.00  0.00    +0.000 C 
ATOM      7  C4  UNL     1      14.797   0.213   8.421  0.00  0.00    +0.000 C 
ATOM      8  C5  UNL     1      14.568   2.343   9.692  0.00  0.00    +0.000 C 
ATOM      9  C6  UNL     1      15.832   2.753   8.962  0.00  0.00    +0.000 C 
ATOM     10  C7  UNL     1      16.350   2.067   7.922  0.00  0.00    +0.000 C 
ATOM     11  C8  UNL     1      15.772   0.766   7.403  0.00  0.00    +0.000 C 
ATOM     12  H1  UNL     1      12.000  -1.392   8.910  0.00  0.00    +0.000 HD
ENDROOT
TORSDOF 0
ENDMDL
MODEL 8
REMARK VINA RESULT:    -3.966      2.892      3.925
REMARK INTER + INTRA:          -3.966
REMARK INTER:                  -3.966
REMARK INTRA:                   0.000
REMARK UNBOUND:                 0.000
REMARK  Name = /home/anacleto/Desktop/manuscript_Mpro/naturecomm/supplementary_file_S2/6-chemical-library/molecular_docking/3D_ligand_structure/161.pdb
REMARK  0 active torsions:
REMARK  status: ('A' for Active; 'I' for Inactive)
REMARK                            x       y       z     vdW  Elec       q    Type
REMARK                         _______ _______ _______ _____ _____    ______ ____
ROOT
ATOM      1  O1  UNL     1      15.181  15.607  -2.644  0.00  0.00    +0.000 OA
ATOM      2  C1  UNL     1      15.056  14.549  -3.232  0.00  0.00    +0.000 C 
ATOM      3  N1  UNL     1      14.251  14.306  -4.312  0.00  0.00    +0.000 N 
ATOM      4  C2  UNL     1      14.199  12.979  -4.645  0.00  0.00    +0.000 C 
ATOM      5  O2  UNL     1      13.674  12.498  -5.630  0.00  0.00    +0.000 OA
ATOM      6  C3  UNL     1      14.831  12.240  -3.501  0.00  0.00    +0.000 C 
ATOM      7  C4  UNL     1      15.821  13.281  -2.992  0.00  0.00    +0.000 C 
ATOM      8  C5  UNL     1      15.538  10.924  -3.745  0.00  0.00    +0.000 C 
ATOM      9  C6  UNL     1      16.384  10.581  -2.534  0.00  0.00    +0.000 C 
ATOM     10  C7  UNL     1      16.686  11.464  -1.560  0.00  0.00    +0.000 C 
ATOM     11  C8  UNL     1      16.278  12.923  -1.593  0.00  0.00    +0.000 C 
ATOM     12  H1  UNL     1      13.750  15.026  -4.809  0.00  0.00    +0.000 HD
ENDROOT
TORSDOF 0
ENDMDL
MODEL 9
REMARK VINA RESULT:    -2.192     16.788     17.653
REMARK INTER + INTRA:          -2.192
REMARK INTER:                  -2.192
REMARK INTRA:                   0.000
REMARK UNBOUND:                 0.000
REMARK  Name = /home/anacleto/Desktop/manuscript_Mpro/naturecomm/supplementary_file_S2/6-chemical-library/molecular_docking/3D_ligand_structure/161.pdb
REMARK  0 active torsions:
REMARK  status: ('A' for Active; 'I' for Inactive)
REMARK                            x       y       z     vdW  Elec       q    Type
REMARK                         _______ _______ _______ _____ _____    ______ ____
ROOT
ATOM      1  O1  UNL     1      11.977   0.568  10.027  0.00  0.00    +0.000 OA
ATOM      2  C1  UNL     1      12.838   0.301   9.209  0.00  0.00    +0.000 C 
ATOM      3  N1  UNL     1      12.953  -0.860   8.493  0.00  0.00    +0.000 N 
ATOM      4  C2  UNL     1      14.119  -0.926   7.778  0.00  0.00    +0.000 C 
ATOM      5  O2  UNL     1      14.420  -1.774   6.960  0.00  0.00    +0.000 OA
ATOM      6  C3  UNL     1      14.980   0.194   8.284  0.00  0.00    +0.000 C 
ATOM      7  C4  UNL     1      13.922   1.208   8.705  0.00  0.00    +0.000 C 
ATOM      8  C5  UNL     1      15.991   0.848   7.366  0.00  0.00    +0.000 C 
ATOM      9  C6  UNL     1      16.451   2.154   7.983  0.00  0.00    +0.000 C 
ATOM     10  C7  UNL     1      15.819   2.759   9.010  0.00  0.00    +0.000 C 
ATOM     11  C8  UNL     1      14.533   2.245   9.625  0.00  0.00    +0.000 C 
ATOM     12  H1  UNL     1      12.254  -1.587   8.492  0.00  0.00    +0.000 HD
ENDROOT
TORSDOF 0
ENDMDL
