MODEL 1
REMARK VINA RESULT:    -5.538      0.000      0.000
REMARK INTER + INTRA:          -6.774
REMARK INTER:                  -6.467
REMARK INTRA:                  -0.306
REMARK UNBOUND:                -0.264
REMARK  Name = /home/anacleto/Desktop/manuscript_Mpro/naturecomm/supplementary_file_S2/6-chemical-library/molecular_docking/3D_ligand_structure/848.pdb
REMARK  3 active torsions:
REMARK  status: ('A' for Active; 'I' for Inactive)
REMARK    1  A    between atoms: C3_5  and  C4_6
REMARK    2  A    between atoms: N3_8  and  C5_9
REMARK    3  A    between atoms: C5_9  and  C6_10
REMARK                            x       y       z     vdW  Elec       q    Type
REMARK                         _______ _______ _______ _____ _____    ______ ____
ROOT
ATOM      1  C4  UNL     1      14.473  15.084  -2.726  0.00  0.00    +0.000 C 
ATOM      2  O1  UNL     1      15.318  14.570  -2.001  0.00  0.00    +0.000 OA
ATOM      3  N3  UNL     1      14.373  14.816  -4.072  0.00  0.00    +0.000 N 
ATOM      4  H4  UNL     1      13.758  15.379  -4.638  0.00  0.00    +0.000 HD
ENDROOT
BRANCH   1   9
ATOM      5  C1  UNL     1      13.488  17.417  -2.277  0.00  0.00    +0.000 A 
ATOM      6  N1  UNL     1      12.353  17.823  -1.635  0.00  0.00    +0.000 N 
ATOM      7  N2  UNL     1      11.621  16.809  -1.151  0.00  0.00    +0.000 NA
ATOM      8  C2  UNL     1      12.318  15.726  -1.501  0.00  0.00    +0.000 A 
ATOM      9  C3  UNL     1      13.503  16.036  -2.210  0.00  0.00    +0.000 A 
ATOM     10  H2  UNL     1      12.015  18.770  -1.489  0.00  0.00    +0.000 HD
ENDBRANCH   1   9
BRANCH   3  11
ATOM     11  C5  UNL     1      15.350  14.006  -4.760  0.00  0.00    +0.000 C 
BRANCH  11  12
ATOM     12  C6  UNL     1      14.724  12.727  -5.253  0.00  0.00    +0.000 A 
ATOM     13  C7  UNL     1      14.190  11.794  -4.353  0.00  0.00    +0.000 A 
ATOM     14  C8  UNL     1      13.593  10.622  -4.821  0.00  0.00    +0.000 A 
ATOM     15  C9  UNL     1      13.517  10.375  -6.191  0.00  0.00    +0.000 A 
ATOM     16  C10 UNL     1      14.038  11.299  -7.094  0.00  0.00    +0.000 A 
ATOM     17  C11 UNL     1      14.636  12.470  -6.629  0.00  0.00    +0.000 A 
ENDBRANCH  11  12
ENDBRANCH   3  11
TORSDOF 3
ENDMDL
MODEL 2
REMARK VINA RESULT:    -5.237      3.850      6.224
REMARK INTER + INTRA:          -6.419
REMARK INTER:                  -6.099
REMARK INTRA:                  -0.320
REMARK UNBOUND:                -0.264
REMARK  Name = /home/anacleto/Desktop/manuscript_Mpro/naturecomm/supplementary_file_S2/6-chemical-library/molecular_docking/3D_ligand_structure/848.pdb
REMARK  3 active torsions:
REMARK  status: ('A' for Active; 'I' for Inactive)
REMARK    1  A    between atoms: C3_5  and  C4_6
REMARK    2  A    between atoms: N3_8  and  C5_9
REMARK    3  A    between atoms: C5_9  and  C6_10
REMARK                            x       y       z     vdW  Elec       q    Type
REMARK                         _______ _______ _______ _____ _____    ______ ____
ROOT
ATOM      1  C4  UNL     1      15.546  11.127  -3.543  0.00  0.00    +0.000 C 
ATOM      2  O1  UNL     1      16.594  10.626  -3.938  0.00  0.00    +0.000 OA
ATOM      3  N3  UNL     1      15.319  11.454  -2.227  0.00  0.00    +0.000 N 
ATOM      4  H4  UNL     1      14.389  11.722  -1.944  0.00  0.00    +0.000 HD
ENDROOT
BRANCH   1   9
ATOM      5  C1  UNL     1      14.040  12.605  -5.014  0.00  0.00    +0.000 A 
ATOM      6  N1  UNL     1      12.956  12.317  -5.794  0.00  0.00    +0.000 N 
ATOM      7  N2  UNL     1      12.622  11.019  -5.786  0.00  0.00    +0.000 NA
ATOM      8  C2  UNL     1      13.527  10.467  -4.974  0.00  0.00    +0.000 A 
ATOM      9  C3  UNL     1      14.447  11.408  -4.452  0.00  0.00    +0.000 A 
ATOM     10  H2  UNL     1      12.398  12.952  -6.357  0.00  0.00    +0.000 HD
ENDBRANCH   1   9
BRANCH   3  11
ATOM     11  C5  UNL     1      16.254  11.106  -1.184  0.00  0.00    +0.000 C 
BRANCH  11  12
ATOM     12  C6  UNL     1      17.201  12.248  -0.919  0.00  0.00    +0.000 A 
ATOM     13  C7  UNL     1      16.717  13.524  -0.598  0.00  0.00    +0.000 A 
ATOM     14  C8  UNL     1      17.603  14.570  -0.333  0.00  0.00    +0.000 A 
ATOM     15  C9  UNL     1      18.978  14.349  -0.378  0.00  0.00    +0.000 A 
ATOM     16  C10 UNL     1      19.470  13.083  -0.688  0.00  0.00    +0.000 A 
ATOM     17  C11 UNL     1      18.587  12.037  -0.956  0.00  0.00    +0.000 A 
ENDBRANCH  11  12
ENDBRANCH   3  11
TORSDOF 3
ENDMDL
MODEL 3
REMARK VINA RESULT:    -5.132      2.197      6.054
REMARK INTER + INTRA:          -6.296
REMARK INTER:                  -5.983
REMARK INTRA:                  -0.313
REMARK UNBOUND:                -0.264
REMARK  Name = /home/anacleto/Desktop/manuscript_Mpro/naturecomm/supplementary_file_S2/6-chemical-library/molecular_docking/3D_ligand_structure/848.pdb
REMARK  3 active torsions:
REMARK  status: ('A' for Active; 'I' for Inactive)
REMARK    1  A    between atoms: C3_5  and  C4_6
REMARK    2  A    between atoms: N3_8  and  C5_9
REMARK    3  A    between atoms: C5_9  and  C6_10
REMARK                            x       y       z     vdW  Elec       q    Type
REMARK                         _______ _______ _______ _____ _____    ______ ____
ROOT
ATOM      1  C4  UNL     1      14.770  13.395  -4.240  0.00  0.00    +0.000 C 
ATOM      2  O1  UNL     1      15.245  14.299  -4.920  0.00  0.00    +0.000 OA
ATOM      3  N3  UNL     1      14.663  13.463  -2.870  0.00  0.00    +0.000 N 
ATOM      4  H4  UNL     1      14.404  12.633  -2.360  0.00  0.00    +0.000 HD
ENDROOT
BRANCH   1   9
ATOM      5  C1  UNL     1      14.266  10.876  -4.340  0.00  0.00    +0.000 A 
ATOM      6  N1  UNL     1      13.702  10.092  -5.307  0.00  0.00    +0.000 N 
ATOM      7  N2  UNL     1      13.348  10.773  -6.406  0.00  0.00    +0.000 NA
ATOM      8  C2  UNL     1      13.700  12.030  -6.123  0.00  0.00    +0.000 A 
ATOM      9  C3  UNL     1      14.285  12.164  -4.841  0.00  0.00    +0.000 A 
ATOM     10  H2  UNL     1      13.528   9.092  -5.286  0.00  0.00    +0.000 HD
ENDBRANCH   1   9
BRANCH   3  11
ATOM     11  C5  UNL     1      15.230  14.554  -2.115  0.00  0.00    +0.000 C 
BRANCH  11  12
ATOM     12  C6  UNL     1      14.259  15.704  -2.036  0.00  0.00    +0.000 A 
ATOM     13  C7  UNL     1      12.915  15.487  -1.701  0.00  0.00    +0.000 A 
ATOM     14  C8  UNL     1      12.028  16.561  -1.608  0.00  0.00    +0.000 A 
ATOM     15  C9  UNL     1      12.477  17.860  -1.842  0.00  0.00    +0.000 A 
ATOM     16  C10 UNL     1      13.812  18.087  -2.167  0.00  0.00    +0.000 A 
ATOM     17  C11 UNL     1      14.699  17.015  -2.262  0.00  0.00    +0.000 A 
ENDBRANCH  11  12
ENDBRANCH   3  11
TORSDOF 3
ENDMDL
MODEL 4
REMARK VINA RESULT:    -4.974      4.065      6.232
REMARK INTER + INTRA:          -6.110
REMARK INTER:                  -5.829
REMARK INTRA:                  -0.280
REMARK UNBOUND:                -0.264
REMARK  Name = /home/anacleto/Desktop/manuscript_Mpro/naturecomm/supplementary_file_S2/6-chemical-library/molecular_docking/3D_ligand_structure/848.pdb
REMARK  3 active torsions:
REMARK  status: ('A' for Active; 'I' for Inactive)
REMARK    1  A    between atoms: C3_5  and  C4_6
REMARK    2  A    between atoms: N3_8  and  C5_9
REMARK    3  A    between atoms: C5_9  and  C6_10
REMARK                            x       y       z     vdW  Elec       q    Type
REMARK                         _______ _______ _______ _____ _____    ______ ____
ROOT
ATOM      1  C4  UNL     1      14.941  15.309  -1.468  0.00  0.00    +0.000 C 
ATOM      2  O1  UNL     1      15.022  14.401  -2.289  0.00  0.00    +0.000 OA
ATOM      3  N3  UNL     1      15.841  15.476  -0.442  0.00  0.00    +0.000 N 
ATOM      4  H4  UNL     1      15.637  16.148   0.282  0.00  0.00    +0.000 HD
ENDROOT
BRANCH   1   9
ATOM      5  C1  UNL     1      12.620  16.269  -0.919  0.00  0.00    +0.000 A 
ATOM      6  N1  UNL     1      11.999  17.430  -1.285  0.00  0.00    +0.000 N 
ATOM      7  N2  UNL     1      12.747  18.208  -2.081  0.00  0.00    +0.000 NA
ATOM      8  C2  UNL     1      13.880  17.515  -2.220  0.00  0.00    +0.000 A 
ATOM      9  C3  UNL     1      13.867  16.286  -1.518  0.00  0.00    +0.000 A 
ATOM     10  H2  UNL     1      11.071  17.756  -1.033  0.00  0.00    +0.000 HD
ENDBRANCH   1   9
BRANCH   3  11
ATOM     11  C5  UNL     1      16.878  14.508  -0.174  0.00  0.00    +0.000 C 
BRANCH  11  12
ATOM     12  C6  UNL     1      18.209  15.193   0.002  0.00  0.00    +0.000 A 
ATOM     13  C7  UNL     1      18.296  16.591   0.066  0.00  0.00    +0.000 A 
ATOM     14  C8  UNL     1      19.531  17.214   0.251  0.00  0.00    +0.000 A 
ATOM     15  C9  UNL     1      20.688  16.448   0.382  0.00  0.00    +0.000 A 
ATOM     16  C10 UNL     1      20.612  15.058   0.328  0.00  0.00    +0.000 A 
ATOM     17  C11 UNL     1      19.379  14.433   0.142  0.00  0.00    +0.000 A 
ENDBRANCH  11  12
ENDBRANCH   3  11
TORSDOF 3
ENDMDL
MODEL 5
REMARK VINA RESULT:    -4.907     16.293     17.200
REMARK INTER + INTRA:          -6.032
REMARK INTER:                  -5.738
REMARK INTRA:                  -0.294
REMARK UNBOUND:                -0.264
REMARK  Name = /home/anacleto/Desktop/manuscript_Mpro/naturecomm/supplementary_file_S2/6-chemical-library/molecular_docking/3D_ligand_structure/848.pdb
REMARK  3 active torsions:
REMARK  status: ('A' for Active; 'I' for Inactive)
REMARK    1  A    between atoms: C3_5  and  C4_6
REMARK    2  A    between atoms: N3_8  and  C5_9
REMARK    3  A    between atoms: C5_9  and  C6_10
REMARK                            x       y       z     vdW  Elec       q    Type
REMARK                         _______ _______ _______ _____ _____    ______ ____
ROOT
ATOM      1  C4  UNL     1      18.444   4.055   9.077  0.00  0.00    +0.000 C 
ATOM      2  O1  UNL     1      19.110   3.107   9.480  0.00  0.00    +0.000 OA
ATOM      3  N3  UNL     1      17.245   3.905   8.419  0.00  0.00    +0.000 N 
ATOM      4  H4  UNL     1      16.823   4.711   7.985  0.00  0.00    +0.000 HD
ENDROOT
BRANCH   1   9
ATOM      5  C1  UNL     1      19.138   6.131  10.426  0.00  0.00    +0.000 A 
ATOM      6  N1  UNL     1      19.525   7.385  10.044  0.00  0.00    +0.000 N 
ATOM      7  N2  UNL     1      19.543   7.555   8.714  0.00  0.00    +0.000 NA
ATOM      8  C2  UNL     1      19.155   6.369   8.241  0.00  0.00    +0.000 A 
ATOM      9  C3  UNL     1      18.883   5.428   9.263  0.00  0.00    +0.000 A 
ATOM     10  H2  UNL     1      19.789   8.170  10.631  0.00  0.00    +0.000 HD
ENDBRANCH   1   9
BRANCH   3  11
ATOM     11  C5  UNL     1      16.747   2.607   8.032  0.00  0.00    +0.000 C 
BRANCH  11  12
ATOM     12  C6  UNL     1      15.439   2.315   8.721  0.00  0.00    +0.000 A 
ATOM     13  C7  UNL     1      14.428   1.594   8.070  0.00  0.00    +0.000 A 
ATOM     14  C8  UNL     1      13.229   1.310   8.725  0.00  0.00    +0.000 A 
ATOM     15  C9  UNL     1      13.030   1.737  10.037  0.00  0.00    +0.000 A 
ATOM     16  C10 UNL     1      14.030   2.448  10.696  0.00  0.00    +0.000 A 
ATOM     17  C11 UNL     1      15.229   2.735  10.043  0.00  0.00    +0.000 A 
ENDBRANCH  11  12
ENDBRANCH   3  11
TORSDOF 3
ENDMDL
MODEL 6
REMARK VINA RESULT:    -4.849     18.006     19.302
REMARK INTER + INTRA:          -5.963
REMARK INTER:                  -5.614
REMARK INTRA:                  -0.349
REMARK UNBOUND:                -0.264
REMARK  Name = /home/anacleto/Desktop/manuscript_Mpro/naturecomm/supplementary_file_S2/6-chemical-library/molecular_docking/3D_ligand_structure/848.pdb
REMARK  3 active torsions:
REMARK  status: ('A' for Active; 'I' for Inactive)
REMARK    1  A    between atoms: C3_5  and  C4_6
REMARK    2  A    between atoms: N3_8  and  C5_9
REMARK    3  A    between atoms: C5_9  and  C6_10
REMARK                            x       y       z     vdW  Elec       q    Type
REMARK                         _______ _______ _______ _____ _____    ______ ____
ROOT
ATOM      1  C4  UNL     1      19.990   6.717  11.709  0.00  0.00    +0.000 C 
ATOM      2  O1  UNL     1      20.732   5.888  12.226  0.00  0.00    +0.000 OA
ATOM      3  N3  UNL     1      19.529   7.830  12.373  0.00  0.00    +0.000 N 
ATOM      4  H4  UNL     1      18.808   8.391  11.944  0.00  0.00    +0.000 HD
ENDROOT
BRANCH   1   9
ATOM      5  C1  UNL     1      18.870   5.532   9.721  0.00  0.00    +0.000 A 
ATOM      6  N1  UNL     1      18.671   5.909   8.423  0.00  0.00    +0.000 N 
ATOM      7  N2  UNL     1      19.155   7.128   8.142  0.00  0.00    +0.000 NA
ATOM      8  C2  UNL     1      19.674   7.534   9.302  0.00  0.00    +0.000 A 
ATOM      9  C3  UNL     1      19.532   6.578  10.336  0.00  0.00    +0.000 A 
ATOM     10  H2  UNL     1      18.217   5.391   7.677  0.00  0.00    +0.000 HD
ENDBRANCH   1   9
BRANCH   3  11
ATOM     11  C5  UNL     1      19.777   8.034  13.779  0.00  0.00    +0.000 C 
BRANCH  11  12
ATOM     12  C6  UNL     1      18.618   7.531  14.600  0.00  0.00    +0.000 A 
ATOM     13  C7  UNL     1      18.829   6.708  15.715  0.00  0.00    +0.000 A 
ATOM     14  C8  UNL     1      17.750   6.265  16.482  0.00  0.00    +0.000 A 
ATOM     15  C9  UNL     1      16.452   6.646  16.147  0.00  0.00    +0.000 A 
ATOM     16  C10 UNL     1      16.231   7.470  15.046  0.00  0.00    +0.000 A 
ATOM     17  C11 UNL     1      17.307   7.913  14.277  0.00  0.00    +0.000 A 
ENDBRANCH  11  12
ENDBRANCH   3  11
TORSDOF 3
ENDMDL
MODEL 7
REMARK VINA RESULT:    -4.739      4.046      6.648
REMARK INTER + INTRA:          -5.834
REMARK INTER:                  -5.561
REMARK INTRA:                  -0.273
REMARK UNBOUND:                -0.264
REMARK  Name = /home/anacleto/Desktop/manuscript_Mpro/naturecomm/supplementary_file_S2/6-chemical-library/molecular_docking/3D_ligand_structure/848.pdb
REMARK  3 active torsions:
REMARK  status: ('A' for Active; 'I' for Inactive)
REMARK    1  A    between atoms: C3_5  and  C4_6
REMARK    2  A    between atoms: N3_8  and  C5_9
REMARK    3  A    between atoms: C5_9  and  C6_10
REMARK                            x       y       z     vdW  Elec       q    Type
REMARK                         _______ _______ _______ _____ _____    ______ ____
ROOT
ATOM      1  C4  UNL     1      16.189  11.554  -2.638  0.00  0.00    +0.000 C 
ATOM      2  O1  UNL     1      16.266  10.404  -2.218  0.00  0.00    +0.000 OA
ATOM      3  N3  UNL     1      17.032  12.561  -2.229  0.00  0.00    +0.000 N 
ATOM      4  H4  UNL     1      16.824  13.511  -2.497  0.00  0.00    +0.000 HD
ENDROOT
BRANCH   1   9
ATOM      5  C1  UNL     1      14.738  13.203  -3.976  0.00  0.00    +0.000 A 
ATOM      6  N1  UNL     1      13.781  13.012  -4.933  0.00  0.00    +0.000 N 
ATOM      7  N2  UNL     1      13.565  11.721  -5.222  0.00  0.00    +0.000 NA
ATOM      8  C2  UNL     1      14.416  11.074  -4.422  0.00  0.00    +0.000 A 
ATOM      9  C3  UNL     1      15.181  11.945  -3.610  0.00  0.00    +0.000 A 
ATOM     10  H2  UNL     1      13.237  13.711  -5.429  0.00  0.00    +0.000 HD
ENDBRANCH   1   9
BRANCH   3  11
ATOM     11  C5  UNL     1      17.989  12.368  -1.166  0.00  0.00    +0.000 C 
BRANCH  11  12
ATOM     12  C6  UNL     1      18.266  13.669  -0.459  0.00  0.00    +0.000 A 
ATOM     13  C7  UNL     1      17.251  14.619  -0.277  0.00  0.00    +0.000 A 
ATOM     14  C8  UNL     1      17.512  15.812   0.399  0.00  0.00    +0.000 A 
ATOM     15  C9  UNL     1      18.787  16.064   0.905  0.00  0.00    +0.000 A 
ATOM     16  C10 UNL     1      19.801  15.124   0.737  0.00  0.00    +0.000 A 
ATOM     17  C11 UNL     1      19.542  13.931   0.060  0.00  0.00    +0.000 A 
ENDBRANCH  11  12
ENDBRANCH   3  11
TORSDOF 3
ENDMDL
MODEL 8
REMARK VINA RESULT:    -4.630      4.615      6.360
REMARK INTER + INTRA:          -5.705
REMARK INTER:                  -5.445
REMARK INTRA:                  -0.260
REMARK UNBOUND:                -0.264
REMARK  Name = /home/anacleto/Desktop/manuscript_Mpro/naturecomm/supplementary_file_S2/6-chemical-library/molecular_docking/3D_ligand_structure/848.pdb
REMARK  3 active torsions:
REMARK  status: ('A' for Active; 'I' for Inactive)
REMARK    1  A    between atoms: C3_5  and  C4_6
REMARK    2  A    between atoms: N3_8  and  C5_9
REMARK    3  A    between atoms: C5_9  and  C6_10
REMARK                            x       y       z     vdW  Elec       q    Type
REMARK                         _______ _______ _______ _____ _____    ______ ____
ROOT
ATOM      1  C4  UNL     1      15.360  11.010  -3.693  0.00  0.00    +0.000 C 
ATOM      2  O1  UNL     1      14.917  11.617  -2.723  0.00  0.00    +0.000 OA
ATOM      3  N3  UNL     1      16.477  10.209  -3.632  0.00  0.00    +0.000 N 
ATOM      4  H4  UNL     1      16.874   9.859  -4.491  0.00  0.00    +0.000 HD
ENDROOT
BRANCH   1   9
ATOM      5  C1  UNL     1      13.463  10.721  -5.405  0.00  0.00    +0.000 A 
ATOM      6  N1  UNL     1      13.376  11.023  -6.735  0.00  0.00    +0.000 N 
ATOM      7  N2  UNL     1      14.493  11.572  -7.232  0.00  0.00    +0.000 NA
ATOM      8  C2  UNL     1      15.313  11.620  -6.180  0.00  0.00    +0.000 A 
ATOM      9  C3  UNL     1      14.730  11.099  -5.000  0.00  0.00    +0.000 A 
ATOM     10  H2  UNL     1      12.590  10.883  -7.363  0.00  0.00    +0.000 HD
ENDBRANCH   1   9
BRANCH   3  11
ATOM     11  C5  UNL     1      17.293  10.131  -2.445  0.00  0.00    +0.000 C 
BRANCH  11  12
ATOM     12  C6  UNL     1      18.196  11.334  -2.343  0.00  0.00    +0.000 A 
ATOM     13  C7  UNL     1      18.501  11.901  -1.098  0.00  0.00    +0.000 A 
ATOM     14  C8  UNL     1      19.355  13.001  -1.013  0.00  0.00    +0.000 A 
ATOM     15  C9  UNL     1      19.918  13.541  -2.168  0.00  0.00    +0.000 A 
ATOM     16  C10 UNL     1      19.627  12.981  -3.410  0.00  0.00    +0.000 A 
ATOM     17  C11 UNL     1      18.772  11.882  -3.498  0.00  0.00    +0.000 A 
ENDBRANCH  11  12
ENDBRANCH   3  11
TORSDOF 3
ENDMDL
MODEL 9
REMARK VINA RESULT:    -4.610      2.607      3.223
REMARK INTER + INTRA:          -5.683
REMARK INTER:                  -5.419
REMARK INTRA:                  -0.264
REMARK UNBOUND:                -0.264
REMARK  Name = /home/anacleto/Desktop/manuscript_Mpro/naturecomm/supplementary_file_S2/6-chemical-library/molecular_docking/3D_ligand_structure/848.pdb
REMARK  3 active torsions:
REMARK  status: ('A' for Active; 'I' for Inactive)
REMARK    1  A    between atoms: C3_5  and  C4_6
REMARK    2  A    between atoms: N3_8  and  C5_9
REMARK    3  A    between atoms: C5_9  and  C6_10
REMARK                            x       y       z     vdW  Elec       q    Type
REMARK                         _______ _______ _______ _____ _____    ______ ____
ROOT
ATOM      1  C4  UNL     1      16.462  12.678  -1.696  0.00  0.00    +0.000 C 
ATOM      2  O1  UNL     1      17.362  11.935  -1.316  0.00  0.00    +0.000 OA
ATOM      3  N3  UNL     1      15.446  12.263  -2.526  0.00  0.00    +0.000 N 
ATOM      4  H4  UNL     1      14.825  12.954  -2.919  0.00  0.00    +0.000 HD
ENDROOT
BRANCH   1   9
ATOM      5  C1  UNL     1      15.605  15.101  -1.758  0.00  0.00    +0.000 A 
ATOM      6  N1  UNL     1      15.952  16.214  -1.044  0.00  0.00    +0.000 N 
ATOM      7  N2  UNL     1      16.921  15.991  -0.146  0.00  0.00    +0.000 NA
ATOM      8  C2  UNL     1      17.195  14.693  -0.296  0.00  0.00    +0.000 A 
ATOM      9  C3  UNL     1      16.406  14.073  -1.294  0.00  0.00    +0.000 A 
ATOM     10  H2  UNL     1      15.572  17.153  -1.116  0.00  0.00    +0.000 HD
ENDBRANCH   1   9
BRANCH   3  11
ATOM     11  C5  UNL     1      15.440  10.950  -3.125  0.00  0.00    +0.000 C 
BRANCH  11  12
ATOM     12  C6  UNL     1      15.025  11.029  -4.571  0.00  0.00    +0.000 A 
ATOM     13  C7  UNL     1      13.729  10.671  -4.968  0.00  0.00    +0.000 A 
ATOM     14  C8  UNL     1      13.347  10.769  -6.307  0.00  0.00    +0.000 A 
ATOM     15  C9  UNL     1      14.253  11.231  -7.260  0.00  0.00    +0.000 A 
ATOM     16  C10 UNL     1      15.541  11.597  -6.876  0.00  0.00    +0.000 A 
ATOM     17  C11 UNL     1      15.926  11.499  -5.538  0.00  0.00    +0.000 A 
ENDBRANCH  11  12
ENDBRANCH   3  11
TORSDOF 3
ENDMDL
