MODEL 1
REMARK VINA RESULT:    -4.187      0.000      0.000
REMARK INTER + INTRA:          -4.187
REMARK INTER:                  -4.187
REMARK INTRA:                   0.000
REMARK UNBOUND:                 0.000
REMARK  Name = /home/anacleto/Desktop/manuscript_Mpro/naturecomm/supplementary_file_S2/6-chemical-library/molecular_docking/3D_ligand_structure/229.pdb
REMARK  0 active torsions:
REMARK  status: ('A' for Active; 'I' for Inactive)
REMARK                            x       y       z     vdW  Elec       q    Type
REMARK                         _______ _______ _______ _____ _____    ______ ____
ROOT
ATOM      1  C1  UNL     1     -35.076  11.045 -33.322  0.00  0.00    +0.000 C 
ATOM      2  C2  UNL     1     -34.153  12.122 -33.886  0.00  0.00    +0.000 C 
ATOM      3  O1  UNL     1     -33.244  12.555 -32.872  0.00  0.00    +0.000 OA
ATOM      4  C3  UNL     1     -33.925  13.275 -31.837  0.00  0.00    +0.000 C 
ATOM      5  C4  UNL     1     -35.157  12.567 -31.321  0.00  0.00    +0.000 A 
ATOM      6  C5  UNL     1     -35.739  11.518 -32.054  0.00  0.00    +0.000 A 
ATOM      7  C6  UNL     1     -35.760  12.989 -30.128  0.00  0.00    +0.000 A 
ATOM      8  C7  UNL     1     -36.914  12.359 -29.660  0.00  0.00    +0.000 A 
ATOM      9  C8  UNL     1     -37.476  11.308 -30.380  0.00  0.00    +0.000 A 
ATOM     10  C9  UNL     1     -36.889  10.884 -31.572  0.00  0.00    +0.000 A 
ENDROOT
TORSDOF 0
ENDMDL
MODEL 2
REMARK VINA RESULT:    -4.127      0.657      2.115
REMARK INTER + INTRA:          -4.127
REMARK INTER:                  -4.127
REMARK INTRA:                   0.000
REMARK UNBOUND:                 0.000
REMARK  Name = /home/anacleto/Desktop/manuscript_Mpro/naturecomm/supplementary_file_S2/6-chemical-library/molecular_docking/3D_ligand_structure/229.pdb
REMARK  0 active torsions:
REMARK  status: ('A' for Active; 'I' for Inactive)
REMARK                            x       y       z     vdW  Elec       q    Type
REMARK                         _______ _______ _______ _____ _____    ______ ____
ROOT
ATOM      1  C1  UNL     1     -34.008  13.338 -31.997  0.00  0.00    +0.000 C 
ATOM      2  C2  UNL     1     -33.317  12.515 -33.080  0.00  0.00    +0.000 C 
ATOM      3  O1  UNL     1     -34.278  12.093 -34.049  0.00  0.00    +0.000 OA
ATOM      4  C3  UNL     1     -35.186  11.133 -33.496  0.00  0.00    +0.000 C 
ATOM      5  C4  UNL     1     -35.772  11.553 -32.168  0.00  0.00    +0.000 A 
ATOM      6  C5  UNL     1     -35.182  12.589 -31.422  0.00  0.00    +0.000 A 
ATOM      7  C6  UNL     1     -36.881  10.874 -31.643  0.00  0.00    +0.000 A 
ATOM      8  C7  UNL     1     -37.409  11.238 -30.404  0.00  0.00    +0.000 A 
ATOM      9  C8  UNL     1     -36.832  12.277 -29.678  0.00  0.00    +0.000 A 
ATOM     10  C9  UNL     1     -35.725  12.955 -30.186  0.00  0.00    +0.000 A 
ENDROOT
TORSDOF 0
ENDMDL
MODEL 3
REMARK VINA RESULT:    -4.101      1.626      3.482
REMARK INTER + INTRA:          -4.101
REMARK INTER:                  -4.101
REMARK INTRA:                   0.000
REMARK UNBOUND:                 0.000
REMARK  Name = /home/anacleto/Desktop/manuscript_Mpro/naturecomm/supplementary_file_S2/6-chemical-library/molecular_docking/3D_ligand_structure/229.pdb
REMARK  0 active torsions:
REMARK  status: ('A' for Active; 'I' for Inactive)
REMARK                            x       y       z     vdW  Elec       q    Type
REMARK                         _______ _______ _______ _____ _____    ______ ____
ROOT
ATOM      1  C1  UNL     1     -36.971  10.856 -31.594  0.00  0.00    +0.000 C 
ATOM      2  C2  UNL     1     -37.320  11.372 -30.200  0.00  0.00    +0.000 C 
ATOM      3  O1  UNL     1     -37.241  12.798 -30.182  0.00  0.00    +0.000 OA
ATOM      4  C3  UNL     1     -35.887  13.245 -30.321  0.00  0.00    +0.000 C 
ATOM      5  C4  UNL     1     -35.149  12.586 -31.463  0.00  0.00    +0.000 A 
ATOM      6  C5  UNL     1     -35.648  11.410 -32.053  0.00  0.00    +0.000 A 
ATOM      7  C6  UNL     1     -33.929  13.115 -31.910  0.00  0.00    +0.000 A 
ATOM      8  C7  UNL     1     -33.229  12.495 -32.945  0.00  0.00    +0.000 A 
ATOM      9  C8  UNL     1     -33.737  11.342 -33.539  0.00  0.00    +0.000 A 
ATOM     10  C9  UNL     1     -34.945  10.802 -33.098  0.00  0.00    +0.000 A 
ENDROOT
TORSDOF 0
ENDMDL
MODEL 4
REMARK VINA RESULT:    -3.985     14.766     16.895
REMARK INTER + INTRA:          -3.985
REMARK INTER:                  -3.985
REMARK INTRA:                   0.000
REMARK UNBOUND:                 0.000
REMARK  Name = /home/anacleto/Desktop/manuscript_Mpro/naturecomm/supplementary_file_S2/6-chemical-library/molecular_docking/3D_ligand_structure/229.pdb
REMARK  0 active torsions:
REMARK  status: ('A' for Active; 'I' for Inactive)
REMARK                            x       y       z     vdW  Elec       q    Type
REMARK                         _______ _______ _______ _____ _____    ______ ____
ROOT
ATOM      1  C1  UNL     1     -21.157   6.473 -38.796  0.00  0.00    +0.000 C 
ATOM      2  C2  UNL     1     -22.397   6.442 -37.908  0.00  0.00    +0.000 C 
ATOM      3  O1  UNL     1     -23.154   7.639 -38.098  0.00  0.00    +0.000 OA
ATOM      4  C3  UNL     1     -22.460   8.780 -37.580  0.00  0.00    +0.000 C 
ATOM      5  C4  UNL     1     -21.020   8.866 -38.030  0.00  0.00    +0.000 A 
ATOM      6  C5  UNL     1     -20.375   7.743 -38.579  0.00  0.00    +0.000 A 
ATOM      7  C6  UNL     1     -20.299  10.055 -37.853  0.00  0.00    +0.000 A 
ATOM      8  C7  UNL     1     -18.960  10.132 -38.241  0.00  0.00    +0.000 A 
ATOM      9  C8  UNL     1     -18.331   9.023 -38.802  0.00  0.00    +0.000 A 
ATOM     10  C9  UNL     1     -19.036   7.833 -38.976  0.00  0.00    +0.000 A 
ENDROOT
TORSDOF 0
ENDMDL
MODEL 5
REMARK VINA RESULT:    -3.908     13.603     14.906
REMARK INTER + INTRA:          -3.908
REMARK INTER:                  -3.908
REMARK INTRA:                   0.000
REMARK UNBOUND:                 0.000
REMARK  Name = /home/anacleto/Desktop/manuscript_Mpro/naturecomm/supplementary_file_S2/6-chemical-library/molecular_docking/3D_ligand_structure/229.pdb
REMARK  0 active torsions:
REMARK  status: ('A' for Active; 'I' for Inactive)
REMARK                            x       y       z     vdW  Elec       q    Type
REMARK                         _______ _______ _______ _____ _____    ______ ____
ROOT
ATOM      1  C1  UNL     1     -20.855   8.314 -37.443  0.00  0.00    +0.000 C 
ATOM      2  C2  UNL     1     -20.957   9.836 -37.468  0.00  0.00    +0.000 C 
ATOM      3  O1  UNL     1     -22.114  10.252 -36.741  0.00  0.00    +0.000 OA
ATOM      4  C3  UNL     1     -23.318   9.874 -37.418  0.00  0.00    +0.000 C 
ATOM      5  C4  UNL     1     -23.334   8.428 -37.856  0.00  0.00    +0.000 A 
ATOM      6  C5  UNL     1     -22.141   7.684 -37.909  0.00  0.00    +0.000 A 
ATOM      7  C6  UNL     1     -24.535   7.831 -38.265  0.00  0.00    +0.000 A 
ATOM      8  C7  UNL     1     -24.552   6.504 -38.698  0.00  0.00    +0.000 A 
ATOM      9  C8  UNL     1     -23.371   5.766 -38.730  0.00  0.00    +0.000 A 
ATOM     10  C9  UNL     1     -22.169   6.350 -38.333  0.00  0.00    +0.000 A 
ENDROOT
TORSDOF 0
ENDMDL
MODEL 6
REMARK VINA RESULT:    -3.871     11.573     13.479
REMARK INTER + INTRA:          -3.871
REMARK INTER:                  -3.871
REMARK INTRA:                   0.000
REMARK UNBOUND:                 0.000
REMARK  Name = /home/anacleto/Desktop/manuscript_Mpro/naturecomm/supplementary_file_S2/6-chemical-library/molecular_docking/3D_ligand_structure/229.pdb
REMARK  0 active torsions:
REMARK  status: ('A' for Active; 'I' for Inactive)
REMARK                            x       y       z     vdW  Elec       q    Type
REMARK                         _______ _______ _______ _____ _____    ______ ____
ROOT
ATOM      1  C1  UNL     1     -28.822   5.490 -38.733  0.00  0.00    +0.000 C 
ATOM      2  C2  UNL     1     -28.270   6.912 -38.700  0.00  0.00    +0.000 C 
ATOM      3  O1  UNL     1     -27.236   7.048 -39.677  0.00  0.00    +0.000 OA
ATOM      4  C3  UNL     1     -26.079   6.284 -39.319  0.00  0.00    +0.000 C 
ATOM      5  C4  UNL     1     -26.395   4.858 -38.929  0.00  0.00    +0.000 A 
ATOM      6  C5  UNL     1     -27.711   4.481 -38.606  0.00  0.00    +0.000 A 
ATOM      7  C6  UNL     1     -25.366   3.911 -38.836  0.00  0.00    +0.000 A 
ATOM      8  C7  UNL     1     -25.647   2.600 -38.449  0.00  0.00    +0.000 A 
ATOM      9  C8  UNL     1     -26.955   2.226 -38.148  0.00  0.00    +0.000 A 
ATOM     10  C9  UNL     1     -27.986   3.161 -38.230  0.00  0.00    +0.000 A 
ENDROOT
TORSDOF 0
ENDMDL
MODEL 7
REMARK VINA RESULT:    -3.860     14.782     17.002
REMARK INTER + INTRA:          -3.860
REMARK INTER:                  -3.860
REMARK INTRA:                   0.000
REMARK UNBOUND:                 0.000
REMARK  Name = /home/anacleto/Desktop/manuscript_Mpro/naturecomm/supplementary_file_S2/6-chemical-library/molecular_docking/3D_ligand_structure/229.pdb
REMARK  0 active torsions:
REMARK  status: ('A' for Active; 'I' for Inactive)
REMARK                            x       y       z     vdW  Elec       q    Type
REMARK                         _______ _______ _______ _____ _____    ______ ____
ROOT
ATOM      1  C1  UNL     1     -22.319   9.025 -37.489  0.00  0.00    +0.000 C 
ATOM      2  C2  UNL     1     -23.186   7.916 -38.077  0.00  0.00    +0.000 C 
ATOM      3  O1  UNL     1     -22.555   6.651 -37.869  0.00  0.00    +0.000 OA
ATOM      4  C3  UNL     1     -21.364   6.529 -38.656  0.00  0.00    +0.000 C 
ATOM      5  C4  UNL     1     -20.442   7.722 -38.542  0.00  0.00    +0.000 A 
ATOM      6  C5  UNL     1     -20.910   8.940 -38.018  0.00  0.00    +0.000 A 
ATOM      7  C6  UNL     1     -19.123   7.636 -39.009  0.00  0.00    +0.000 A 
ATOM      8  C7  UNL     1     -18.275   8.742 -38.933  0.00  0.00    +0.000 A 
ATOM      9  C8  UNL     1     -18.738   9.941 -38.396  0.00  0.00    +0.000 A 
ATOM     10  C9  UNL     1     -20.050  10.040 -37.935  0.00  0.00    +0.000 A 
ENDROOT
TORSDOF 0
ENDMDL
MODEL 8
REMARK VINA RESULT:    -3.854     15.625     17.467
REMARK INTER + INTRA:          -3.854
REMARK INTER:                  -3.854
REMARK INTRA:                   0.000
REMARK UNBOUND:                 0.000
REMARK  Name = /home/anacleto/Desktop/manuscript_Mpro/naturecomm/supplementary_file_S2/6-chemical-library/molecular_docking/3D_ligand_structure/229.pdb
REMARK  0 active torsions:
REMARK  status: ('A' for Active; 'I' for Inactive)
REMARK                            x       y       z     vdW  Elec       q    Type
REMARK                         _______ _______ _______ _____ _____    ______ ____
ROOT
ATOM      1  C1  UNL     1     -18.816   7.122 -39.789  0.00  0.00    +0.000 C 
ATOM      2  C2  UNL     1     -17.946   8.281 -40.266  0.00  0.00    +0.000 C 
ATOM      3  O1  UNL     1     -17.516   9.053 -39.143  0.00  0.00    +0.000 OA
ATOM      4  C3  UNL     1     -18.614   9.748 -38.539  0.00  0.00    +0.000 C 
ATOM      5  C4  UNL     1     -19.815   8.869 -38.279  0.00  0.00    +0.000 A 
ATOM      6  C5  UNL     1     -19.936   7.619 -38.912  0.00  0.00    +0.000 A 
ATOM      7  C6  UNL     1     -20.846   9.318 -37.442  0.00  0.00    +0.000 A 
ATOM      8  C7  UNL     1     -21.971   8.523 -37.219  0.00  0.00    +0.000 A 
ATOM      9  C8  UNL     1     -22.077   7.277 -37.834  0.00  0.00    +0.000 A 
ATOM     10  C9  UNL     1     -21.062   6.823 -38.674  0.00  0.00    +0.000 A 
ENDROOT
TORSDOF 0
ENDMDL
MODEL 9
REMARK VINA RESULT:    -3.844     12.920     13.958
REMARK INTER + INTRA:          -3.844
REMARK INTER:                  -3.844
REMARK INTRA:                   0.000
REMARK UNBOUND:                 0.000
REMARK  Name = /home/anacleto/Desktop/manuscript_Mpro/naturecomm/supplementary_file_S2/6-chemical-library/molecular_docking/3D_ligand_structure/229.pdb
REMARK  0 active torsions:
REMARK  status: ('A' for Active; 'I' for Inactive)
REMARK                            x       y       z     vdW  Elec       q    Type
REMARK                         _______ _______ _______ _____ _____    ______ ____
ROOT
ATOM      1  C1  UNL     1     -24.471   4.995 -38.834  0.00  0.00    +0.000 C 
ATOM      2  C2  UNL     1     -24.725   6.197 -39.739  0.00  0.00    +0.000 C 
ATOM      3  O1  UNL     1     -25.843   6.940 -39.249  0.00  0.00    +0.000 OA
ATOM      4  C3  UNL     1     -27.063   6.205 -39.401  0.00  0.00    +0.000 C 
ATOM      5  C4  UNL     1     -26.977   4.784 -38.893  0.00  0.00    +0.000 A 
ATOM      6  C5  UNL     1     -25.728   4.183 -38.657  0.00  0.00    +0.000 A 
ATOM      7  C6  UNL     1     -28.147   4.035 -38.703  0.00  0.00    +0.000 A 
ATOM      8  C7  UNL     1     -28.075   2.713 -38.261  0.00  0.00    +0.000 A 
ATOM      9  C8  UNL     1     -26.835   2.128 -38.011  0.00  0.00    +0.000 A 
ATOM     10  C9  UNL     1     -25.664   2.861 -38.203  0.00  0.00    +0.000 A 
ENDROOT
TORSDOF 0
ENDMDL
