MODEL 1
REMARK VINA RESULT:    -5.372      0.000      0.000
REMARK INTER + INTRA:          -6.631
REMARK INTER:                  -6.269
REMARK INTRA:                  -0.362
REMARK UNBOUND:                -0.317
REMARK  Name = /home/anacleto/Desktop/manuscript_Mpro/naturecomm/supplementary_file_S2/6-chemical-library/molecular_docking/3D_ligand_structure/729.pdb
REMARK  3 active torsions:
REMARK  status: ('A' for Active; 'I' for Inactive)
REMARK    1  A    between atoms: C5_6  and  C6_7
REMARK    2  A    between atoms: C6_7  and  C7_8
REMARK    3  A    between atoms: N2_10  and  C8_11
REMARK                            x       y       z     vdW  Elec       q    Type
REMARK                         _______ _______ _______ _____ _____    ______ ____
ROOT
ATOM      1  C7  UNL     1      16.083  10.779  -2.588  0.00  0.00    +0.000 C 
ATOM      2  O1  UNL     1      16.859   9.956  -3.065  0.00  0.00    +0.000 OA
ATOM      3  N2  UNL     1      15.050  11.423  -3.251  0.00  0.00    +0.000 N 
ATOM      4  H7  UNL     1      14.547  12.130  -2.728  0.00  0.00    +0.000 HD
ENDROOT
BRANCH   3   5
ATOM      5  C8  UNL     1      14.656  11.258  -4.594  0.00  0.00    +0.000 A 
ATOM      6  C9  UNL     1      15.473  11.837  -5.574  0.00  0.00    +0.000 A 
ATOM      7  C10 UNL     1      15.149  11.728  -6.929  0.00  0.00    +0.000 A 
ATOM      8  C11 UNL     1      14.003  11.041  -7.318  0.00  0.00    +0.000 A 
ATOM      9  C12 UNL     1      13.183  10.464  -6.352  0.00  0.00    +0.000 A 
ATOM     10  C13 UNL     1      13.508  10.572  -4.995  0.00  0.00    +0.000 A 
ENDBRANCH   3   5
BRANCH   1  11
ATOM     11  C6  UNL     1      16.174  11.159  -1.117  0.00  0.00    +0.000 C 
BRANCH  11  17
ATOM     12  C1  UNL     1      16.681  13.585  -0.627  0.00  0.00    +0.000 A 
ATOM     13  N1  UNL     1      17.495  14.635  -0.378  0.00  0.00    +0.000 NA
ATOM     14  C2  UNL     1      18.822  14.388  -0.351  0.00  0.00    +0.000 A 
ATOM     15  C3  UNL     1      19.374  13.135  -0.560  0.00  0.00    +0.000 A 
ATOM     16  C4  UNL     1      18.514  12.069  -0.810  0.00  0.00    +0.000 A 
ATOM     17  C5  UNL     1      17.133  12.284  -0.837  0.00  0.00    +0.000 A 
ENDBRANCH  11  17
ENDBRANCH   1  11
TORSDOF 3
ENDMDL
MODEL 2
REMARK VINA RESULT:    -5.285      3.322      4.131
REMARK INTER + INTRA:          -6.529
REMARK INTER:                  -6.126
REMARK INTRA:                  -0.403
REMARK UNBOUND:                -0.317
REMARK  Name = /home/anacleto/Desktop/manuscript_Mpro/naturecomm/supplementary_file_S2/6-chemical-library/molecular_docking/3D_ligand_structure/729.pdb
REMARK  3 active torsions:
REMARK  status: ('A' for Active; 'I' for Inactive)
REMARK    1  A    between atoms: C5_6  and  C6_7
REMARK    2  A    between atoms: C6_7  and  C7_8
REMARK    3  A    between atoms: N2_10  and  C8_11
REMARK                            x       y       z     vdW  Elec       q    Type
REMARK                         _______ _______ _______ _____ _____    ______ ____
ROOT
ATOM      1  C7  UNL     1      15.178  13.449  -2.783  0.00  0.00    +0.000 C 
ATOM      2  O1  UNL     1      15.089  12.350  -2.244  0.00  0.00    +0.000 OA
ATOM      3  N2  UNL     1      14.987  13.730  -4.126  0.00  0.00    +0.000 N 
ATOM      4  H7  UNL     1      15.169  14.682  -4.421  0.00  0.00    +0.000 HD
ENDROOT
BRANCH   3   5
ATOM      5  C8  UNL     1      14.629  12.830  -5.150  0.00  0.00    +0.000 A 
ATOM      6  C9  UNL     1      15.575  12.605  -6.160  0.00  0.00    +0.000 A 
ATOM      7  C10 UNL     1      15.296  11.734  -7.217  0.00  0.00    +0.000 A 
ATOM      8  C11 UNL     1      14.068  11.080  -7.276  0.00  0.00    +0.000 A 
ATOM      9  C12 UNL     1      13.122  11.299  -6.279  0.00  0.00    +0.000 A 
ATOM     10  C13 UNL     1      13.401  12.170  -5.219  0.00  0.00    +0.000 A 
ENDBRANCH   3   5
BRANCH   1  11
ATOM     11  C6  UNL     1      15.492  14.688  -1.956  0.00  0.00    +0.000 C 
BRANCH  11  17
ATOM     12  C1  UNL     1      14.691  17.063  -2.273  0.00  0.00    +0.000 A 
ATOM     13  N1  UNL     1      13.761  18.042  -2.305  0.00  0.00    +0.000 NA
ATOM     14  C2  UNL     1      12.490  17.689  -2.020  0.00  0.00    +0.000 A 
ATOM     15  C3  UNL     1      12.104  16.396  -1.705  0.00  0.00    +0.000 A 
ATOM     16  C4  UNL     1      13.081  15.404  -1.684  0.00  0.00    +0.000 A 
ATOM     17  C5  UNL     1      14.407  15.730  -1.983  0.00  0.00    +0.000 A 
ENDBRANCH  11  17
ENDBRANCH   1  11
TORSDOF 3
ENDMDL
MODEL 3
REMARK VINA RESULT:    -5.217     13.821     15.736
REMARK INTER + INTRA:          -6.449
REMARK INTER:                  -6.264
REMARK INTRA:                  -0.184
REMARK UNBOUND:                -0.317
REMARK  Name = /home/anacleto/Desktop/manuscript_Mpro/naturecomm/supplementary_file_S2/6-chemical-library/molecular_docking/3D_ligand_structure/729.pdb
REMARK  3 active torsions:
REMARK  status: ('A' for Active; 'I' for Inactive)
REMARK    1  A    between atoms: C5_6  and  C6_7
REMARK    2  A    between atoms: C6_7  and  C7_8
REMARK    3  A    between atoms: N2_10  and  C8_11
REMARK                            x       y       z     vdW  Elec       q    Type
REMARK                         _______ _______ _______ _____ _____    ______ ____
ROOT
ATOM      1  C7  UNL     1      17.245   3.822   9.314  0.00  0.00    +0.000 C 
ATOM      2  O1  UNL     1      17.543   3.626  10.490  0.00  0.00    +0.000 OA
ATOM      3  N2  UNL     1      17.901   4.655   8.422  0.00  0.00    +0.000 N 
ATOM      4  H7  UNL     1      17.481   4.758   7.506  0.00  0.00    +0.000 HD
ENDROOT
BRANCH   3   5
ATOM      5  C8  UNL     1      19.054   5.430   8.659  0.00  0.00    +0.000 A 
ATOM      6  C9  UNL     1      18.878   6.816   8.771  0.00  0.00    +0.000 A 
ATOM      7  C10 UNL     1      19.970   7.658   8.997  0.00  0.00    +0.000 A 
ATOM      8  C11 UNL     1      21.250   7.123   9.110  0.00  0.00    +0.000 A 
ATOM      9  C12 UNL     1      21.436   5.748   8.998  0.00  0.00    +0.000 A 
ATOM     10  C13 UNL     1      20.342   4.905   8.773  0.00  0.00    +0.000 A 
ENDBRANCH   3   5
BRANCH   1  11
ATOM     11  C6  UNL     1      16.069   3.087   8.687  0.00  0.00    +0.000 C 
BRANCH  11  17
ATOM     12  C1  UNL     1      17.601   1.079   8.609  0.00  0.00    +0.000 A 
ATOM     13  N1  UNL     1      17.934  -0.189   8.283  0.00  0.00    +0.000 NA
ATOM     14  C2  UNL     1      17.013  -0.909   7.608  0.00  0.00    +0.000 A 
ATOM     15  C3  UNL     1      15.771  -0.418   7.243  0.00  0.00    +0.000 A 
ATOM     16  C4  UNL     1      15.451   0.891   7.594  0.00  0.00    +0.000 A 
ATOM     17  C5  UNL     1      16.375   1.664   8.302  0.00  0.00    +0.000 A 
ENDBRANCH  11  17
ENDBRANCH   1  11
TORSDOF 3
ENDMDL
MODEL 4
REMARK VINA RESULT:    -4.990     13.690     16.072
REMARK INTER + INTRA:          -6.182
REMARK INTER:                  -5.918
REMARK INTRA:                  -0.265
REMARK UNBOUND:                -0.317
REMARK  Name = /home/anacleto/Desktop/manuscript_Mpro/naturecomm/supplementary_file_S2/6-chemical-library/molecular_docking/3D_ligand_structure/729.pdb
REMARK  3 active torsions:
REMARK  status: ('A' for Active; 'I' for Inactive)
REMARK    1  A    between atoms: C5_6  and  C6_7
REMARK    2  A    between atoms: C6_7  and  C7_8
REMARK    3  A    between atoms: N2_10  and  C8_11
REMARK                            x       y       z     vdW  Elec       q    Type
REMARK                         _______ _______ _______ _____ _____    ______ ____
ROOT
ATOM      1  C7  UNL     1      17.431   3.830   9.096  0.00  0.00    +0.000 C 
ATOM      2  O1  UNL     1      17.640   3.695  10.299  0.00  0.00    +0.000 OA
ATOM      3  N2  UNL     1      18.071   4.710   8.239  0.00  0.00    +0.000 N 
ATOM      4  H7  UNL     1      17.728   4.746   7.287  0.00  0.00    +0.000 HD
ENDROOT
BRANCH   3   5
ATOM      5  C8  UNL     1      19.105   5.615   8.552  0.00  0.00    +0.000 A 
ATOM      6  C9  UNL     1      20.381   5.075   8.767  0.00  0.00    +0.000 A 
ATOM      7  C10 UNL     1      21.461   5.902   9.091  0.00  0.00    +0.000 A 
ATOM      8  C11 UNL     1      21.275   7.277   9.206  0.00  0.00    +0.000 A 
ATOM      9  C12 UNL     1      20.011   7.822   8.998  0.00  0.00    +0.000 A 
ATOM     10  C13 UNL     1      18.931   6.995   8.671  0.00  0.00    +0.000 A 
ENDBRANCH   3   5
BRANCH   1  11
ATOM     11  C6  UNL     1      16.405   2.954   8.392  0.00  0.00    +0.000 C 
BRANCH  11  17
ATOM     12  C1  UNL     1      16.237   0.644   9.402  0.00  0.00    +0.000 A 
ATOM     13  N1  UNL     1      15.683  -0.306  10.187  0.00  0.00    +0.000 NA
ATOM     14  C2  UNL     1      14.580   0.041  10.884  0.00  0.00    +0.000 A 
ATOM     15  C3  UNL     1      14.005   1.300  10.833  0.00  0.00    +0.000 A 
ATOM     16  C4  UNL     1      14.598   2.263  10.020  0.00  0.00    +0.000 A 
ATOM     17  C5  UNL     1      15.746   1.943   9.291  0.00  0.00    +0.000 A 
ENDBRANCH  11  17
ENDBRANCH   1  11
TORSDOF 3
ENDMDL
MODEL 5
REMARK VINA RESULT:    -4.888     14.298     15.229
REMARK INTER + INTRA:          -6.062
REMARK INTER:                  -5.687
REMARK INTRA:                  -0.375
REMARK UNBOUND:                -0.317
REMARK  Name = /home/anacleto/Desktop/manuscript_Mpro/naturecomm/supplementary_file_S2/6-chemical-library/molecular_docking/3D_ligand_structure/729.pdb
REMARK  3 active torsions:
REMARK  status: ('A' for Active; 'I' for Inactive)
REMARK    1  A    between atoms: C5_6  and  C6_7
REMARK    2  A    between atoms: C6_7  and  C7_8
REMARK    3  A    between atoms: N2_10  and  C8_11
REMARK                            x       y       z     vdW  Elec       q    Type
REMARK                         _______ _______ _______ _____ _____    ______ ____
ROOT
ATOM      1  C7  UNL     1      18.350   4.183   9.135  0.00  0.00    +0.000 C 
ATOM      2  O1  UNL     1      18.903   3.356   9.855  0.00  0.00    +0.000 OA
ATOM      3  N2  UNL     1      17.105   4.061   8.539  0.00  0.00    +0.000 N 
ATOM      4  H7  UNL     1      16.825   4.808   7.915  0.00  0.00    +0.000 HD
ENDROOT
BRANCH   3   5
ATOM      5  C8  UNL     1      16.202   2.984   8.648  0.00  0.00    +0.000 A 
ATOM      6  C9  UNL     1      16.145   2.089   7.571  0.00  0.00    +0.000 A 
ATOM      7  C10 UNL     1      15.270   0.999   7.595  0.00  0.00    +0.000 A 
ATOM      8  C11 UNL     1      14.441   0.794   8.695  0.00  0.00    +0.000 A 
ATOM      9  C12 UNL     1      14.489   1.680   9.768  0.00  0.00    +0.000 A 
ATOM     10  C13 UNL     1      15.366   2.770   9.745  0.00  0.00    +0.000 A 
ENDBRANCH   3   5
BRANCH   1  11
ATOM     11  C6  UNL     1      19.018   5.520   8.847  0.00  0.00    +0.000 C 
BRANCH  11  17
ATOM     12  C1  UNL     1      21.057   6.116  10.213  0.00  0.00    +0.000 A 
ATOM     13  N1  UNL     1      21.701   6.653  11.273  0.00  0.00    +0.000 NA
ATOM     14  C2  UNL     1      20.938   7.235  12.223  0.00  0.00    +0.000 A 
ATOM     15  C3  UNL     1      19.556   7.304  12.161  0.00  0.00    +0.000 A 
ATOM     16  C4  UNL     1      18.917   6.747  11.057  0.00  0.00    +0.000 A 
ATOM     17  C5  UNL     1      19.674   6.145  10.048  0.00  0.00    +0.000 A 
ENDBRANCH  11  17
ENDBRANCH   1  11
TORSDOF 3
ENDMDL
MODEL 6
REMARK VINA RESULT:    -4.820      1.789      6.501
REMARK INTER + INTRA:          -5.982
REMARK INTER:                  -5.592
REMARK INTRA:                  -0.390
REMARK UNBOUND:                -0.317
REMARK  Name = /home/anacleto/Desktop/manuscript_Mpro/naturecomm/supplementary_file_S2/6-chemical-library/molecular_docking/3D_ligand_structure/729.pdb
REMARK  3 active torsions:
REMARK  status: ('A' for Active; 'I' for Inactive)
REMARK    1  A    between atoms: C5_6  and  C6_7
REMARK    2  A    between atoms: C6_7  and  C7_8
REMARK    3  A    between atoms: N2_10  and  C8_11
REMARK                            x       y       z     vdW  Elec       q    Type
REMARK                         _______ _______ _______ _____ _____    ______ ____
ROOT
ATOM      1  C7  UNL     1      16.559  12.108  -2.608  0.00  0.00    +0.000 C 
ATOM      2  O1  UNL     1      15.940  13.164  -2.509  0.00  0.00    +0.000 OA
ATOM      3  N2  UNL     1      17.882  11.888  -2.261  0.00  0.00    +0.000 N 
ATOM      4  H7  UNL     1      18.260  10.973  -2.474  0.00  0.00    +0.000 HD
ENDROOT
BRANCH   3   5
ATOM      5  C8  UNL     1      18.789  12.812  -1.704  0.00  0.00    +0.000 A 
ATOM      6  C9  UNL     1      19.721  13.394  -2.574  0.00  0.00    +0.000 A 
ATOM      7  C10 UNL     1      20.662  14.313  -2.101  0.00  0.00    +0.000 A 
ATOM      8  C11 UNL     1      20.682  14.657  -0.752  0.00  0.00    +0.000 A 
ATOM      9  C12 UNL     1      19.763  14.082   0.120  0.00  0.00    +0.000 A 
ATOM     10  C13 UNL     1      18.819  13.163  -0.354  0.00  0.00    +0.000 A 
ENDBRANCH   3   5
BRANCH   1  11
ATOM     11  C6  UNL     1      15.863  10.856  -3.121  0.00  0.00    +0.000 C 
BRANCH  11  17
ATOM     12  C1  UNL     1      13.874  10.799  -4.678  0.00  0.00    +0.000 A 
ATOM     13  N1  UNL     1      13.256  10.924  -5.874  0.00  0.00    +0.000 NA
ATOM     14  C2  UNL     1      14.026  11.271  -6.927  0.00  0.00    +0.000 A 
ATOM     15  C3  UNL     1      15.389  11.501  -6.839  0.00  0.00    +0.000 A 
ATOM     16  C4  UNL     1      16.001  11.369  -5.594  0.00  0.00    +0.000 A 
ATOM     17  C5  UNL     1      15.234  11.021  -4.479  0.00  0.00    +0.000 A 
ENDBRANCH  11  17
ENDBRANCH   1  11
TORSDOF 3
ENDMDL
MODEL 7
REMARK VINA RESULT:    -4.736      1.642      6.263
REMARK INTER + INTRA:          -5.884
REMARK INTER:                  -5.447
REMARK INTRA:                  -0.437
REMARK UNBOUND:                -0.317
REMARK  Name = /home/anacleto/Desktop/manuscript_Mpro/naturecomm/supplementary_file_S2/6-chemical-library/molecular_docking/3D_ligand_structure/729.pdb
REMARK  3 active torsions:
REMARK  status: ('A' for Active; 'I' for Inactive)
REMARK    1  A    between atoms: C5_6  and  C6_7
REMARK    2  A    between atoms: C6_7  and  C7_8
REMARK    3  A    between atoms: N2_10  and  C8_11
REMARK                            x       y       z     vdW  Elec       q    Type
REMARK                         _______ _______ _______ _____ _____    ______ ____
ROOT
ATOM      1  C7  UNL     1      16.670  11.482  -1.906  0.00  0.00    +0.000 C 
ATOM      2  O1  UNL     1      16.054  11.322  -0.856  0.00  0.00    +0.000 OA
ATOM      3  N2  UNL     1      17.620  12.456  -2.168  0.00  0.00    +0.000 N 
ATOM      4  H7  UNL     1      17.983  12.494  -3.113  0.00  0.00    +0.000 HD
ENDROOT
BRANCH   3   5
ATOM      5  C8  UNL     1      18.099  13.448  -1.288  0.00  0.00    +0.000 A 
ATOM      6  C9  UNL     1      19.310  13.188  -0.633  0.00  0.00    +0.000 A 
ATOM      7  C10 UNL     1      19.850  14.115   0.264  0.00  0.00    +0.000 A 
ATOM      8  C11 UNL     1      19.182  15.310   0.516  0.00  0.00    +0.000 A 
ATOM      9  C12 UNL     1      17.977  15.576  -0.128  0.00  0.00    +0.000 A 
ATOM     10  C13 UNL     1      17.437  14.649  -1.027  0.00  0.00    +0.000 A 
ENDBRANCH   3   5
BRANCH   1  11
ATOM     11  C6  UNL     1      16.451  10.536  -3.077  0.00  0.00    +0.000 C 
BRANCH  11  17
ATOM     12  C1  UNL     1      14.527  11.788  -4.132  0.00  0.00    +0.000 A 
ATOM     13  N1  UNL     1      13.866  12.370  -5.156  0.00  0.00    +0.000 NA
ATOM     14  C2  UNL     1      14.457  12.328  -6.369  0.00  0.00    +0.000 A 
ATOM     15  C3  UNL     1      15.684  11.731  -6.605  0.00  0.00    +0.000 A 
ATOM     16  C4  UNL     1      16.348  11.142  -5.531  0.00  0.00    +0.000 A 
ATOM     17  C5  UNL     1      15.771  11.173  -4.258  0.00  0.00    +0.000 A 
ENDBRANCH  11  17
ENDBRANCH   1  11
TORSDOF 3
ENDMDL
MODEL 8
REMARK VINA RESULT:    -4.690     13.885     16.008
REMARK INTER + INTRA:          -5.830
REMARK INTER:                  -5.408
REMARK INTRA:                  -0.422
REMARK UNBOUND:                -0.317
REMARK  Name = /home/anacleto/Desktop/manuscript_Mpro/naturecomm/supplementary_file_S2/6-chemical-library/molecular_docking/3D_ligand_structure/729.pdb
REMARK  3 active torsions:
REMARK  status: ('A' for Active; 'I' for Inactive)
REMARK    1  A    between atoms: C5_6  and  C6_7
REMARK    2  A    between atoms: C6_7  and  C7_8
REMARK    3  A    between atoms: N2_10  and  C8_11
REMARK                            x       y       z     vdW  Elec       q    Type
REMARK                         _______ _______ _______ _____ _____    ______ ____
ROOT
ATOM      1  C7  UNL     1      18.790   3.000  10.302  0.00  0.00    +0.000 C 
ATOM      2  O1  UNL     1      18.825   3.390  11.466  0.00  0.00    +0.000 OA
ATOM      3  N2  UNL     1      19.183   3.710   9.179  0.00  0.00    +0.000 N 
ATOM      4  H7  UNL     1      19.022   3.267   8.283  0.00  0.00    +0.000 HD
ENDROOT
BRANCH   3   5
ATOM      5  C8  UNL     1      19.726   5.010   9.132  0.00  0.00    +0.000 A 
ATOM      6  C9  UNL     1      18.899   6.028   8.637  0.00  0.00    +0.000 A 
ATOM      7  C10 UNL     1      19.363   7.344   8.547  0.00  0.00    +0.000 A 
ATOM      8  C11 UNL     1      20.659   7.654   8.949  0.00  0.00    +0.000 A 
ATOM      9  C12 UNL     1      21.488   6.650   9.439  0.00  0.00    +0.000 A 
ATOM     10  C13 UNL     1      21.024   5.333   9.531  0.00  0.00    +0.000 A 
ENDBRANCH   3   5
BRANCH   1  11
ATOM     11  C6  UNL     1      18.311   1.592   9.977  0.00  0.00    +0.000 C 
BRANCH  11  17
ATOM     12  C1  UNL     1      15.829   2.059  10.030  0.00  0.00    +0.000 A 
ATOM     13  N1  UNL     1      14.572   2.035   9.533  0.00  0.00    +0.000 NA
ATOM     14  C2  UNL     1      14.402   1.457   8.326  0.00  0.00    +0.000 A 
ATOM     15  C3  UNL     1      15.434   0.901   7.588  0.00  0.00    +0.000 A 
ATOM     16  C4  UNL     1      16.721   0.942   8.120  0.00  0.00    +0.000 A 
ATOM     17  C5  UNL     1      16.938   1.541   9.364  0.00  0.00    +0.000 A 
ENDBRANCH  11  17
ENDBRANCH   1  11
TORSDOF 3
ENDMDL
MODEL 9
REMARK VINA RESULT:    -4.665      1.901      6.653
REMARK INTER + INTRA:          -5.800
REMARK INTER:                  -5.483
REMARK INTRA:                  -0.317
REMARK UNBOUND:                -0.317
REMARK  Name = /home/anacleto/Desktop/manuscript_Mpro/naturecomm/supplementary_file_S2/6-chemical-library/molecular_docking/3D_ligand_structure/729.pdb
REMARK  3 active torsions:
REMARK  status: ('A' for Active; 'I' for Inactive)
REMARK    1  A    between atoms: C5_6  and  C6_7
REMARK    2  A    between atoms: C6_7  and  C7_8
REMARK    3  A    between atoms: N2_10  and  C8_11
REMARK                            x       y       z     vdW  Elec       q    Type
REMARK                         _______ _______ _______ _____ _____    ______ ____
ROOT
ATOM      1  C7  UNL     1      15.367  13.332  -2.992  0.00  0.00    +0.000 C 
ATOM      2  O1  UNL     1      15.254  12.222  -2.480  0.00  0.00    +0.000 OA
ATOM      3  N2  UNL     1      16.332  14.283  -2.702  0.00  0.00    +0.000 N 
ATOM      4  H7  UNL     1      16.240  15.179  -3.165  0.00  0.00    +0.000 HD
ENDROOT
BRANCH   3   5
ATOM      5  C8  UNL     1      17.396  14.174  -1.785  0.00  0.00    +0.000 A 
ATOM      6  C9  UNL     1      17.450  15.124  -0.755  0.00  0.00    +0.000 A 
ATOM      7  C10 UNL     1      18.478  15.093   0.191  0.00  0.00    +0.000 A 
ATOM      8  C11 UNL     1      19.465  14.114   0.116  0.00  0.00    +0.000 A 
ATOM      9  C12 UNL     1      19.422  13.168  -0.904  0.00  0.00    +0.000 A 
ATOM     10  C13 UNL     1      18.391  13.197  -1.851  0.00  0.00    +0.000 A 
ENDBRANCH   3   5
BRANCH   1  11
ATOM     11  C6  UNL     1      14.409  13.773  -4.090  0.00  0.00    +0.000 C 
BRANCH  11  17
ATOM     12  C1  UNL     1      13.176  12.003  -5.404  0.00  0.00    +0.000 A 
ATOM     13  N1  UNL     1      13.028  11.108  -6.406  0.00  0.00    +0.000 NA
ATOM     14  C2  UNL     1      14.056  10.987  -7.274  0.00  0.00    +0.000 A 
ATOM     15  C3  UNL     1      15.226  11.722  -7.186  0.00  0.00    +0.000 A 
ATOM     16  C4  UNL     1      15.351  12.640  -6.146  0.00  0.00    +0.000 A 
ATOM     17  C5  UNL     1      14.305  12.800  -5.234  0.00  0.00    +0.000 A 
ENDBRANCH  11  17
ENDBRANCH   1  11
TORSDOF 3
ENDMDL
