MODEL 1
REMARK VINA RESULT:    -5.656      0.000      0.000
REMARK INTER + INTRA:          -8.352
REMARK INTER:                  -7.659
REMARK INTRA:                  -0.693
REMARK UNBOUND:                -0.712
REMARK  Name = /home/anacleto/Desktop/manuscript_Mpro/naturecomm/supplementary_file_S2/6-chemical-library/molecular_docking/3D_ligand_structure/443.pdb
REMARK  6 active torsions:
REMARK  status: ('A' for Active; 'I' for Inactive)
REMARK    1  A    between atoms: C5_6  and  C6_7
REMARK    2  A    between atoms: N2_9  and  C7_10
REMARK    3  A    between atoms: C7_10  and  C8_11
REMARK    4  A    between atoms: N3_13  and  C9_14
REMARK    5  A    between atoms: C9_14  and  C10_15
REMARK    6  A    between atoms: C10_15  and  C11_16
REMARK                            x       y       z     vdW  Elec       q    Type
REMARK                         _______ _______ _______ _____ _____    ______ ____
ROOT
ATOM      1  C8  UNL     1      15.883  10.714  -3.412  0.00  0.00    +0.000 C 
ATOM      2  O2  UNL     1      16.718  10.674  -4.312  0.00  0.00    +0.000 OA
ATOM      3  N3  UNL     1      14.523  10.739  -3.643  0.00  0.00    +0.000 N 
ATOM      4  H8  UNL     1      13.944  10.414  -2.870  0.00  0.00    +0.000 HD
ENDROOT
BRANCH   1   5
ATOM      5  C7  UNL     1      16.285  10.600  -1.935  0.00  0.00    +0.000 C 
BRANCH   5   8
ATOM      6  C6  UNL     1      17.873  12.162  -0.852  0.00  0.00    +0.000 C 
ATOM      7  O1  UNL     1      18.777  11.330  -0.832  0.00  0.00    +0.000 OA
ATOM      8  N2  UNL     1      16.607  11.874  -1.304  0.00  0.00    +0.000 N 
ATOM      9  H5  UNL     1      15.907  12.604  -1.359  0.00  0.00    +0.000 HD
BRANCH   6  15
ATOM     10  C1  UNL     1      19.408  13.893   0.012  0.00  0.00    +0.000 A 
ATOM     11  C2  UNL     1      19.623  15.183   0.459  0.00  0.00    +0.000 A 
ATOM     12  N1  UNL     1      18.649  16.114   0.556  0.00  0.00    +0.000 NA
ATOM     13  C3  UNL     1      17.400  15.738   0.208  0.00  0.00    +0.000 A 
ATOM     14  C4  UNL     1      17.079  14.475  -0.257  0.00  0.00    +0.000 A 
ATOM     15  C5  UNL     1      18.111  13.542  -0.367  0.00  0.00    +0.000 A 
ENDBRANCH   6  15
ENDBRANCH   5   8
ENDBRANCH   1   5
BRANCH   3  16
ATOM     16  C9  UNL     1      13.975  10.643  -4.983  0.00  0.00    +0.000 C 
BRANCH  16  17
ATOM     17  C10 UNL     1      13.467  11.987  -5.516  0.00  0.00    +0.000 C 
BRANCH  17  18
ATOM     18  C11 UNL     1      14.603  12.871  -5.969  0.00  0.00    +0.000 A 
ATOM     19  C12 UNL     1      15.072  13.907  -5.148  0.00  0.00    +0.000 A 
ATOM     20  C13 UNL     1      16.103  14.740  -5.585  0.00  0.00    +0.000 A 
ATOM     21  C14 UNL     1      16.673  14.547  -6.842  0.00  0.00    +0.000 A 
ATOM     22  C15 UNL     1      16.212  13.520  -7.666  0.00  0.00    +0.000 A 
ATOM     23  C16 UNL     1      15.180  12.689  -7.232  0.00  0.00    +0.000 A 
ENDBRANCH  17  18
ENDBRANCH  16  17
ENDBRANCH   3  16
TORSDOF 6
ENDMDL
MODEL 2
REMARK VINA RESULT:    -5.600      5.841      7.444
REMARK INTER + INTRA:          -8.276
REMARK INTER:                  -7.732
REMARK INTRA:                  -0.544
REMARK UNBOUND:                -0.712
REMARK  Name = /home/anacleto/Desktop/manuscript_Mpro/naturecomm/supplementary_file_S2/6-chemical-library/molecular_docking/3D_ligand_structure/443.pdb
REMARK  6 active torsions:
REMARK  status: ('A' for Active; 'I' for Inactive)
REMARK    1  A    between atoms: C5_6  and  C6_7
REMARK    2  A    between atoms: N2_9  and  C7_10
REMARK    3  A    between atoms: C7_10  and  C8_11
REMARK    4  A    between atoms: N3_13  and  C9_14
REMARK    5  A    between atoms: C9_14  and  C10_15
REMARK    6  A    between atoms: C10_15  and  C11_16
REMARK                            x       y       z     vdW  Elec       q    Type
REMARK                         _______ _______ _______ _____ _____    ______ ____
ROOT
ATOM      1  C8  UNL     1      13.780  16.384  -2.126  0.00  0.00    +0.000 C 
ATOM      2  O2  UNL     1      14.925  16.588  -1.732  0.00  0.00    +0.000 OA
ATOM      3  N3  UNL     1      13.416  15.259  -2.838  0.00  0.00    +0.000 N 
ATOM      4  H8  UNL     1      12.425  15.020  -2.797  0.00  0.00    +0.000 HD
ENDROOT
BRANCH   1   5
ATOM      5  C7  UNL     1      12.617  17.307  -1.737  0.00  0.00    +0.000 C 
BRANCH   5   8
ATOM      6  C6  UNL     1      12.757  19.354  -3.125  0.00  0.00    +0.000 C 
ATOM      7  O1  UNL     1      13.650  19.838  -2.436  0.00  0.00    +0.000 OA
ATOM      8  N2  UNL     1      12.144  18.160  -2.820  0.00  0.00    +0.000 N 
ATOM      9  H5  UNL     1      11.453  17.767  -3.446  0.00  0.00    +0.000 HD
BRANCH   6  15
ATOM     10  C1  UNL     1      12.955  21.211  -4.742  0.00  0.00    +0.000 A 
ATOM     11  C2  UNL     1      12.507  21.858  -5.877  0.00  0.00    +0.000 A 
ATOM     12  N1  UNL     1      11.451  21.441  -6.609  0.00  0.00    +0.000 NA
ATOM     13  C3  UNL     1      10.801  20.339  -6.181  0.00  0.00    +0.000 A 
ATOM     14  C4  UNL     1      11.171  19.614  -5.062  0.00  0.00    +0.000 A 
ATOM     15  C5  UNL     1      12.279  20.057  -4.340  0.00  0.00    +0.000 A 
ENDBRANCH   6  15
ENDBRANCH   5   8
ENDBRANCH   1   5
BRANCH   3  16
ATOM     16  C9  UNL     1      14.357  14.190  -3.109  0.00  0.00    +0.000 C 
BRANCH  16  17
ATOM     17  C10 UNL     1      15.002  14.302  -4.495  0.00  0.00    +0.000 C 
BRANCH  17  18
ATOM     18  C11 UNL     1      14.620  13.142  -5.382  0.00  0.00    +0.000 A 
ATOM     19  C12 UNL     1      15.383  12.831  -6.517  0.00  0.00    +0.000 A 
ATOM     20  C13 UNL     1      15.008  11.775  -7.349  0.00  0.00    +0.000 A 
ATOM     21  C14 UNL     1      13.870  11.025  -7.058  0.00  0.00    +0.000 A 
ATOM     22  C15 UNL     1      13.104  11.329  -5.933  0.00  0.00    +0.000 A 
ATOM     23  C16 UNL     1      13.476  12.385  -5.102  0.00  0.00    +0.000 A 
ENDBRANCH  17  18
ENDBRANCH  16  17
ENDBRANCH   3  16
TORSDOF 6
ENDMDL
MODEL 3
REMARK VINA RESULT:    -5.575      5.310      6.791
REMARK INTER + INTRA:          -8.242
REMARK INTER:                  -7.876
REMARK INTRA:                  -0.366
REMARK UNBOUND:                -0.712
REMARK  Name = /home/anacleto/Desktop/manuscript_Mpro/naturecomm/supplementary_file_S2/6-chemical-library/molecular_docking/3D_ligand_structure/443.pdb
REMARK  6 active torsions:
REMARK  status: ('A' for Active; 'I' for Inactive)
REMARK    1  A    between atoms: C5_6  and  C6_7
REMARK    2  A    between atoms: N2_9  and  C7_10
REMARK    3  A    between atoms: C7_10  and  C8_11
REMARK    4  A    between atoms: N3_13  and  C9_14
REMARK    5  A    between atoms: C9_14  and  C10_15
REMARK    6  A    between atoms: C10_15  and  C11_16
REMARK                            x       y       z     vdW  Elec       q    Type
REMARK                         _______ _______ _______ _____ _____    ______ ____
ROOT
ATOM      1  C8  UNL     1      18.360  10.478  -4.090  0.00  0.00    +0.000 C 
ATOM      2  O2  UNL     1      18.828  11.437  -3.480  0.00  0.00    +0.000 OA
ATOM      3  N3  UNL     1      17.131   9.923  -3.796  0.00  0.00    +0.000 N 
ATOM      4  H8  UNL     1      16.696   9.401  -4.556  0.00  0.00    +0.000 HD
ENDROOT
BRANCH   1   5
ATOM      5  C7  UNL     1      19.051   9.898  -5.331  0.00  0.00    +0.000 C 
BRANCH   5   8
ATOM      6  C6  UNL     1      20.862   8.350  -6.007  0.00  0.00    +0.000 C 
ATOM      7  O1  UNL     1      20.407   8.210  -7.139  0.00  0.00    +0.000 OA
ATOM      8  N2  UNL     1      20.231   9.094  -5.038  0.00  0.00    +0.000 N 
ATOM      9  H5  UNL     1      20.667   9.233  -4.135  0.00  0.00    +0.000 HD
BRANCH   6  15
ATOM     10  C1  UNL     1      22.300   7.305  -4.292  0.00  0.00    +0.000 A 
ATOM     11  C2  UNL     1      23.487   6.693  -3.941  0.00  0.00    +0.000 A 
ATOM     12  N1  UNL     1      24.496   6.463  -4.810  0.00  0.00    +0.000 NA
ATOM     13  C3  UNL     1      24.320   6.877  -6.082  0.00  0.00    +0.000 A 
ATOM     14  C4  UNL     1      23.168   7.493  -6.538  0.00  0.00    +0.000 A 
ATOM     15  C5  UNL     1      22.135   7.696  -5.622  0.00  0.00    +0.000 A 
ENDBRANCH   6  15
ENDBRANCH   5   8
ENDBRANCH   1   5
BRANCH   3  16
ATOM     16  C9  UNL     1      16.261  10.488  -2.781  0.00  0.00    +0.000 C 
BRANCH  16  17
ATOM     17  C10 UNL     1      15.461  11.692  -3.288  0.00  0.00    +0.000 C 
BRANCH  17  18
ATOM     18  C11 UNL     1      14.930  11.462  -4.681  0.00  0.00    +0.000 A 
ATOM     19  C12 UNL     1      15.521  12.094  -5.784  0.00  0.00    +0.000 A 
ATOM     20  C13 UNL     1      15.006  11.900  -7.067  0.00  0.00    +0.000 A 
ATOM     21  C14 UNL     1      13.899  11.076  -7.259  0.00  0.00    +0.000 A 
ATOM     22  C15 UNL     1      13.304  10.444  -6.168  0.00  0.00    +0.000 A 
ATOM     23  C16 UNL     1      13.814  10.639  -4.886  0.00  0.00    +0.000 A 
ENDBRANCH  17  18
ENDBRANCH  16  17
ENDBRANCH   3  16
TORSDOF 6
ENDMDL
MODEL 4
REMARK VINA RESULT:    -5.511      2.247      6.474
REMARK INTER + INTRA:          -8.156
REMARK INTER:                  -6.474
REMARK INTRA:                  -1.682
REMARK UNBOUND:                -0.712
REMARK  Name = /home/anacleto/Desktop/manuscript_Mpro/naturecomm/supplementary_file_S2/6-chemical-library/molecular_docking/3D_ligand_structure/443.pdb
REMARK  6 active torsions:
REMARK  status: ('A' for Active; 'I' for Inactive)
REMARK    1  A    between atoms: C5_6  and  C6_7
REMARK    2  A    between atoms: N2_9  and  C7_10
REMARK    3  A    between atoms: C7_10  and  C8_11
REMARK    4  A    between atoms: N3_13  and  C9_14
REMARK    5  A    between atoms: C9_14  and  C10_15
REMARK    6  A    between atoms: C10_15  and  C11_16
REMARK                            x       y       z     vdW  Elec       q    Type
REMARK                         _______ _______ _______ _____ _____    ______ ____
ROOT
ATOM      1  C8  UNL     1      16.599  15.720  -1.538  0.00  0.00    +0.000 C 
ATOM      2  O2  UNL     1      15.778  15.656  -0.627  0.00  0.00    +0.000 OA
ATOM      3  N3  UNL     1      17.866  15.180  -1.453  0.00  0.00    +0.000 N 
ATOM      4  H8  UNL     1      18.312  14.973  -2.347  0.00  0.00    +0.000 HD
ENDROOT
BRANCH   1   5
ATOM      5  C7  UNL     1      16.232  16.294  -2.914  0.00  0.00    +0.000 C 
BRANCH   5   8
ATOM      6  C6  UNL     1      16.256  14.417  -4.529  0.00  0.00    +0.000 C 
ATOM      7  O1  UNL     1      17.482  14.401  -4.591  0.00  0.00    +0.000 OA
ATOM      8  N2  UNL     1      15.559  15.348  -3.796  0.00  0.00    +0.000 N 
ATOM      9  H5  UNL     1      14.551  15.291  -3.723  0.00  0.00    +0.000 HD
BRANCH   6  15
ATOM     10  C1  UNL     1      14.200  13.067  -4.762  0.00  0.00    +0.000 A 
ATOM     11  C2  UNL     1      13.455  12.136  -5.459  0.00  0.00    +0.000 A 
ATOM     12  N1  UNL     1      13.877  11.541  -6.597  0.00  0.00    +0.000 NA
ATOM     13  C3  UNL     1      15.104  11.876  -7.050  0.00  0.00    +0.000 A 
ATOM     14  C4  UNL     1      15.926  12.801  -6.431  0.00  0.00    +0.000 A 
ATOM     15  C5  UNL     1      15.453  13.415  -5.270  0.00  0.00    +0.000 A 
ENDBRANCH   6  15
ENDBRANCH   5   8
ENDBRANCH   1   5
BRANCH   3  16
ATOM     16  C9  UNL     1      18.297  14.424  -0.294  0.00  0.00    +0.000 C 
BRANCH  16  17
ATOM     17  C10 UNL     1      18.944  13.084  -0.664  0.00  0.00    +0.000 C 
BRANCH  17  18
ATOM     18  C11 UNL     1      17.990  12.197  -1.424  0.00  0.00    +0.000 A 
ATOM     19  C12 UNL     1      18.358  11.647  -2.660  0.00  0.00    +0.000 A 
ATOM     20  C13 UNL     1      17.460  10.851  -3.373  0.00  0.00    +0.000 A 
ATOM     21  C14 UNL     1      16.189  10.599  -2.860  0.00  0.00    +0.000 A 
ATOM     22  C15 UNL     1      15.813  11.144  -1.632  0.00  0.00    +0.000 A 
ATOM     23  C16 UNL     1      16.708  11.942  -0.921  0.00  0.00    +0.000 A 
ENDBRANCH  17  18
ENDBRANCH  16  17
ENDBRANCH   3  16
TORSDOF 6
ENDMDL
MODEL 5
REMARK VINA RESULT:    -5.505      1.817      7.060
REMARK INTER + INTRA:          -8.148
REMARK INTER:                  -7.497
REMARK INTRA:                  -0.650
REMARK UNBOUND:                -0.712
REMARK  Name = /home/anacleto/Desktop/manuscript_Mpro/naturecomm/supplementary_file_S2/6-chemical-library/molecular_docking/3D_ligand_structure/443.pdb
REMARK  6 active torsions:
REMARK  status: ('A' for Active; 'I' for Inactive)
REMARK    1  A    between atoms: C5_6  and  C6_7
REMARK    2  A    between atoms: N2_9  and  C7_10
REMARK    3  A    between atoms: C7_10  and  C8_11
REMARK    4  A    between atoms: N3_13  and  C9_14
REMARK    5  A    between atoms: C9_14  and  C10_15
REMARK    6  A    between atoms: C10_15  and  C11_16
REMARK                            x       y       z     vdW  Elec       q    Type
REMARK                         _______ _______ _______ _____ _____    ______ ____
ROOT
ATOM      1  C8  UNL     1      17.503  11.554  -1.127  0.00  0.00    +0.000 C 
ATOM      2  O2  UNL     1      18.342  10.700  -1.400  0.00  0.00    +0.000 OA
ATOM      3  N3  UNL     1      17.820  12.878  -0.900  0.00  0.00    +0.000 N 
ATOM      4  H8  UNL     1      17.056  13.539  -1.040  0.00  0.00    +0.000 HD
ENDROOT
BRANCH   1   5
ATOM      5  C7  UNL     1      16.000  11.244  -1.150  0.00  0.00    +0.000 C 
BRANCH   5   8
ATOM      6  C6  UNL     1      15.159  12.095  -3.318  0.00  0.00    +0.000 C 
ATOM      7  O1  UNL     1      15.216  13.266  -2.954  0.00  0.00    +0.000 OA
ATOM      8  N2  UNL     1      15.452  11.041  -2.485  0.00  0.00    +0.000 N 
ATOM      9  H5  UNL     1      15.450  10.093  -2.841  0.00  0.00    +0.000 HD
BRANCH   6  15
ATOM     10  C1  UNL     1      13.768  10.782  -4.881  0.00  0.00    +0.000 A 
ATOM     11  C2  UNL     1      13.389  10.475  -6.174  0.00  0.00    +0.000 A 
ATOM     12  N1  UNL     1      13.923  11.060  -7.269  0.00  0.00    +0.000 NA
ATOM     13  C3  UNL     1      14.890  11.980  -7.066  0.00  0.00    +0.000 A 
ATOM     14  C4  UNL     1      15.337  12.363  -5.814  0.00  0.00    +0.000 A 
ATOM     15  C5  UNL     1      14.750  11.758  -4.703  0.00  0.00    +0.000 A 
ENDBRANCH   6  15
ENDBRANCH   5   8
ENDBRANCH   1   5
BRANCH   3  16
ATOM     16  C9  UNL     1      19.175  13.374  -1.043  0.00  0.00    +0.000 C 
BRANCH  16  17
ATOM     17  C10 UNL     1      19.673  14.113   0.204  0.00  0.00    +0.000 C 
BRANCH  17  18
ATOM     18  C11 UNL     1      19.288  15.571   0.178  0.00  0.00    +0.000 A 
ATOM     19  C12 UNL     1      19.781  16.422  -0.821  0.00  0.00    +0.000 A 
ATOM     20  C13 UNL     1      19.445  17.777  -0.822  0.00  0.00    +0.000 A 
ATOM     21  C14 UNL     1      18.617  18.292   0.173  0.00  0.00    +0.000 A 
ATOM     22  C15 UNL     1      18.123  17.454   1.172  0.00  0.00    +0.000 A 
ATOM     23  C16 UNL     1      18.461  16.102   1.176  0.00  0.00    +0.000 A 
ENDBRANCH  17  18
ENDBRANCH  16  17
ENDBRANCH   3  16
TORSDOF 6
ENDMDL
MODEL 6
REMARK VINA RESULT:    -5.405      3.567      5.845
REMARK INTER + INTRA:          -8.012
REMARK INTER:                  -7.011
REMARK INTRA:                  -1.001
REMARK UNBOUND:                -0.712
REMARK  Name = /home/anacleto/Desktop/manuscript_Mpro/naturecomm/supplementary_file_S2/6-chemical-library/molecular_docking/3D_ligand_structure/443.pdb
REMARK  6 active torsions:
REMARK  status: ('A' for Active; 'I' for Inactive)
REMARK    1  A    between atoms: C5_6  and  C6_7
REMARK    2  A    between atoms: N2_9  and  C7_10
REMARK    3  A    between atoms: C7_10  and  C8_11
REMARK    4  A    between atoms: N3_13  and  C9_14
REMARK    5  A    between atoms: C9_14  and  C10_15
REMARK    6  A    between atoms: C10_15  and  C11_16
REMARK                            x       y       z     vdW  Elec       q    Type
REMARK                         _______ _______ _______ _____ _____    ______ ____
ROOT
ATOM      1  C8  UNL     1      16.606  11.201  -2.605  0.00  0.00    +0.000 C 
ATOM      2  O2  UNL     1      15.620  10.613  -2.170  0.00  0.00    +0.000 OA
ATOM      3  N3  UNL     1      16.572  12.507  -3.049  0.00  0.00    +0.000 N 
ATOM      4  H8  UNL     1      17.468  12.993  -3.041  0.00  0.00    +0.000 HD
ENDROOT
BRANCH   1   5
ATOM      5  C7  UNL     1      18.005  10.570  -2.563  0.00  0.00    +0.000 C 
BRANCH   5   8
ATOM      6  C6  UNL     1      18.983  10.557  -4.838  0.00  0.00    +0.000 C 
ATOM      7  O1  UNL     1      19.111  11.778  -4.859  0.00  0.00    +0.000 OA
ATOM      8  N2  UNL     1      18.390   9.889  -3.792  0.00  0.00    +0.000 N 
ATOM      9  H5  UNL     1      18.357   8.877  -3.786  0.00  0.00    +0.000 HD
BRANCH   6  15
ATOM     10  C1  UNL     1      18.720   9.733  -7.151  0.00  0.00    +0.000 A 
ATOM     11  C2  UNL     1      19.177   8.964  -8.204  0.00  0.00    +0.000 A 
ATOM     12  N1  UNL     1      20.295   8.207  -8.148  0.00  0.00    +0.000 NA
ATOM     13  C3  UNL     1      20.978   8.202  -6.984  0.00  0.00    +0.000 A 
ATOM     14  C4  UNL     1      20.611   8.941  -5.874  0.00  0.00    +0.000 A 
ATOM     15  C5  UNL     1      19.465   9.731  -5.971  0.00  0.00    +0.000 A 
ENDBRANCH   6  15
ENDBRANCH   5   8
ENDBRANCH   1   5
BRANCH   3  16
ATOM     16  C9  UNL     1      15.368  13.311  -2.962  0.00  0.00    +0.000 C 
BRANCH  16  17
ATOM     17  C10 UNL     1      14.972  13.937  -4.304  0.00  0.00    +0.000 C 
BRANCH  17  18
ATOM     18  C11 UNL     1      14.649  12.884  -5.335  0.00  0.00    +0.000 A 
ATOM     19  C12 UNL     1      15.520  12.645  -6.408  0.00  0.00    +0.000 A 
ATOM     20  C13 UNL     1      15.201  11.691  -7.375  0.00  0.00    +0.000 A 
ATOM     21  C14 UNL     1      14.012  10.969  -7.280  0.00  0.00    +0.000 A 
ATOM     22  C15 UNL     1      13.140  11.202  -6.218  0.00  0.00    +0.000 A 
ATOM     23  C16 UNL     1      13.455  12.157  -5.253  0.00  0.00    +0.000 A 
ENDBRANCH  17  18
ENDBRANCH  16  17
ENDBRANCH   3  16
TORSDOF 6
ENDMDL
MODEL 7
REMARK VINA RESULT:    -5.366     14.740     17.168
REMARK INTER + INTRA:          -7.960
REMARK INTER:                  -7.251
REMARK INTRA:                  -0.710
REMARK UNBOUND:                -0.712
REMARK  Name = /home/anacleto/Desktop/manuscript_Mpro/naturecomm/supplementary_file_S2/6-chemical-library/molecular_docking/3D_ligand_structure/443.pdb
REMARK  6 active torsions:
REMARK  status: ('A' for Active; 'I' for Inactive)
REMARK    1  A    between atoms: C5_6  and  C6_7
REMARK    2  A    between atoms: N2_9  and  C7_10
REMARK    3  A    between atoms: C7_10  and  C8_11
REMARK    4  A    between atoms: N3_13  and  C9_14
REMARK    5  A    between atoms: C9_14  and  C10_15
REMARK    6  A    between atoms: C10_15  and  C11_16
REMARK                            x       y       z     vdW  Elec       q    Type
REMARK                         _______ _______ _______ _____ _____    ______ ____
ROOT
ATOM      1  C8  UNL     1      16.499   5.731  13.594  0.00  0.00    +0.000 C 
ATOM      2  O2  UNL     1      16.365   6.503  14.540  0.00  0.00    +0.000 OA
ATOM      3  N3  UNL     1      17.600   5.738  12.762  0.00  0.00    +0.000 N 
ATOM      4  H8  UNL     1      17.776   4.865  12.267  0.00  0.00    +0.000 HD
ENDROOT
BRANCH   1   5
ATOM      5  C7  UNL     1      15.503   4.590  13.339  0.00  0.00    +0.000 C 
BRANCH   5   8
ATOM      6  C6  UNL     1      14.719   3.431  11.296  0.00  0.00    +0.000 C 
ATOM      7  O1  UNL     1      13.537   3.537  11.612  0.00  0.00    +0.000 OA
ATOM      8  N2  UNL     1      15.747   3.850  12.107  0.00  0.00    +0.000 N 
ATOM      9  H5  UNL     1      16.705   3.798  11.784  0.00  0.00    +0.000 HD
BRANCH   6  15
ATOM     10  C1  UNL     1      14.289   1.806   9.486  0.00  0.00    +0.000 A 
ATOM     11  C2  UNL     1      14.646   1.245   8.275  0.00  0.00    +0.000 A 
ATOM     12  N1  UNL     1      15.737   1.619   7.570  0.00  0.00    +0.000 NA
ATOM     13  C3  UNL     1      16.516   2.583   8.105  0.00  0.00    +0.000 A 
ATOM     14  C4  UNL     1      16.244   3.213   9.306  0.00  0.00    +0.000 A 
ATOM     15  C5  UNL     1      15.098   2.821   9.999  0.00  0.00    +0.000 A 
ENDBRANCH   6  15
ENDBRANCH   5   8
ENDBRANCH   1   5
BRANCH   3  16
ATOM     16  C9  UNL     1      18.727   6.621  12.996  0.00  0.00    +0.000 C 
BRANCH  16  17
ATOM     17  C10 UNL     1      18.928   7.640  11.869  0.00  0.00    +0.000 C 
BRANCH  17  18
ATOM     18  C11 UNL     1      19.589   7.015  10.665  0.00  0.00    +0.000 A 
ATOM     19  C12 UNL     1      18.907   6.924   9.443  0.00  0.00    +0.000 A 
ATOM     20  C13 UNL     1      19.513   6.318   8.342  0.00  0.00    +0.000 A 
ATOM     21  C14 UNL     1      20.802   5.798   8.451  0.00  0.00    +0.000 A 
ATOM     22  C15 UNL     1      21.486   5.882   9.662  0.00  0.00    +0.000 A 
ATOM     23  C16 UNL     1      20.881   6.484  10.765  0.00  0.00    +0.000 A 
ENDBRANCH  17  18
ENDBRANCH  16  17
ENDBRANCH   3  16
TORSDOF 6
ENDMDL
MODEL 8
REMARK VINA RESULT:    -5.311      5.665      7.162
REMARK INTER + INTRA:          -7.886
REMARK INTER:                  -7.349
REMARK INTRA:                  -0.537
REMARK UNBOUND:                -0.712
REMARK  Name = /home/anacleto/Desktop/manuscript_Mpro/naturecomm/supplementary_file_S2/6-chemical-library/molecular_docking/3D_ligand_structure/443.pdb
REMARK  6 active torsions:
REMARK  status: ('A' for Active; 'I' for Inactive)
REMARK    1  A    between atoms: C5_6  and  C6_7
REMARK    2  A    between atoms: N2_9  and  C7_10
REMARK    3  A    between atoms: C7_10  and  C8_11
REMARK    4  A    between atoms: N3_13  and  C9_14
REMARK    5  A    between atoms: C9_14  and  C10_15
REMARK    6  A    between atoms: C10_15  and  C11_16
REMARK                            x       y       z     vdW  Elec       q    Type
REMARK                         _______ _______ _______ _____ _____    ______ ____
ROOT
ATOM      1  C8  UNL     1      18.526  10.186  -6.795  0.00  0.00    +0.000 C 
ATOM      2  O2  UNL     1      18.359  10.273  -5.582  0.00  0.00    +0.000 OA
ATOM      3  N3  UNL     1      18.184  11.190  -7.679  0.00  0.00    +0.000 N 
ATOM      4  H8  UNL     1      18.677  11.171  -8.571  0.00  0.00    +0.000 HD
ENDROOT
BRANCH   1   5
ATOM      5  C7  UNL     1      19.262   8.995  -7.425  0.00  0.00    +0.000 C 
BRANCH   5   8
ATOM      6  C6  UNL     1      21.514   8.078  -6.953  0.00  0.00    +0.000 C 
ATOM      7  O1  UNL     1      21.888   8.227  -8.113  0.00  0.00    +0.000 OA
ATOM      8  N2  UNL     1      20.231   8.357  -6.542  0.00  0.00    +0.000 N 
ATOM      9  H5  UNL     1      19.979   8.278  -5.565  0.00  0.00    +0.000 HD
BRANCH   6  15
ATOM     10  C1  UNL     1      21.983   7.453  -4.610  0.00  0.00    +0.000 A 
ATOM     11  C2  UNL     1      22.858   6.973  -3.654  0.00  0.00    +0.000 A 
ATOM     12  N1  UNL     1      24.136   6.621  -3.918  0.00  0.00    +0.000 NA
ATOM     13  C3  UNL     1      24.566   6.771  -5.189  0.00  0.00    +0.000 A 
ATOM     14  C4  UNL     1      23.769   7.235  -6.221  0.00  0.00    +0.000 A 
ATOM     15  C5  UNL     1      22.448   7.569  -5.921  0.00  0.00    +0.000 A 
ENDBRANCH   6  15
ENDBRANCH   5   8
ENDBRANCH   1   5
BRANCH   3  16
ATOM     16  C9  UNL     1      17.667  12.465  -7.221  0.00  0.00    +0.000 C 
BRANCH  16  17
ATOM     17  C10 UNL     1      16.214  12.705  -7.647  0.00  0.00    +0.000 C 
BRANCH  17  18
ATOM     18  C11 UNL     1      15.244  11.980  -6.748  0.00  0.00    +0.000 A 
ATOM     19  C12 UNL     1      15.429  11.970  -5.358  0.00  0.00    +0.000 A 
ATOM     20  C13 UNL     1      14.545  11.273  -4.534  0.00  0.00    +0.000 A 
ATOM     21  C14 UNL     1      13.470  10.580  -5.089  0.00  0.00    +0.000 A 
ATOM     22  C15 UNL     1      13.279  10.582  -6.470  0.00  0.00    +0.000 A 
ATOM     23  C16 UNL     1      14.164  11.275  -7.295  0.00  0.00    +0.000 A 
ENDBRANCH  17  18
ENDBRANCH  16  17
ENDBRANCH   3  16
TORSDOF 6
ENDMDL
MODEL 9
REMARK VINA RESULT:    -5.264      3.068      3.877
REMARK INTER + INTRA:          -7.822
REMARK INTER:                  -7.110
REMARK INTRA:                  -0.712
REMARK UNBOUND:                -0.712
REMARK  Name = /home/anacleto/Desktop/manuscript_Mpro/naturecomm/supplementary_file_S2/6-chemical-library/molecular_docking/3D_ligand_structure/443.pdb
REMARK  6 active torsions:
REMARK  status: ('A' for Active; 'I' for Inactive)
REMARK    1  A    between atoms: C5_6  and  C6_7
REMARK    2  A    between atoms: N2_9  and  C7_10
REMARK    3  A    between atoms: C7_10  and  C8_11
REMARK    4  A    between atoms: N3_13  and  C9_14
REMARK    5  A    between atoms: C9_14  and  C10_15
REMARK    6  A    between atoms: C10_15  and  C11_16
REMARK                            x       y       z     vdW  Elec       q    Type
REMARK                         _______ _______ _______ _____ _____    ______ ____
ROOT
ATOM      1  C8  UNL     1      15.642  11.144  -3.089  0.00  0.00    +0.000 C 
ATOM      2  O2  UNL     1      14.735  11.865  -3.494  0.00  0.00    +0.000 OA
ATOM      3  N3  UNL     1      16.587  10.578  -3.921  0.00  0.00    +0.000 N 
ATOM      4  H8  UNL     1      17.462  10.316  -3.471  0.00  0.00    +0.000 HD
ENDROOT
BRANCH   1   5
ATOM      5  C7  UNL     1      15.884  10.917  -1.590  0.00  0.00    +0.000 C 
BRANCH   5   8
ATOM      6  C6  UNL     1      17.839  12.318  -1.000  0.00  0.00    +0.000 C 
ATOM      7  O1  UNL     1      18.630  11.560  -1.555  0.00  0.00    +0.000 OA
ATOM      8  N2  UNL     1      16.493  12.050  -0.905  0.00  0.00    +0.000 N 
ATOM      9  H5  UNL     1      15.866  12.729  -0.492  0.00  0.00    +0.000 HD
BRANCH   6  15
ATOM     10  C1  UNL     1      17.404  14.633  -0.256  0.00  0.00    +0.000 A 
ATOM     11  C2  UNL     1      17.852  15.805   0.323  0.00  0.00    +0.000 A 
ATOM     12  N1  UNL     1      19.117  15.988   0.760  0.00  0.00    +0.000 NA
ATOM     13  C3  UNL     1      19.980  14.964   0.597  0.00  0.00    +0.000 A 
ATOM     14  C4  UNL     1      19.633  13.747   0.036  0.00  0.00    +0.000 A 
ATOM     15  C5  UNL     1      18.313  13.581  -0.384  0.00  0.00    +0.000 A 
ENDBRANCH   6  15
ENDBRANCH   5   8
ENDBRANCH   1   5
BRANCH   3  16
ATOM     16  C9  UNL     1      16.618  10.863  -5.343  0.00  0.00    +0.000 C 
BRANCH  16  17
ATOM     17  C10 UNL     1      17.973  11.407  -5.811  0.00  0.00    +0.000 C 
BRANCH  17  18
ATOM     18  C11 UNL     1      18.900  10.297  -6.240  0.00  0.00    +0.000 A 
ATOM     19  C12 UNL     1      18.704   9.634  -7.460  0.00  0.00    +0.000 A 
ATOM     20  C13 UNL     1      19.547   8.589  -7.838  0.00  0.00    +0.000 A 
ATOM     21  C14 UNL     1      20.591   8.196  -7.002  0.00  0.00    +0.000 A 
ATOM     22  C15 UNL     1      20.793   8.847  -5.786  0.00  0.00    +0.000 A 
ATOM     23  C16 UNL     1      19.949   9.890  -5.406  0.00  0.00    +0.000 A 
ENDBRANCH  17  18
ENDBRANCH  16  17
ENDBRANCH   3  16
TORSDOF 6
ENDMDL
