MODEL 1
REMARK VINA RESULT:    -5.489      0.000      0.000
REMARK INTER + INTRA:          -6.827
REMARK INTER:                  -6.540
REMARK INTRA:                  -0.287
REMARK UNBOUND:                -0.375
REMARK  Name = /home/anacleto/Desktop/manuscript_Mpro/naturecomm/supplementary_file_S2/6-chemical-library/molecular_docking/3D_ligand_structure/552.pdb
REMARK  3 active torsions:
REMARK  status: ('A' for Active; 'I' for Inactive)
REMARK    1  A    between atoms: C4_8  and  C5_9
REMARK    2  A    between atoms: N3_11  and  C6_12
REMARK    3  A    between atoms: C6_12  and  C7_13
REMARK                            x       y       z     vdW  Elec       q    Type
REMARK                         _______ _______ _______ _____ _____    ______ ____
ROOT
ATOM      1  C5  UNL     1      18.360   3.848   9.167  0.00  0.00    +0.000 C 
ATOM      2  O3  UNL     1      19.012   2.856   9.483  0.00  0.00    +0.000 OA
ATOM      3  N3  UNL     1      17.194   3.788   8.451  0.00  0.00    +0.000 N 
ATOM      4  H4  UNL     1      16.580   4.590   8.407  0.00  0.00    +0.000 HD
ENDROOT
BRANCH   1  12
ATOM      5  N1  UNL     1      18.727   5.434  10.983  0.00  0.00    +0.000 N 
ATOM      6  C1  UNL     1      19.109   6.595  11.585  0.00  0.00    +0.000 A 
ATOM      7  O1  UNL     1      19.037   6.760  12.797  0.00  0.00    +0.000 OA
ATOM      8  N2  UNL     1      19.575   7.565  10.745  0.00  0.00    +0.000 N 
ATOM      9  C2  UNL     1      19.712   7.432   9.394  0.00  0.00    +0.000 A 
ATOM     10  O2  UNL     1      20.155   8.321   8.677  0.00  0.00    +0.000 OA
ATOM     11  C3  UNL     1      19.292   6.143   8.814  0.00  0.00    +0.000 A 
ATOM     12  C4  UNL     1      18.802   5.206   9.631  0.00  0.00    +0.000 A 
ATOM     13  H1  UNL     1      18.398   4.680  11.582  0.00  0.00    +0.000 HD
ATOM     14  H2  UNL     1      19.869   8.433  11.164  0.00  0.00    +0.000 HD
ENDBRANCH   1  12
BRANCH   3  15
ATOM     15  C6  UNL     1      16.641   2.508   8.069  0.00  0.00    +0.000 C 
BRANCH  15  16
ATOM     16  C7  UNL     1      15.356   2.245   8.792  0.00  0.00    +0.000 A 
ATOM     17  C8  UNL     1      14.324   1.504   8.210  0.00  0.00    +0.000 A 
ATOM     18  C9  UNL     1      13.159   1.260   8.932  0.00  0.00    +0.000 A 
ATOM     19  C10 UNL     1      13.068   1.759  10.220  0.00  0.00    +0.000 A 
ATOM     20  N4  UNL     1      14.047   2.468  10.820  0.00  0.00    +0.000 NA
ATOM     21  C11 UNL     1      15.166   2.695  10.095  0.00  0.00    +0.000 A 
ENDBRANCH  15  16
ENDBRANCH   3  15
TORSDOF 3
ENDMDL
MODEL 2
REMARK VINA RESULT:    -5.478     13.639     14.634
REMARK INTER + INTRA:          -6.814
REMARK INTER:                  -6.473
REMARK INTRA:                  -0.341
REMARK UNBOUND:                -0.375
REMARK  Name = /home/anacleto/Desktop/manuscript_Mpro/naturecomm/supplementary_file_S2/6-chemical-library/molecular_docking/3D_ligand_structure/552.pdb
REMARK  3 active torsions:
REMARK  status: ('A' for Active; 'I' for Inactive)
REMARK    1  A    between atoms: C4_8  and  C5_9
REMARK    2  A    between atoms: N3_11  and  C6_12
REMARK    3  A    between atoms: C6_12  and  C7_13
REMARK                            x       y       z     vdW  Elec       q    Type
REMARK                         _______ _______ _______ _____ _____    ______ ____
ROOT
ATOM      1  C5  UNL     1      18.124  13.049  -0.910  0.00  0.00    +0.000 C 
ATOM      2  O3  UNL     1      18.850  12.352  -1.613  0.00  0.00    +0.000 OA
ATOM      3  N3  UNL     1      16.794  12.788  -0.708  0.00  0.00    +0.000 N 
ATOM      4  H4  UNL     1      16.293  13.243   0.043  0.00  0.00    +0.000 HD
ENDROOT
BRANCH   1  12
ATOM      5  N1  UNL     1      20.058  14.166   0.070  0.00  0.00    +0.000 N 
ATOM      6  C1  UNL     1      20.760  15.145   0.706  0.00  0.00    +0.000 A 
ATOM      7  O1  UNL     1      21.969  15.071   0.890  0.00  0.00    +0.000 OA
ATOM      8  N2  UNL     1      20.024  16.215   1.126  0.00  0.00    +0.000 N 
ATOM      9  C2  UNL     1      18.684  16.374   0.922  0.00  0.00    +0.000 A 
ATOM     10  O2  UNL     1      18.064  17.361   1.298  0.00  0.00    +0.000 OA
ATOM     11  C3  UNL     1      17.993  15.281   0.215  0.00  0.00    +0.000 A 
ATOM     12  C4  UNL     1      18.706  14.216  -0.166  0.00  0.00    +0.000 A 
ATOM     13  H1  UNL     1      20.579  13.365  -0.280  0.00  0.00    +0.000 HD
ATOM     14  H2  UNL     1      20.520  16.957   1.595  0.00  0.00    +0.000 HD
ENDBRANCH   1  12
BRANCH   3  15
ATOM     15  C6  UNL     1      16.187  11.615  -1.295  0.00  0.00    +0.000 C 
BRANCH  15  16
ATOM     16  C7  UNL     1      15.498  11.956  -2.580  0.00  0.00    +0.000 A 
ATOM     17  C8  UNL     1      15.298  11.003  -3.582  0.00  0.00    +0.000 A 
ATOM     18  C9  UNL     1      14.626  11.359  -4.748  0.00  0.00    +0.000 A 
ATOM     19  C10 UNL     1      14.165  12.659  -4.869  0.00  0.00    +0.000 A 
ATOM     20  N4  UNL     1      14.328  13.603  -3.919  0.00  0.00    +0.000 NA
ATOM     21  C11 UNL     1      14.989  13.232  -2.799  0.00  0.00    +0.000 A 
ENDBRANCH  15  16
ENDBRANCH   3  15
TORSDOF 3
ENDMDL
MODEL 3
REMARK VINA RESULT:    -5.475     17.360     18.525
REMARK INTER + INTRA:          -6.810
REMARK INTER:                  -6.477
REMARK INTRA:                  -0.333
REMARK UNBOUND:                -0.375
REMARK  Name = /home/anacleto/Desktop/manuscript_Mpro/naturecomm/supplementary_file_S2/6-chemical-library/molecular_docking/3D_ligand_structure/552.pdb
REMARK  3 active torsions:
REMARK  status: ('A' for Active; 'I' for Inactive)
REMARK    1  A    between atoms: C4_8  and  C5_9
REMARK    2  A    between atoms: N3_11  and  C6_12
REMARK    3  A    between atoms: C6_12  and  C7_13
REMARK                            x       y       z     vdW  Elec       q    Type
REMARK                         _______ _______ _______ _____ _____    ______ ____
ROOT
ATOM      1  C5  UNL     1      17.934  10.911  -6.886  0.00  0.00    +0.000 C 
ATOM      2  O3  UNL     1      17.964  11.261  -5.709  0.00  0.00    +0.000 OA
ATOM      3  N3  UNL     1      17.127  11.494  -7.826  0.00  0.00    +0.000 N 
ATOM      4  H4  UNL     1      17.291  11.335  -8.811  0.00  0.00    +0.000 HD
ENDROOT
BRANCH   1  12
ATOM      5  N1  UNL     1      18.708   9.441  -8.672  0.00  0.00    +0.000 N 
ATOM      6  C1  UNL     1      19.479   8.499  -9.284  0.00  0.00    +0.000 A 
ATOM      7  O1  UNL     1      19.318   8.181 -10.456  0.00  0.00    +0.000 OA
ATOM      8  N2  UNL     1      20.443   7.932  -8.501  0.00  0.00    +0.000 N 
ATOM      9  C2  UNL     1      20.695   8.266  -7.203  0.00  0.00    +0.000 A 
ATOM     10  O2  UNL     1      21.585   7.746  -6.541  0.00  0.00    +0.000 OA
ATOM     11  C3  UNL     1      19.831   9.303  -6.611  0.00  0.00    +0.000 A 
ATOM     12  C4  UNL     1      18.864   9.835  -7.365  0.00  0.00    +0.000 A 
ATOM     13  H1  UNL     1      17.997   9.904  -9.232  0.00  0.00    +0.000 HD
ATOM     14  H2  UNL     1      21.031   7.235  -8.931  0.00  0.00    +0.000 HD
ENDBRANCH   1  12
BRANCH   3  15
ATOM     15  C6  UNL     1      16.288  12.617  -7.468  0.00  0.00    +0.000 C 
BRANCH  15  16
ATOM     16  C7  UNL     1      14.984  12.149  -6.900  0.00  0.00    +0.000 A 
ATOM     17  C8  UNL     1      14.277  11.083  -7.463  0.00  0.00    +0.000 A 
ATOM     18  C9  UNL     1      13.083  10.664  -6.883  0.00  0.00    +0.000 A 
ATOM     19  C10 UNL     1      12.639  11.321  -5.748  0.00  0.00    +0.000 A 
ATOM     20  N4  UNL     1      13.299  12.346  -5.169  0.00  0.00    +0.000 NA
ATOM     21  C11 UNL     1      14.453  12.736  -5.756  0.00  0.00    +0.000 A 
ENDBRANCH  15  16
ENDBRANCH   3  15
TORSDOF 3
ENDMDL
MODEL 4
REMARK VINA RESULT:    -5.400     13.852     16.037
REMARK INTER + INTRA:          -6.722
REMARK INTER:                  -6.390
REMARK INTRA:                  -0.332
REMARK UNBOUND:                -0.375
REMARK  Name = /home/anacleto/Desktop/manuscript_Mpro/naturecomm/supplementary_file_S2/6-chemical-library/molecular_docking/3D_ligand_structure/552.pdb
REMARK  3 active torsions:
REMARK  status: ('A' for Active; 'I' for Inactive)
REMARK    1  A    between atoms: C4_8  and  C5_9
REMARK    2  A    between atoms: N3_11  and  C6_12
REMARK    3  A    between atoms: C6_12  and  C7_13
REMARK                            x       y       z     vdW  Elec       q    Type
REMARK                         _______ _______ _______ _____ _____    ______ ____
ROOT
ATOM      1  C5  UNL     1      16.542  11.218  -2.357  0.00  0.00    +0.000 C 
ATOM      2  O3  UNL     1      16.019  10.589  -1.441  0.00  0.00    +0.000 OA
ATOM      3  N3  UNL     1      17.697  11.941  -2.213  0.00  0.00    +0.000 N 
ATOM      4  H4  UNL     1      18.210  12.252  -3.027  0.00  0.00    +0.000 HD
ENDROOT
BRANCH   1  12
ATOM      5  N1  UNL     1      14.631  10.776  -3.805  0.00  0.00    +0.000 N 
ATOM      6  C1  UNL     1      13.921  10.692  -4.965  0.00  0.00    +0.000 A 
ATOM      7  O1  UNL     1      12.742  10.357  -4.990  0.00  0.00    +0.000 OA
ATOM      8  N2  UNL     1      14.612  11.004  -6.100  0.00  0.00    +0.000 N 
ATOM      9  C2  UNL     1      15.912  11.416  -6.137  0.00  0.00    +0.000 A 
ATOM     10  O2  UNL     1      16.491  11.707  -7.176  0.00  0.00    +0.000 OA
ATOM     11  C3  UNL     1      16.613  11.498  -4.842  0.00  0.00    +0.000 A 
ATOM     12  C4  UNL     1      15.948  11.158  -3.734  0.00  0.00    +0.000 A 
ATOM     13  H1  UNL     1      14.140  10.575  -2.937  0.00  0.00    +0.000 HD
ATOM     14  H2  UNL     1      14.109  10.954  -6.972  0.00  0.00    +0.000 HD
ENDBRANCH   1  12
BRANCH   3  15
ATOM     15  C6  UNL     1      18.395  11.950  -0.946  0.00  0.00    +0.000 C 
BRANCH  15  16
ATOM     16  C7  UNL     1      18.468  13.338  -0.388  0.00  0.00    +0.000 A 
ATOM     17  C8  UNL     1      19.670  13.880   0.077  0.00  0.00    +0.000 A 
ATOM     18  C9  UNL     1      19.696  15.185   0.560  0.00  0.00    +0.000 A 
ATOM     19  C10 UNL     1      18.517  15.911   0.554  0.00  0.00    +0.000 A 
ATOM     20  N4  UNL     1      17.341  15.426   0.103  0.00  0.00    +0.000 NA
ATOM     21  C11 UNL     1      17.342  14.154  -0.356  0.00  0.00    +0.000 A 
ENDBRANCH  15  16
ENDBRANCH   3  15
TORSDOF 3
ENDMDL
MODEL 5
REMARK VINA RESULT:    -5.327     13.666     14.615
REMARK INTER + INTRA:          -6.637
REMARK INTER:                  -6.294
REMARK INTRA:                  -0.343
REMARK UNBOUND:                -0.375
REMARK  Name = /home/anacleto/Desktop/manuscript_Mpro/naturecomm/supplementary_file_S2/6-chemical-library/molecular_docking/3D_ligand_structure/552.pdb
REMARK  3 active torsions:
REMARK  status: ('A' for Active; 'I' for Inactive)
REMARK    1  A    between atoms: C4_8  and  C5_9
REMARK    2  A    between atoms: N3_11  and  C6_12
REMARK    3  A    between atoms: C6_12  and  C7_13
REMARK                            x       y       z     vdW  Elec       q    Type
REMARK                         _______ _______ _______ _____ _____    ______ ____
ROOT
ATOM      1  C5  UNL     1      18.182  12.829  -0.753  0.00  0.00    +0.000 C 
ATOM      2  O3  UNL     1      18.843  11.833  -1.035  0.00  0.00    +0.000 OA
ATOM      3  N3  UNL     1      16.820  12.895  -0.891  0.00  0.00    +0.000 N 
ATOM      4  H4  UNL     1      16.297  13.635  -0.444  0.00  0.00    +0.000 HD
ENDROOT
BRANCH   1  12
ATOM      5  N1  UNL     1      18.036  15.034   0.278  0.00  0.00    +0.000 N 
ATOM      6  C1  UNL     1      18.475  16.183   0.864  0.00  0.00    +0.000 A 
ATOM      7  O1  UNL     1      17.707  17.054   1.256  0.00  0.00    +0.000 OA
ATOM      8  N2  UNL     1      19.829  16.300   0.983  0.00  0.00    +0.000 N 
ATOM      9  C2  UNL     1      20.735  15.354   0.599  0.00  0.00    +0.000 A 
ATOM     10  O2  UNL     1      21.943  15.490   0.742  0.00  0.00    +0.000 OA
ATOM     11  C3  UNL     1      20.187  14.131  -0.014  0.00  0.00    +0.000 A 
ATOM     12  C4  UNL     1      18.862  14.030  -0.164  0.00  0.00    +0.000 A 
ATOM     13  H1  UNL     1      17.031  14.901   0.197  0.00  0.00    +0.000 HD
ATOM     14  H2  UNL     1      20.181  17.139   1.418  0.00  0.00    +0.000 HD
ENDBRANCH   1  12
BRANCH   3  15
ATOM     15  C6  UNL     1      16.079  11.737  -1.340  0.00  0.00    +0.000 C 
BRANCH  15  16
ATOM     16  C7  UNL     1      15.424  12.003  -2.661  0.00  0.00    +0.000 A 
ATOM     17  C8  UNL     1      15.201  10.982  -3.589  0.00  0.00    +0.000 A 
ATOM     18  C9  UNL     1      14.561  11.271  -4.791  0.00  0.00    +0.000 A 
ATOM     19  C10 UNL     1      14.156  12.575  -5.022  0.00  0.00    +0.000 A 
ATOM     20  N4  UNL     1      14.344  13.584  -4.146  0.00  0.00    +0.000 NA
ATOM     21  C11 UNL     1      14.972  13.277  -2.989  0.00  0.00    +0.000 A 
ENDBRANCH  15  16
ENDBRANCH   3  15
TORSDOF 3
ENDMDL
MODEL 6
REMARK VINA RESULT:    -5.257     13.899     15.001
REMARK INTER + INTRA:          -6.554
REMARK INTER:                  -6.243
REMARK INTRA:                  -0.311
REMARK UNBOUND:                -0.375
REMARK  Name = /home/anacleto/Desktop/manuscript_Mpro/naturecomm/supplementary_file_S2/6-chemical-library/molecular_docking/3D_ligand_structure/552.pdb
REMARK  3 active torsions:
REMARK  status: ('A' for Active; 'I' for Inactive)
REMARK    1  A    between atoms: C4_8  and  C5_9
REMARK    2  A    between atoms: N3_11  and  C6_12
REMARK    3  A    between atoms: C6_12  and  C7_13
REMARK                            x       y       z     vdW  Elec       q    Type
REMARK                         _______ _______ _______ _____ _____    ______ ____
ROOT
ATOM      1  C5  UNL     1      17.474  11.817  -1.653  0.00  0.00    +0.000 C 
ATOM      2  O3  UNL     1      18.139  10.788  -1.563  0.00  0.00    +0.000 OA
ATOM      3  N3  UNL     1      16.296  11.895  -2.349  0.00  0.00    +0.000 N 
ATOM      4  H4  UNL     1      15.675  12.681  -2.213  0.00  0.00    +0.000 HD
ENDROOT
BRANCH   1  12
ATOM      5  N1  UNL     1      16.919  13.945  -0.600  0.00  0.00    +0.000 N 
ATOM      6  C1  UNL     1      17.126  15.104   0.087  0.00  0.00    +0.000 A 
ATOM      7  O1  UNL     1      16.214  15.873   0.364  0.00  0.00    +0.000 OA
ATOM      8  N2  UNL     1      18.420  15.351   0.443  0.00  0.00    +0.000 N 
ATOM      9  C2  UNL     1      19.474  14.520   0.195  0.00  0.00    +0.000 A 
ATOM     10  O2  UNL     1      20.619  14.770   0.550  0.00  0.00    +0.000 OA
ATOM     11  C3  UNL     1      19.173  13.277  -0.539  0.00  0.00    +0.000 A 
ATOM     12  C4  UNL     1      17.911  13.051  -0.919  0.00  0.00    +0.000 A 
ATOM     13  H1  UNL     1      15.962  13.716  -0.859  0.00  0.00    +0.000 HD
ATOM     14  H2  UNL     1      18.601  16.200   0.956  0.00  0.00    +0.000 HD
ENDBRANCH   1  12
BRANCH   3  15
ATOM     15  C6  UNL     1      15.748  10.718  -2.984  0.00  0.00    +0.000 C 
BRANCH  15  16
ATOM     16  C7  UNL     1      15.221  11.043  -4.347  0.00  0.00    +0.000 A 
ATOM     17  C8  UNL     1      16.051  11.535  -5.358  0.00  0.00    +0.000 A 
ATOM     18  C9  UNL     1      15.522  11.795  -6.619  0.00  0.00    +0.000 A 
ATOM     19  C10 UNL     1      14.177  11.544  -6.831  0.00  0.00    +0.000 A 
ATOM     20  N4  UNL     1      13.347  11.058  -5.885  0.00  0.00    +0.000 NA
ATOM     21  C11 UNL     1      13.885  10.819  -4.667  0.00  0.00    +0.000 A 
ENDBRANCH  15  16
ENDBRANCH   3  15
TORSDOF 3
ENDMDL
MODEL 7
REMARK VINA RESULT:    -5.194     15.024     17.291
REMARK INTER + INTRA:          -6.480
REMARK INTER:                  -6.205
REMARK INTRA:                  -0.275
REMARK UNBOUND:                -0.375
REMARK  Name = /home/anacleto/Desktop/manuscript_Mpro/naturecomm/supplementary_file_S2/6-chemical-library/molecular_docking/3D_ligand_structure/552.pdb
REMARK  3 active torsions:
REMARK  status: ('A' for Active; 'I' for Inactive)
REMARK    1  A    between atoms: C4_8  and  C5_9
REMARK    2  A    between atoms: N3_11  and  C6_12
REMARK    3  A    between atoms: C6_12  and  C7_13
REMARK                            x       y       z     vdW  Elec       q    Type
REMARK                         _______ _______ _______ _____ _____    ______ ____
ROOT
ATOM      1  C5  UNL     1      14.750  14.471  -3.171  0.00  0.00    +0.000 C 
ATOM      2  O3  UNL     1      13.745  15.053  -2.771  0.00  0.00    +0.000 OA
ATOM      3  N3  UNL     1      15.913  14.393  -2.450  0.00  0.00    +0.000 N 
ATOM      4  H4  UNL     1      16.628  13.726  -2.706  0.00  0.00    +0.000 HD
ENDROOT
BRANCH   1  12
ATOM      5  N1  UNL     1      13.673  12.866  -4.657  0.00  0.00    +0.000 N 
ATOM      6  C1  UNL     1      13.467  12.139  -5.791  0.00  0.00    +0.000 A 
ATOM      7  O1  UNL     1      12.519  11.373  -5.916  0.00  0.00    +0.000 OA
ATOM      8  N2  UNL     1      14.390  12.322  -6.780  0.00  0.00    +0.000 N 
ATOM      9  C2  UNL     1      15.447  13.183  -6.717  0.00  0.00    +0.000 A 
ATOM     10  O2  UNL     1      16.242  13.333  -7.636  0.00  0.00    +0.000 OA
ATOM     11  C3  UNL     1      15.599  13.947  -5.465  0.00  0.00    +0.000 A 
ATOM     12  C4  UNL     1      14.715  13.743  -4.483  0.00  0.00    +0.000 A 
ATOM     13  H1  UNL     1      12.990  12.774  -3.909  0.00  0.00    +0.000 HD
ATOM     14  H2  UNL     1      14.259  11.800  -7.632  0.00  0.00    +0.000 HD
ENDBRANCH   1  12
BRANCH   3  15
ATOM     15  C6  UNL     1      15.986  14.967  -1.125  0.00  0.00    +0.000 C 
BRANCH  15  16
ATOM     16  C7  UNL     1      17.361  14.811  -0.551  0.00  0.00    +0.000 A 
ATOM     17  C8  UNL     1      18.134  13.674  -0.796  0.00  0.00    +0.000 A 
ATOM     18  C9  UNL     1      19.418  13.586  -0.266  0.00  0.00    +0.000 A 
ATOM     19  C10 UNL     1      19.891  14.647   0.487  0.00  0.00    +0.000 A 
ATOM     20  N4  UNL     1      19.179  15.766   0.736  0.00  0.00    +0.000 NA
ATOM     21  C11 UNL     1      17.933  15.823   0.214  0.00  0.00    +0.000 A 
ENDBRANCH  15  16
ENDBRANCH   3  15
TORSDOF 3
ENDMDL
MODEL 8
REMARK VINA RESULT:    -5.188     15.228     16.720
REMARK INTER + INTRA:          -6.473
REMARK INTER:                  -6.097
REMARK INTRA:                  -0.375
REMARK UNBOUND:                -0.375
REMARK  Name = /home/anacleto/Desktop/manuscript_Mpro/naturecomm/supplementary_file_S2/6-chemical-library/molecular_docking/3D_ligand_structure/552.pdb
REMARK  3 active torsions:
REMARK  status: ('A' for Active; 'I' for Inactive)
REMARK    1  A    between atoms: C4_8  and  C5_9
REMARK    2  A    between atoms: N3_11  and  C6_12
REMARK    3  A    between atoms: C6_12  and  C7_13
REMARK                            x       y       z     vdW  Elec       q    Type
REMARK                         _______ _______ _______ _____ _____    ______ ____
ROOT
ATOM      1  C5  UNL     1      14.868  13.683  -4.352  0.00  0.00    +0.000 C 
ATOM      2  O3  UNL     1      15.315  14.172  -5.386  0.00  0.00    +0.000 OA
ATOM      3  N3  UNL     1      14.663  12.340  -4.180  0.00  0.00    +0.000 N 
ATOM      4  H4  UNL     1      14.512  11.960  -3.256  0.00  0.00    +0.000 HD
ENDROOT
BRANCH   1  12
ATOM      5  N1  UNL     1      13.338  15.147  -3.142  0.00  0.00    +0.000 N 
ATOM      6  C1  UNL     1      12.896  15.956  -2.139  0.00  0.00    +0.000 A 
ATOM      7  O1  UNL     1      11.773  16.446  -2.138  0.00  0.00    +0.000 OA
ATOM      8  N2  UNL     1      13.790  16.185  -1.133  0.00  0.00    +0.000 N 
ATOM      9  C2  UNL     1      15.040  15.643  -1.058  0.00  0.00    +0.000 A 
ATOM     10  O2  UNL     1      15.806  15.858  -0.127  0.00  0.00    +0.000 OA
ATOM     11  C3  UNL     1      15.445  14.765  -2.171  0.00  0.00    +0.000 A 
ATOM     12  C4  UNL     1      14.583  14.568  -3.174  0.00  0.00    +0.000 A 
ATOM     13  H1  UNL     1      12.688  14.933  -3.895  0.00  0.00    +0.000 HD
ATOM     14  H2  UNL     1      13.488  16.777  -0.376  0.00  0.00    +0.000 HD
ENDBRANCH   1  12
BRANCH   3  15
ATOM     15  C6  UNL     1      15.025  11.410  -5.227  0.00  0.00    +0.000 C 
BRANCH  15  16
ATOM     16  C7  UNL     1      16.451  10.976  -5.086  0.00  0.00    +0.000 A 
ATOM     17  C8  UNL     1      17.328  10.966  -6.174  0.00  0.00    +0.000 A 
ATOM     18  C9  UNL     1      18.653  10.583  -5.989  0.00  0.00    +0.000 A 
ATOM     19  C10 UNL     1      19.062  10.230  -4.714  0.00  0.00    +0.000 A 
ATOM     20  N4  UNL     1      18.249  10.238  -3.637  0.00  0.00    +0.000 NA
ATOM     21  C11 UNL     1      16.965  10.609  -3.846  0.00  0.00    +0.000 A 
ENDBRANCH  15  16
ENDBRANCH   3  15
TORSDOF 3
ENDMDL
MODEL 9
REMARK VINA RESULT:    -5.140     14.355     16.325
REMARK INTER + INTRA:          -6.416
REMARK INTER:                  -6.087
REMARK INTRA:                  -0.329
REMARK UNBOUND:                -0.375
REMARK  Name = /home/anacleto/Desktop/manuscript_Mpro/naturecomm/supplementary_file_S2/6-chemical-library/molecular_docking/3D_ligand_structure/552.pdb
REMARK  3 active torsions:
REMARK  status: ('A' for Active; 'I' for Inactive)
REMARK    1  A    between atoms: C4_8  and  C5_9
REMARK    2  A    between atoms: N3_11  and  C6_12
REMARK    3  A    between atoms: C6_12  and  C7_13
REMARK                            x       y       z     vdW  Elec       q    Type
REMARK                         _______ _______ _______ _____ _____    ______ ____
ROOT
ATOM      1  C5  UNL     1      15.754  14.253  -2.036  0.00  0.00    +0.000 C 
ATOM      2  O3  UNL     1      15.161  15.277  -2.365  0.00  0.00    +0.000 OA
ATOM      3  N3  UNL     1      16.563  14.171  -0.933  0.00  0.00    +0.000 N 
ATOM      4  H4  UNL     1      16.847  13.270  -0.574  0.00  0.00    +0.000 HD
ENDROOT
BRANCH   1  12
ATOM      5  N1  UNL     1      16.371  11.939  -2.496  0.00  0.00    +0.000 N 
ATOM      6  C1  UNL     1      16.312  10.712  -3.084  0.00  0.00    +0.000 A 
ATOM      7  O1  UNL     1      17.053   9.792  -2.759  0.00  0.00    +0.000 OA
ATOM      8  N2  UNL     1      15.371  10.576  -4.064  0.00  0.00    +0.000 N 
ATOM      9  C2  UNL     1      14.495  11.549  -4.449  0.00  0.00    +0.000 A 
ATOM     10  O2  UNL     1      13.651  11.380  -5.321  0.00  0.00    +0.000 OA
ATOM     11  C3  UNL     1      14.608  12.846  -3.758  0.00  0.00    +0.000 A 
ATOM     12  C4  UNL     1      15.552  12.991  -2.823  0.00  0.00    +0.000 A 
ATOM     13  H1  UNL     1      17.043  12.068  -1.743  0.00  0.00    +0.000 HD
ATOM     14  H2  UNL     1      15.303   9.677  -4.513  0.00  0.00    +0.000 HD
ENDBRANCH   1  12
BRANCH   3  15
ATOM     15  C6  UNL     1      16.715  15.312  -0.057  0.00  0.00    +0.000 C 
BRANCH  15  16
ATOM     16  C7  UNL     1      18.156  15.697   0.074  0.00  0.00    +0.000 A 
ATOM     17  C8  UNL     1      19.168  14.737   0.157  0.00  0.00    +0.000 A 
ATOM     18  C9  UNL     1      20.497  15.141   0.248  0.00  0.00    +0.000 A 
ATOM     19  C10 UNL     1      20.771  16.498   0.243  0.00  0.00    +0.000 A 
ATOM     20  N4  UNL     1      19.822  17.454   0.153  0.00  0.00    +0.000 NA
ATOM     21  C11 UNL     1      18.540  17.034   0.072  0.00  0.00    +0.000 A 
ENDBRANCH  15  16
ENDBRANCH   3  15
TORSDOF 3
ENDMDL
