MODEL 1
REMARK VINA RESULT:    -4.975      0.000      0.000
REMARK INTER + INTRA:          -6.127
REMARK INTER:                  -5.746
REMARK INTRA:                  -0.381
REMARK UNBOUND:                -0.280
REMARK  Name = /home/anacleto/Desktop/manuscript_Mpro/naturecomm/supplementary_file_S2/6-chemical-library/molecular_docking/3D_ligand_structure/790.pdb
REMARK  3 active torsions:
REMARK  status: ('A' for Active; 'I' for Inactive)
REMARK    1  A    between atoms: C4_5  and  N2_6
REMARK    2  A    between atoms: C5_7  and  C6_9
REMARK    3  A    between atoms: C6_9  and  C7_10
REMARK                            x       y       z     vdW  Elec       q    Type
REMARK                         _______ _______ _______ _____ _____    ______ ____
ROOT
ATOM      1  N2  UNL     1      14.370  15.644  -3.227  0.00  0.00    +0.000 N 
ATOM      2  C5  UNL     1      15.621  15.094  -3.422  0.00  0.00    +0.000 C 
ATOM      3  O1  UNL     1      16.535  15.186  -2.609  0.00  0.00    +0.000 OA
ATOM      4  H9  UNL     1      13.618  15.321  -3.824  0.00  0.00    +0.000 HD
ENDROOT
BRANCH   1   9
ATOM      5  C1  UNL     1      13.612  17.707  -2.085  0.00  0.00    +0.000 C 
ATOM      6  N1  UNL     1      12.144  17.780  -2.061  0.00  0.00    +0.000 NA
ATOM      7  C2  UNL     1      11.631  16.410  -2.077  0.00  0.00    +0.000 C 
ATOM      8  C3  UNL     1      12.717  15.593  -1.403  0.00  0.00    +0.000 C 
ATOM      9  C4  UNL     1      13.995  16.227  -1.941  0.00  0.00    +0.000 C 
ATOM     10  H3  UNL     1      11.785  18.312  -2.853  0.00  0.00    +0.000 HD
ENDBRANCH   1   9
BRANCH   2  11
ATOM     11  C6  UNL     1      15.793  14.378  -4.750  0.00  0.00    +0.000 C 
BRANCH  11  12
ATOM     12  C7  UNL     1      15.060  13.066  -4.819  0.00  0.00    +0.000 A 
ATOM     13  C8  UNL     1      14.167  12.781  -5.856  0.00  0.00    +0.000 A 
ATOM     14  C9  UNL     1      13.504  11.558  -5.878  0.00  0.00    +0.000 A 
ATOM     15  C10 UNL     1      13.758  10.655  -4.859  0.00  0.00    +0.000 A 
ATOM     16  N3  UNL     1      14.616  10.892  -3.845  0.00  0.00    +0.000 NA
ATOM     17  C11 UNL     1      15.256  12.082  -3.852  0.00  0.00    +0.000 A 
ENDBRANCH  11  12
ENDBRANCH   2  11
TORSDOF 3
ENDMDL
MODEL 2
REMARK VINA RESULT:    -4.859      3.605      5.970
REMARK INTER + INTRA:          -5.991
REMARK INTER:                  -5.658
REMARK INTRA:                  -0.332
REMARK UNBOUND:                -0.280
REMARK  Name = /home/anacleto/Desktop/manuscript_Mpro/naturecomm/supplementary_file_S2/6-chemical-library/molecular_docking/3D_ligand_structure/790.pdb
REMARK  3 active torsions:
REMARK  status: ('A' for Active; 'I' for Inactive)
REMARK    1  A    between atoms: C4_5  and  N2_6
REMARK    2  A    between atoms: C5_7  and  C6_9
REMARK    3  A    between atoms: C6_9  and  C7_10
REMARK                            x       y       z     vdW  Elec       q    Type
REMARK                         _______ _______ _______ _____ _____    ______ ____
ROOT
ATOM      1  N2  UNL     1      14.939  11.129  -3.231  0.00  0.00    +0.000 N 
ATOM      2  C5  UNL     1      16.050  10.735  -2.512  0.00  0.00    +0.000 C 
ATOM      3  O1  UNL     1      16.914   9.988  -2.959  0.00  0.00    +0.000 OA
ATOM      4  H9  UNL     1      14.412  11.921  -2.882  0.00  0.00    +0.000 HD
ENDROOT
BRANCH   1   9
ATOM      5  C1  UNL     1      13.341  10.779  -5.090  0.00  0.00    +0.000 C 
ATOM      6  N1  UNL     1      13.058  12.046  -5.780  0.00  0.00    +0.000 NA
ATOM      7  C2  UNL     1      14.233  12.905  -5.631  0.00  0.00    +0.000 C 
ATOM      8  C3  UNL     1      15.394  11.937  -5.511  0.00  0.00    +0.000 C 
ATOM      9  C4  UNL     1      14.812  10.820  -4.654  0.00  0.00    +0.000 C 
ATOM     10  H3  UNL     1      12.227  12.498  -5.401  0.00  0.00    +0.000 HD
ENDBRANCH   1   9
BRANCH   2  11
ATOM     11  C6  UNL     1      16.108  11.281  -1.097  0.00  0.00    +0.000 C 
BRANCH  11  12
ATOM     12  C7  UNL     1      17.088  12.413  -0.935  0.00  0.00    +0.000 A 
ATOM     13  C8  UNL     1      18.459  12.177  -0.806  0.00  0.00    +0.000 A 
ATOM     14  C9  UNL     1      19.331  13.251  -0.652  0.00  0.00    +0.000 A 
ATOM     15  C10 UNL     1      18.800  14.530  -0.632  0.00  0.00    +0.000 A 
ATOM     16  N3  UNL     1      17.483  14.796  -0.759  0.00  0.00    +0.000 NA
ATOM     17  C11 UNL     1      16.659  13.738  -0.919  0.00  0.00    +0.000 A 
ENDBRANCH  11  12
ENDBRANCH   2  11
TORSDOF 3
ENDMDL
MODEL 3
REMARK VINA RESULT:    -4.737      4.857      7.911
REMARK INTER + INTRA:          -5.848
REMARK INTER:                  -5.476
REMARK INTRA:                  -0.372
REMARK UNBOUND:                -0.280
REMARK  Name = /home/anacleto/Desktop/manuscript_Mpro/naturecomm/supplementary_file_S2/6-chemical-library/molecular_docking/3D_ligand_structure/790.pdb
REMARK  3 active torsions:
REMARK  status: ('A' for Active; 'I' for Inactive)
REMARK    1  A    between atoms: C4_5  and  N2_6
REMARK    2  A    between atoms: C5_7  and  C6_9
REMARK    3  A    between atoms: C6_9  and  C7_10
REMARK                            x       y       z     vdW  Elec       q    Type
REMARK                         _______ _______ _______ _____ _____    ______ ____
ROOT
ATOM      1  N2  UNL     1      18.003  10.648  -8.076  0.00  0.00    +0.000 N 
ATOM      2  C5  UNL     1      17.885  11.815  -7.349  0.00  0.00    +0.000 C 
ATOM      3  O1  UNL     1      18.789  12.276  -6.658  0.00  0.00    +0.000 OA
ATOM      4  H9  UNL     1      17.310  10.471  -8.793  0.00  0.00    +0.000 HD
ENDROOT
BRANCH   1   9
ATOM      5  C1  UNL     1      19.124   8.445  -8.239  0.00  0.00    +0.000 C 
ATOM      6  N1  UNL     1      19.236   8.020  -9.642  0.00  0.00    +0.000 NA
ATOM      7  C2  UNL     1      19.294   9.226 -10.468  0.00  0.00    +0.000 C 
ATOM      8  C3  UNL     1      19.925  10.270  -9.567  0.00  0.00    +0.000 C 
ATOM      9  C4  UNL     1      19.291   9.971  -8.214  0.00  0.00    +0.000 C 
ATOM     10  H3  UNL     1      18.452   7.430  -9.916  0.00  0.00    +0.000 HD
ENDBRANCH   1   9
BRANCH   2  11
ATOM     11  C6  UNL     1      16.524  12.481  -7.446  0.00  0.00    +0.000 C 
BRANCH  11  12
ATOM     12  C7  UNL     1      15.462  11.789  -6.636  0.00  0.00    +0.000 A 
ATOM     13  C8  UNL     1      14.278  11.333  -7.221  0.00  0.00    +0.000 A 
ATOM     14  C9  UNL     1      13.318  10.704  -6.435  0.00  0.00    +0.000 A 
ATOM     15  C10 UNL     1      13.576  10.549  -5.083  0.00  0.00    +0.000 A 
ATOM     16  N3  UNL     1      14.708  10.971  -4.483  0.00  0.00    +0.000 NA
ATOM     17  C11 UNL     1      15.630  11.569  -5.270  0.00  0.00    +0.000 A 
ENDBRANCH  11  12
ENDBRANCH   2  11
TORSDOF 3
ENDMDL
MODEL 4
REMARK VINA RESULT:    -4.613     16.115     17.476
REMARK INTER + INTRA:          -5.702
REMARK INTER:                  -5.396
REMARK INTRA:                  -0.306
REMARK UNBOUND:                -0.280
REMARK  Name = /home/anacleto/Desktop/manuscript_Mpro/naturecomm/supplementary_file_S2/6-chemical-library/molecular_docking/3D_ligand_structure/790.pdb
REMARK  3 active torsions:
REMARK  status: ('A' for Active; 'I' for Inactive)
REMARK    1  A    between atoms: C4_5  and  N2_6
REMARK    2  A    between atoms: C5_7  and  C6_9
REMARK    3  A    between atoms: C6_9  and  C7_10
REMARK                            x       y       z     vdW  Elec       q    Type
REMARK                         _______ _______ _______ _____ _____    ______ ____
ROOT
ATOM      1  N2  UNL     1      17.854   4.160   8.502  0.00  0.00    +0.000 N 
ATOM      2  C5  UNL     1      16.721   3.431   8.803  0.00  0.00    +0.000 C 
ATOM      3  O1  UNL     1      16.268   3.323   9.938  0.00  0.00    +0.000 OA
ATOM      4  H9  UNL     1      18.017   4.392   7.529  0.00  0.00    +0.000 HD
ENDROOT
BRANCH   1   9
ATOM      5  C1  UNL     1      19.692   4.302  10.155  0.00  0.00    +0.000 C 
ATOM      6  N1  UNL     1      20.908   4.852   9.538  0.00  0.00    +0.000 NA
ATOM      7  C2  UNL     1      20.491   5.725   8.441  0.00  0.00    +0.000 C 
ATOM      8  C3  UNL     1      19.127   6.236   8.862  0.00  0.00    +0.000 C 
ATOM      9  C4  UNL     1      18.494   5.008   9.505  0.00  0.00    +0.000 C 
ATOM     10  H3  UNL     1      21.521   4.112   9.201  0.00  0.00    +0.000 HD
ENDBRANCH   1   9
BRANCH   2  11
ATOM     11  C6  UNL     1      16.082   2.741   7.610  0.00  0.00    +0.000 C 
BRANCH  11  12
ATOM     12  C7  UNL     1      15.600   1.349   7.915  0.00  0.00    +0.000 A 
ATOM     13  C8  UNL     1      14.251   1.082   8.165  0.00  0.00    +0.000 A 
ATOM     14  C9  UNL     1      13.847  -0.219   8.451  0.00  0.00    +0.000 A 
ATOM     15  C10 UNL     1      14.810  -1.214   8.475  0.00  0.00    +0.000 A 
ATOM     16  N3  UNL     1      16.119  -0.996   8.235  0.00  0.00    +0.000 NA
ATOM     17  C11 UNL     1      16.485   0.273   7.949  0.00  0.00    +0.000 A 
ENDBRANCH  11  12
ENDBRANCH   2  11
TORSDOF 3
ENDMDL
MODEL 5
REMARK VINA RESULT:    -4.516      1.280      5.551
REMARK INTER + INTRA:          -5.588
REMARK INTER:                  -5.219
REMARK INTRA:                  -0.369
REMARK UNBOUND:                -0.280
REMARK  Name = /home/anacleto/Desktop/manuscript_Mpro/naturecomm/supplementary_file_S2/6-chemical-library/molecular_docking/3D_ligand_structure/790.pdb
REMARK  3 active torsions:
REMARK  status: ('A' for Active; 'I' for Inactive)
REMARK    1  A    between atoms: C4_5  and  N2_6
REMARK    2  A    between atoms: C5_7  and  C6_9
REMARK    3  A    between atoms: C6_9  and  C7_10
REMARK                            x       y       z     vdW  Elec       q    Type
REMARK                         _______ _______ _______ _____ _____    ______ ____
ROOT
ATOM      1  N2  UNL     1      15.057  13.230  -3.174  0.00  0.00    +0.000 N 
ATOM      2  C5  UNL     1      15.925  14.114  -2.566  0.00  0.00    +0.000 C 
ATOM      3  O1  UNL     1      17.062  14.332  -2.972  0.00  0.00    +0.000 OA
ATOM      4  H9  UNL     1      14.077  13.289  -2.923  0.00  0.00    +0.000 HD
ENDROOT
BRANCH   1   9
ATOM      5  C1  UNL     1      15.506  11.096  -4.348  0.00  0.00    +0.000 C 
ATOM      6  N1  UNL     1      14.260  10.516  -4.871  0.00  0.00    +0.000 NA
ATOM      7  C2  UNL     1      13.335  11.618  -5.135  0.00  0.00    +0.000 C 
ATOM      8  C3  UNL     1      14.234  12.797  -5.453  0.00  0.00    +0.000 C 
ATOM      9  C4  UNL     1      15.379  12.622  -4.463  0.00  0.00    +0.000 C 
ATOM     10  H3  UNL     1      13.855   9.851  -4.213  0.00  0.00    +0.000 HD
ENDBRANCH   1   9
BRANCH   2  11
ATOM     11  C6  UNL     1      15.370  14.787  -1.323  0.00  0.00    +0.000 C 
BRANCH  11  12
ATOM     12  C7  UNL     1      14.402  15.898  -1.630  0.00  0.00    +0.000 A 
ATOM     13  C8  UNL     1      13.035  15.768  -1.370  0.00  0.00    +0.000 A 
ATOM     14  C9  UNL     1      12.173  16.818  -1.675  0.00  0.00    +0.000 A 
ATOM     15  C10 UNL     1      12.709  17.967  -2.230  0.00  0.00    +0.000 A 
ATOM     16  N3  UNL     1      14.023  18.131  -2.490  0.00  0.00    +0.000 NA
ATOM     17  C11 UNL     1      14.841  17.103  -2.175  0.00  0.00    +0.000 A 
ENDBRANCH  11  12
ENDBRANCH   2  11
TORSDOF 3
ENDMDL
MODEL 6
REMARK VINA RESULT:    -4.460     16.902     17.560
REMARK INTER + INTRA:          -5.522
REMARK INTER:                  -5.243
REMARK INTRA:                  -0.279
REMARK UNBOUND:                -0.280
REMARK  Name = /home/anacleto/Desktop/manuscript_Mpro/naturecomm/supplementary_file_S2/6-chemical-library/molecular_docking/3D_ligand_structure/790.pdb
REMARK  3 active torsions:
REMARK  status: ('A' for Active; 'I' for Inactive)
REMARK    1  A    between atoms: C4_5  and  N2_6
REMARK    2  A    between atoms: C5_7  and  C6_9
REMARK    3  A    between atoms: C6_9  and  C7_10
REMARK                            x       y       z     vdW  Elec       q    Type
REMARK                         _______ _______ _______ _____ _____    ______ ____
ROOT
ATOM      1  N2  UNL     1      18.819   5.610  10.610  0.00  0.00    +0.000 N 
ATOM      2  C5  UNL     1      18.738   4.328  10.106  0.00  0.00    +0.000 C 
ATOM      3  O1  UNL     1      19.240   3.353  10.655  0.00  0.00    +0.000 OA
ATOM      4  H9  UNL     1      18.185   6.304  10.229  0.00  0.00    +0.000 HD
ENDROOT
BRANCH   1   9
ATOM      5  C1  UNL     1      20.141   7.187  11.988  0.00  0.00    +0.000 C 
ATOM      6  N1  UNL     1      19.267   8.184  12.623  0.00  0.00    +0.000 NA
ATOM      7  C2  UNL     1      17.952   7.569  12.806  0.00  0.00    +0.000 C 
ATOM      8  C3  UNL     1      18.246   6.089  12.955  0.00  0.00    +0.000 C 
ATOM      9  C4  UNL     1      19.362   5.865  11.942  0.00  0.00    +0.000 C 
ATOM     10  H3  UNL     1      19.197   9.030  12.060  0.00  0.00    +0.000 HD
ENDBRANCH   1   9
BRANCH   2  11
ATOM     11  C6  UNL     1      17.994   4.217   8.787  0.00  0.00    +0.000 C 
BRANCH  11  12
ATOM     12  C7  UNL     1      16.802   3.301   8.851  0.00  0.00    +0.000 A 
ATOM     13  C8  UNL     1      16.493   2.430   7.803  0.00  0.00    +0.000 A 
ATOM     14  C9  UNL     1      15.376   1.604   7.899  0.00  0.00    +0.000 A 
ATOM     15  C10 UNL     1      14.603   1.677   9.046  0.00  0.00    +0.000 A 
ATOM     16  N3  UNL     1      14.873   2.501  10.079  0.00  0.00    +0.000 NA
ATOM     17  C11 UNL     1      15.968   3.284   9.967  0.00  0.00    +0.000 A 
ENDBRANCH  11  12
ENDBRANCH   2  11
TORSDOF 3
ENDMDL
MODEL 7
REMARK VINA RESULT:    -4.411      4.129      6.282
REMARK INTER + INTRA:          -5.464
REMARK INTER:                  -5.140
REMARK INTRA:                  -0.325
REMARK UNBOUND:                -0.280
REMARK  Name = /home/anacleto/Desktop/manuscript_Mpro/naturecomm/supplementary_file_S2/6-chemical-library/molecular_docking/3D_ligand_structure/790.pdb
REMARK  3 active torsions:
REMARK  status: ('A' for Active; 'I' for Inactive)
REMARK    1  A    between atoms: C4_5  and  N2_6
REMARK    2  A    between atoms: C5_7  and  C6_9
REMARK    3  A    between atoms: C6_9  and  C7_10
REMARK                            x       y       z     vdW  Elec       q    Type
REMARK                         _______ _______ _______ _____ _____    ______ ____
ROOT
ATOM      1  N2  UNL     1      16.751  13.131  -2.623  0.00  0.00    +0.000 N 
ATOM      2  C5  UNL     1      17.427  13.117  -1.419  0.00  0.00    +0.000 C 
ATOM      3  O1  UNL     1      16.866  13.087  -0.329  0.00  0.00    +0.000 OA
ATOM      4  H9  UNL     1      17.280  12.916  -3.460  0.00  0.00    +0.000 HD
ENDROOT
BRANCH   1   9
ATOM      5  C1  UNL     1      14.552  14.265  -2.724  0.00  0.00    +0.000 C 
ATOM      6  N1  UNL     1      14.142  14.485  -4.118  0.00  0.00    +0.000 NA
ATOM      7  C2  UNL     1      14.754  13.434  -4.932  0.00  0.00    +0.000 C 
ATOM      8  C3  UNL     1      14.896  12.258  -3.985  0.00  0.00    +0.000 C 
ATOM      9  C4  UNL     1      15.305  12.928  -2.678  0.00  0.00    +0.000 C 
ATOM     10  H3  UNL     1      14.421  15.408  -4.447  0.00  0.00    +0.000 HD
ENDBRANCH   1   9
BRANCH   2  11
ATOM     11  C6  UNL     1      18.939  13.169  -1.548  0.00  0.00    +0.000 C 
BRANCH  11  12
ATOM     12  C7  UNL     1      19.547  14.399  -0.930  0.00  0.00    +0.000 A 
ATOM     13  C8  UNL     1      20.186  14.352   0.313  0.00  0.00    +0.000 A 
ATOM     14  C9  UNL     1      20.729  15.514   0.853  0.00  0.00    +0.000 A 
ATOM     15  C10 UNL     1      20.616  16.689   0.129  0.00  0.00    +0.000 A 
ATOM     16  N3  UNL     1      20.011  16.772  -1.074  0.00  0.00    +0.000 NA
ATOM     17  C11 UNL     1      19.502  15.629  -1.583  0.00  0.00    +0.000 A 
ENDBRANCH  11  12
ENDBRANCH   2  11
TORSDOF 3
ENDMDL
MODEL 8
REMARK VINA RESULT:    -4.320      2.850      6.013
REMARK INTER + INTRA:          -5.357
REMARK INTER:                  -5.077
REMARK INTRA:                  -0.280
REMARK UNBOUND:                -0.280
REMARK  Name = /home/anacleto/Desktop/manuscript_Mpro/naturecomm/supplementary_file_S2/6-chemical-library/molecular_docking/3D_ligand_structure/790.pdb
REMARK  3 active torsions:
REMARK  status: ('A' for Active; 'I' for Inactive)
REMARK    1  A    between atoms: C4_5  and  N2_6
REMARK    2  A    between atoms: C5_7  and  C6_9
REMARK    3  A    between atoms: C6_9  and  C7_10
REMARK                            x       y       z     vdW  Elec       q    Type
REMARK                         _______ _______ _______ _____ _____    ______ ____
ROOT
ATOM      1  N2  UNL     1      14.771  12.633  -4.200  0.00  0.00    +0.000 N 
ATOM      2  C5  UNL     1      14.973  12.872  -2.856  0.00  0.00    +0.000 C 
ATOM      3  O1  UNL     1      15.156  11.983  -2.031  0.00  0.00    +0.000 OA
ATOM      4  H9  UNL     1      14.868  13.417  -4.835  0.00  0.00    +0.000 HD
ENDROOT
BRANCH   1   9
ATOM      5  C1  UNL     1      13.590  10.632  -5.056  0.00  0.00    +0.000 C 
ATOM      6  N1  UNL     1      13.357  10.743  -6.504  0.00  0.00    +0.000 NA
ATOM      7  C2  UNL     1      14.417  11.582  -7.061  0.00  0.00    +0.000 C 
ATOM      8  C3  UNL     1      15.599  11.359  -6.137  0.00  0.00    +0.000 C 
ATOM      9  C4  UNL     1      14.943  11.296  -4.763  0.00  0.00    +0.000 C 
ATOM     10  H3  UNL     1      12.439  11.137  -6.703  0.00  0.00    +0.000 HD
ENDBRANCH   1   9
BRANCH   2  11
ATOM     11  C6  UNL     1      14.924  14.339  -2.464  0.00  0.00    +0.000 C 
BRANCH  11  12
ATOM     12  C7  UNL     1      16.100  14.773  -1.633  0.00  0.00    +0.000 A 
ATOM     13  C8  UNL     1      15.928  15.432  -0.412  0.00  0.00    +0.000 A 
ATOM     14  C9  UNL     1      17.043  15.822   0.324  0.00  0.00    +0.000 A 
ATOM     15  C10 UNL     1      18.299  15.539  -0.187  0.00  0.00    +0.000 A 
ATOM     16  N3  UNL     1      18.504  14.901  -1.358  0.00  0.00    +0.000 NA
ATOM     17  C11 UNL     1      17.406  14.521  -2.048  0.00  0.00    +0.000 A 
ENDBRANCH  11  12
ENDBRANCH   2  11
TORSDOF 3
ENDMDL
MODEL 9
REMARK VINA RESULT:    -4.319      3.968      6.773
REMARK INTER + INTRA:          -5.356
REMARK INTER:                  -5.043
REMARK INTRA:                  -0.313
REMARK UNBOUND:                -0.280
REMARK  Name = /home/anacleto/Desktop/manuscript_Mpro/naturecomm/supplementary_file_S2/6-chemical-library/molecular_docking/3D_ligand_structure/790.pdb
REMARK  3 active torsions:
REMARK  status: ('A' for Active; 'I' for Inactive)
REMARK    1  A    between atoms: C4_5  and  N2_6
REMARK    2  A    between atoms: C5_7  and  C6_9
REMARK    3  A    between atoms: C6_9  and  C7_10
REMARK                            x       y       z     vdW  Elec       q    Type
REMARK                         _______ _______ _______ _____ _____    ______ ____
ROOT
ATOM      1  N2  UNL     1      17.338  12.158  -2.781  0.00  0.00    +0.000 N 
ATOM      2  C5  UNL     1      18.618  12.519  -2.410  0.00  0.00    +0.000 C 
ATOM      3  O1  UNL     1      19.490  12.837  -3.212  0.00  0.00    +0.000 OA
ATOM      4  H9  UNL     1      16.627  12.146  -2.058  0.00  0.00    +0.000 HD
ENDROOT
BRANCH   1   9
ATOM      5  C1  UNL     1      16.787  10.948  -4.870  0.00  0.00    +0.000 C 
ATOM      6  N1  UNL     1      15.366  10.570  -4.894  0.00  0.00    +0.000 NA
ATOM      7  C2  UNL     1      14.633  11.550  -4.092  0.00  0.00    +0.000 C 
ATOM      8  C3  UNL     1      15.449  12.822  -4.212  0.00  0.00    +0.000 C 
ATOM      9  C4  UNL     1      16.882  12.307  -4.161  0.00  0.00    +0.000 C 
ATOM     10  H3  UNL     1      15.226   9.627  -4.534  0.00  0.00    +0.000 HD
ENDBRANCH   1   9
BRANCH   2  11
ATOM     11  C6  UNL     1      18.877  12.466  -0.914  0.00  0.00    +0.000 C 
BRANCH  11  12
ATOM     12  C7  UNL     1      18.910  13.825  -0.267  0.00  0.00    +0.000 A 
ATOM     13  C8  UNL     1      20.090  14.351   0.265  0.00  0.00    +0.000 A 
ATOM     14  C9  UNL     1      20.076  15.609   0.861  0.00  0.00    +0.000 A 
ATOM     15  C10 UNL     1      18.877  16.302   0.904  0.00  0.00    +0.000 A 
ATOM     16  N3  UNL     1      17.720  15.828   0.397  0.00  0.00    +0.000 NA
ATOM     17  C11 UNL     1      17.762  14.610  -0.187  0.00  0.00    +0.000 A 
ENDBRANCH  11  12
ENDBRANCH   2  11
TORSDOF 3
ENDMDL
