MODEL 1
REMARK VINA RESULT:    -5.254      0.000      0.000
REMARK INTER + INTRA:          -7.145
REMARK INTER:                  -6.780
REMARK INTRA:                  -0.365
REMARK UNBOUND:                -0.662
REMARK  Name = /home/anacleto/Desktop/manuscript_Mpro/naturecomm/supplementary_file_S2/6-chemical-library/molecular_docking/3D_ligand_structure/603.pdb
REMARK  4 active torsions:
REMARK  status: ('A' for Active; 'I' for Inactive)
REMARK    1  A    between atoms: C6_6  and  C7_7
REMARK    2  A    between atoms: C7_7  and  C8_8
REMARK    3  A    between atoms: N1_10  and  C9_11
REMARK    4  A    between atoms: C9_11  and  C10_12
REMARK                            x       y       z     vdW  Elec       q    Type
REMARK                         _______ _______ _______ _____ _____    ______ ____
ROOT
ATOM      1  C8  UNL     1     -23.033   6.203 -39.046  0.00  0.00    +0.000 C 
ATOM      2  O1  UNL     1     -22.861   6.424 -40.238  0.00  0.00    +0.000 OA
ATOM      3  N1  UNL     1     -24.278   5.976 -38.495  0.00  0.00    +0.000 N 
ATOM      4  H14 UNL     1     -24.333   5.642 -37.542  0.00  0.00    +0.000 HD
ENDROOT
BRANCH   1   5
ATOM      5  C7  UNL     1     -21.923   6.149 -38.006  0.00  0.00    +0.000 C 
BRANCH   5  11
ATOM      6  C1  UNL     1     -22.117   8.671 -37.594  0.00  0.00    +0.000 C 
ATOM      7  C2  UNL     1     -21.347   9.943 -37.243  0.00  0.00    +0.000 C 
ATOM      8  C3  UNL     1     -20.213  10.207 -38.231  0.00  0.00    +0.000 C 
ATOM      9  C4  UNL     1     -19.275   9.009 -38.342  0.00  0.00    +0.000 C 
ATOM     10  C5  UNL     1     -20.031   7.731 -38.699  0.00  0.00    +0.000 C 
ATOM     11  C6  UNL     1     -21.178   7.460 -37.712  0.00  0.00    +0.000 C 
ENDBRANCH   5  11
ENDBRANCH   1   5
BRANCH   3  12
ATOM     12  C9  UNL     1     -25.466   5.876 -39.314  0.00  0.00    +0.000 C 
BRANCH  12  13
ATOM     13  C10 UNL     1     -26.284   4.676 -38.934  0.00  0.00    +0.000 A 
ATOM     14  C11 UNL     1     -25.681   3.480 -38.535  0.00  0.00    +0.000 A 
ATOM     15  C12 UNL     1     -26.470   2.393 -38.174  0.00  0.00    +0.000 A 
ATOM     16  C13 UNL     1     -27.846   2.540 -38.220  0.00  0.00    +0.000 A 
ATOM     17  N2  UNL     1     -28.469   3.680 -38.594  0.00  0.00    +0.000 NA
ATOM     18  C14 UNL     1     -27.675   4.718 -38.942  0.00  0.00    +0.000 A 
ENDBRANCH  12  13
ENDBRANCH   3  12
TORSDOF 4
ENDMDL
MODEL 2
REMARK VINA RESULT:    -5.041      1.932      7.542
REMARK INTER + INTRA:          -6.881
REMARK INTER:                  -6.562
REMARK INTRA:                  -0.319
REMARK UNBOUND:                -0.662
REMARK  Name = /home/anacleto/Desktop/manuscript_Mpro/naturecomm/supplementary_file_S2/6-chemical-library/molecular_docking/3D_ligand_structure/603.pdb
REMARK  4 active torsions:
REMARK  status: ('A' for Active; 'I' for Inactive)
REMARK    1  A    between atoms: C6_6  and  C7_7
REMARK    2  A    between atoms: C7_7  and  C8_8
REMARK    3  A    between atoms: N1_10  and  C9_11
REMARK    4  A    between atoms: C9_11  and  C10_12
REMARK                            x       y       z     vdW  Elec       q    Type
REMARK                         _______ _______ _______ _____ _____    ______ ____
ROOT
ATOM      1  C8  UNL     1     -23.999   6.607 -38.841  0.00  0.00    +0.000 C 
ATOM      2  O1  UNL     1     -24.669   7.626 -38.942  0.00  0.00    +0.000 OA
ATOM      3  N1  UNL     1     -22.761   6.578 -38.232  0.00  0.00    +0.000 N 
ATOM      4  H14 UNL     1     -22.336   5.681 -38.039  0.00  0.00    +0.000 HD
ENDROOT
BRANCH   1   5
ATOM      5  C7  UNL     1     -24.417   5.241 -39.365  0.00  0.00    +0.000 C 
BRANCH   5  11
ATOM      6  C1  UNL     1     -25.415   3.010 -38.592  0.00  0.00    +0.000 C 
ATOM      7  C2  UNL     1     -26.553   2.353 -37.812  0.00  0.00    +0.000 C 
ATOM      8  C3  UNL     1     -27.918   2.758 -38.360  0.00  0.00    +0.000 C 
ATOM      9  C4  UNL     1     -28.082   4.274 -38.398  0.00  0.00    +0.000 C 
ATOM     10  C5  UNL     1     -26.954   4.944 -39.181  0.00  0.00    +0.000 C 
ATOM     11  C6  UNL     1     -25.575   4.538 -38.638  0.00  0.00    +0.000 C 
ENDBRANCH   5  11
ENDBRANCH   1   5
BRANCH   3  12
ATOM     12  C9  UNL     1     -22.211   7.740 -37.569  0.00  0.00    +0.000 C 
BRANCH  12  13
ATOM     13  C10 UNL     1     -20.841   8.062 -38.090  0.00  0.00    +0.000 A 
ATOM     14  C11 UNL     1     -20.093   7.119 -38.801  0.00  0.00    +0.000 A 
ATOM     15  C12 UNL     1     -18.833   7.458 -39.285  0.00  0.00    +0.000 A 
ATOM     16  C13 UNL     1     -18.360   8.736 -39.042  0.00  0.00    +0.000 A 
ATOM     17  N2  UNL     1     -19.053   9.677 -38.363  0.00  0.00    +0.000 NA
ATOM     18  C14 UNL     1     -20.274   9.319 -37.904  0.00  0.00    +0.000 A 
ENDBRANCH  12  13
ENDBRANCH   3  12
TORSDOF 4
ENDMDL
MODEL 3
REMARK VINA RESULT:    -4.943      1.521      7.341
REMARK INTER + INTRA:          -6.761
REMARK INTER:                  -6.397
REMARK INTRA:                  -0.364
REMARK UNBOUND:                -0.662
REMARK  Name = /home/anacleto/Desktop/manuscript_Mpro/naturecomm/supplementary_file_S2/6-chemical-library/molecular_docking/3D_ligand_structure/603.pdb
REMARK  4 active torsions:
REMARK  status: ('A' for Active; 'I' for Inactive)
REMARK    1  A    between atoms: C6_6  and  C7_7
REMARK    2  A    between atoms: C7_7  and  C8_8
REMARK    3  A    between atoms: N1_10  and  C9_11
REMARK    4  A    between atoms: C9_11  and  C10_12
REMARK                            x       y       z     vdW  Elec       q    Type
REMARK                         _______ _______ _______ _____ _____    ______ ____
ROOT
ATOM      1  C8  UNL     1     -23.935   5.984 -39.263  0.00  0.00    +0.000 C 
ATOM      2  O1  UNL     1     -23.348   5.736 -40.308  0.00  0.00    +0.000 OA
ATOM      3  N1  UNL     1     -23.284   6.154 -38.057  0.00  0.00    +0.000 N 
ATOM      4  H14 UNL     1     -23.807   6.514 -37.270  0.00  0.00    +0.000 HD
ENDROOT
BRANCH   1   5
ATOM      5  C7  UNL     1     -25.443   6.137 -39.131  0.00  0.00    +0.000 C 
BRANCH   5  11
ATOM      6  C1  UNL     1     -27.738   5.051 -38.785  0.00  0.00    +0.000 C 
ATOM      7  C2  UNL     1     -28.561   3.779 -38.978  0.00  0.00    +0.000 C 
ATOM      8  C3  UNL     1     -27.907   2.576 -38.304  0.00  0.00    +0.000 C 
ATOM      9  C4  UNL     1     -26.471   2.379 -38.777  0.00  0.00    +0.000 C 
ATOM     10  C5  UNL     1     -25.634   3.642 -38.583  0.00  0.00    +0.000 C 
ATOM     11  C6  UNL     1     -26.288   4.859 -39.255  0.00  0.00    +0.000 C 
ENDBRANCH   5  11
ENDBRANCH   1   5
BRANCH   3  12
ATOM     12  C9  UNL     1     -21.841   6.157 -37.964  0.00  0.00    +0.000 C 
BRANCH  12  13
ATOM     13  C10 UNL     1     -21.303   7.558 -37.952  0.00  0.00    +0.000 A 
ATOM     14  C11 UNL     1     -21.967   8.586 -37.277  0.00  0.00    +0.000 A 
ATOM     15  C12 UNL     1     -21.431   9.870 -37.272  0.00  0.00    +0.000 A 
ATOM     16  C13 UNL     1     -20.240  10.084 -37.943  0.00  0.00    +0.000 A 
ATOM     17  N2  UNL     1     -19.564   9.117 -38.603  0.00  0.00    +0.000 NA
ATOM     18  C14 UNL     1     -20.110   7.880 -38.592  0.00  0.00    +0.000 A 
ENDBRANCH  12  13
ENDBRANCH   3  12
TORSDOF 4
ENDMDL
MODEL 4
REMARK VINA RESULT:    -4.601      2.044      2.666
REMARK INTER + INTRA:          -6.338
REMARK INTER:                  -5.900
REMARK INTRA:                  -0.438
REMARK UNBOUND:                -0.662
REMARK  Name = /home/anacleto/Desktop/manuscript_Mpro/naturecomm/supplementary_file_S2/6-chemical-library/molecular_docking/3D_ligand_structure/603.pdb
REMARK  4 active torsions:
REMARK  status: ('A' for Active; 'I' for Inactive)
REMARK    1  A    between atoms: C6_6  and  C7_7
REMARK    2  A    between atoms: C7_7  and  C8_8
REMARK    3  A    between atoms: N1_10  and  C9_11
REMARK    4  A    between atoms: C9_11  and  C10_12
REMARK                            x       y       z     vdW  Elec       q    Type
REMARK                         _______ _______ _______ _____ _____    ______ ____
ROOT
ATOM      1  C8  UNL     1     -26.395   8.323 -38.563  0.00  0.00    +0.000 C 
ATOM      2  O1  UNL     1     -27.316   8.690 -37.846  0.00  0.00    +0.000 OA
ATOM      3  N1  UNL     1     -26.410   7.128 -39.254  0.00  0.00    +0.000 N 
ATOM      4  H14 UNL     1     -25.695   6.960 -39.950  0.00  0.00    +0.000 HD
ENDROOT
BRANCH   1   5
ATOM      5  C7  UNL     1     -25.112   9.107 -38.796  0.00  0.00    +0.000 C 
BRANCH   5  11
ATOM      6  C1  UNL     1     -23.025   9.890 -37.531  0.00  0.00    +0.000 C 
ATOM      7  C2  UNL     1     -21.845   9.443 -36.669  0.00  0.00    +0.000 C 
ATOM      8  C3  UNL     1     -21.003   8.383 -37.373  0.00  0.00    +0.000 C 
ATOM      9  C4  UNL     1     -21.849   7.191 -37.808  0.00  0.00    +0.000 C 
ATOM     10  C5  UNL     1     -23.029   7.622 -38.676  0.00  0.00    +0.000 C 
ATOM     11  C6  UNL     1     -23.880   8.693 -37.976  0.00  0.00    +0.000 C 
ENDBRANCH   5  11
ENDBRANCH   1   5
BRANCH   3  12
ATOM     12  C9  UNL     1     -27.574   6.269 -39.264  0.00  0.00    +0.000 C 
BRANCH  12  13
ATOM     13  C10 UNL     1     -27.214   4.866 -38.867  0.00  0.00    +0.000 A 
ATOM     14  C11 UNL     1     -25.888   4.422 -38.886  0.00  0.00    +0.000 A 
ATOM     15  C12 UNL     1     -25.589   3.121 -38.495  0.00  0.00    +0.000 A 
ATOM     16  C13 UNL     1     -26.631   2.303 -38.094  0.00  0.00    +0.000 A 
ATOM     17  N2  UNL     1     -27.924   2.695 -38.056  0.00  0.00    +0.000 NA
ATOM     18  C14 UNL     1     -28.184   3.964 -38.444  0.00  0.00    +0.000 A 
ENDBRANCH  12  13
ENDBRANCH   3  12
TORSDOF 4
ENDMDL
MODEL 5
REMARK VINA RESULT:    -4.599      1.974      6.989
REMARK INTER + INTRA:          -6.336
REMARK INTER:                  -5.853
REMARK INTRA:                  -0.483
REMARK UNBOUND:                -0.662
REMARK  Name = /home/anacleto/Desktop/manuscript_Mpro/naturecomm/supplementary_file_S2/6-chemical-library/molecular_docking/3D_ligand_structure/603.pdb
REMARK  4 active torsions:
REMARK  status: ('A' for Active; 'I' for Inactive)
REMARK    1  A    between atoms: C6_6  and  C7_7
REMARK    2  A    between atoms: C7_7  and  C8_8
REMARK    3  A    between atoms: N1_10  and  C9_11
REMARK    4  A    between atoms: C9_11  and  C10_12
REMARK                            x       y       z     vdW  Elec       q    Type
REMARK                         _______ _______ _______ _____ _____    ______ ____
ROOT
ATOM      1  C8  UNL     1     -25.804   7.170 -40.326  0.00  0.00    +0.000 C 
ATOM      2  O1  UNL     1     -25.846   8.114 -41.103  0.00  0.00    +0.000 OA
ATOM      3  N1  UNL     1     -25.448   7.303 -38.999  0.00  0.00    +0.000 N 
ATOM      4  H14 UNL     1     -25.589   6.518 -38.378  0.00  0.00    +0.000 HD
ENDROOT
BRANCH   1   5
ATOM      5  C7  UNL     1     -26.126   5.729 -40.695  0.00  0.00    +0.000 C 
BRANCH   5  11
ATOM      6  C1  UNL     1     -25.480   3.557 -39.497  0.00  0.00    +0.000 C 
ATOM      7  C2  UNL     1     -25.777   2.653 -38.302  0.00  0.00    +0.000 C 
ATOM      8  C3  UNL     1     -27.238   2.215 -38.275  0.00  0.00    +0.000 C 
ATOM      9  C4  UNL     1     -28.184   3.412 -38.307  0.00  0.00    +0.000 C 
ATOM     10  C5  UNL     1     -27.903   4.322 -39.502  0.00  0.00    +0.000 C 
ATOM     11  C6  UNL     1     -26.431   4.764 -39.539  0.00  0.00    +0.000 C 
ENDBRANCH   5  11
ENDBRANCH   1   5
BRANCH   3  12
ATOM     12  C9  UNL     1     -25.202   8.598 -38.403  0.00  0.00    +0.000 C 
BRANCH  12  13
ATOM     13  C10 UNL     1     -23.804   8.689 -37.864  0.00  0.00    +0.000 A 
ATOM     14  C11 UNL     1     -22.864   7.683 -38.107  0.00  0.00    +0.000 A 
ATOM     15  C12 UNL     1     -21.572   7.808 -37.607  0.00  0.00    +0.000 A 
ATOM     16  C13 UNL     1     -21.260   8.943 -36.878  0.00  0.00    +0.000 A 
ATOM     17  N2  UNL     1     -22.137   9.939 -36.625  0.00  0.00    +0.000 NA
ATOM     18  C14 UNL     1     -23.385   9.788 -37.122  0.00  0.00    +0.000 A 
ENDBRANCH  12  13
ENDBRANCH   3  12
TORSDOF 4
ENDMDL
MODEL 6
REMARK VINA RESULT:    -4.530      1.993      3.170
REMARK INTER + INTRA:          -6.251
REMARK INTER:                  -5.932
REMARK INTRA:                  -0.319
REMARK UNBOUND:                -0.662
REMARK  Name = /home/anacleto/Desktop/manuscript_Mpro/naturecomm/supplementary_file_S2/6-chemical-library/molecular_docking/3D_ligand_structure/603.pdb
REMARK  4 active torsions:
REMARK  status: ('A' for Active; 'I' for Inactive)
REMARK    1  A    between atoms: C6_6  and  C7_7
REMARK    2  A    between atoms: C7_7  and  C8_8
REMARK    3  A    between atoms: N1_10  and  C9_11
REMARK    4  A    between atoms: C9_11  and  C10_12
REMARK                            x       y       z     vdW  Elec       q    Type
REMARK                         _______ _______ _______ _____ _____    ______ ____
ROOT
ATOM      1  C8  UNL     1     -25.065   4.661 -39.429  0.00  0.00    +0.000 C 
ATOM      2  O1  UNL     1     -24.658   4.447 -40.563  0.00  0.00    +0.000 OA
ATOM      3  N1  UNL     1     -26.393   4.542 -39.072  0.00  0.00    +0.000 N 
ATOM      4  H14 UNL     1     -26.636   4.575 -38.090  0.00  0.00    +0.000 HD
ENDROOT
BRANCH   1   5
ATOM      5  C7  UNL     1     -24.189   5.090 -38.261  0.00  0.00    +0.000 C 
BRANCH   5  11
ATOM      6  C1  UNL     1     -21.881   6.121 -37.840  0.00  0.00    +0.000 C 
ATOM      7  C2  UNL     1     -20.971   7.312 -38.136  0.00  0.00    +0.000 C 
ATOM      8  C3  UNL     1     -21.619   8.631 -37.725  0.00  0.00    +0.000 C 
ATOM      9  C4  UNL     1     -22.988   8.811 -38.373  0.00  0.00    +0.000 C 
ATOM     10  C5  UNL     1     -23.911   7.629 -38.080  0.00  0.00    +0.000 C 
ATOM     11  C6  UNL     1     -23.264   6.296 -38.487  0.00  0.00    +0.000 C 
ENDBRANCH   5  11
ENDBRANCH   1   5
BRANCH   3  12
ATOM     12  C9  UNL     1     -27.389   4.045 -39.995  0.00  0.00    +0.000 C 
BRANCH  12  13
ATOM     13  C10 UNL     1     -28.771   4.439 -39.563  0.00  0.00    +0.000 A 
ATOM     14  C11 UNL     1     -28.982   5.232 -38.432  0.00  0.00    +0.000 A 
ATOM     15  C12 UNL     1     -30.276   5.593 -38.070  0.00  0.00    +0.000 A 
ATOM     16  C13 UNL     1     -31.323   5.148 -38.858  0.00  0.00    +0.000 A 
ATOM     17  N2  UNL     1     -31.162   4.384 -39.962  0.00  0.00    +0.000 NA
ATOM     18  C14 UNL     1     -29.893   4.048 -40.287  0.00  0.00    +0.000 A 
ENDBRANCH  12  13
ENDBRANCH   3  12
TORSDOF 4
ENDMDL
MODEL 7
REMARK VINA RESULT:    -4.495      1.764      2.528
REMARK INTER + INTRA:          -6.208
REMARK INTER:                  -5.975
REMARK INTRA:                  -0.233
REMARK UNBOUND:                -0.662
REMARK  Name = /home/anacleto/Desktop/manuscript_Mpro/naturecomm/supplementary_file_S2/6-chemical-library/molecular_docking/3D_ligand_structure/603.pdb
REMARK  4 active torsions:
REMARK  status: ('A' for Active; 'I' for Inactive)
REMARK    1  A    between atoms: C6_6  and  C7_7
REMARK    2  A    between atoms: C7_7  and  C8_8
REMARK    3  A    between atoms: N1_10  and  C9_11
REMARK    4  A    between atoms: C9_11  and  C10_12
REMARK                            x       y       z     vdW  Elec       q    Type
REMARK                         _______ _______ _______ _____ _____    ______ ____
ROOT
ATOM      1  C8  UNL     1     -23.400   5.669 -38.553  0.00  0.00    +0.000 C 
ATOM      2  O1  UNL     1     -22.917   5.366 -37.470  0.00  0.00    +0.000 OA
ATOM      3  N1  UNL     1     -24.488   5.019 -39.100  0.00  0.00    +0.000 N 
ATOM      4  H14 UNL     1     -24.934   5.420 -39.914  0.00  0.00    +0.000 HD
ENDROOT
BRANCH   1   5
ATOM      5  C7  UNL     1     -22.884   6.785 -39.450  0.00  0.00    +0.000 C 
BRANCH   5  11
ATOM      6  C1  UNL     1     -21.324   8.238 -38.028  0.00  0.00    +0.000 C 
ATOM      7  C2  UNL     1     -21.102   9.632 -37.444  0.00  0.00    +0.000 C 
ATOM      8  C3  UNL     1     -22.278  10.074 -36.578  0.00  0.00    +0.000 C 
ATOM      9  C4  UNL     1     -23.597  10.002 -37.343  0.00  0.00    +0.000 C 
ATOM     10  C5  UNL     1     -23.835   8.611 -37.927  0.00  0.00    +0.000 C 
ATOM     11  C6  UNL     1     -22.652   8.156 -38.797  0.00  0.00    +0.000 C 
ENDBRANCH   5  11
ENDBRANCH   1   5
BRANCH   3  12
ATOM     12  C9  UNL     1     -25.207   3.995 -38.374  0.00  0.00    +0.000 C 
BRANCH  12  13
ATOM     13  C10 UNL     1     -26.155   3.259 -39.275  0.00  0.00    +0.000 A 
ATOM     14  C11 UNL     1     -27.395   2.806 -38.814  0.00  0.00    +0.000 A 
ATOM     15  C12 UNL     1     -28.256   2.142 -39.682  0.00  0.00    +0.000 A 
ATOM     16  C13 UNL     1     -27.848   1.953 -40.991  0.00  0.00    +0.000 A 
ATOM     17  N2  UNL     1     -26.661   2.380 -41.478  0.00  0.00    +0.000 NA
ATOM     18  C14 UNL     1     -25.845   3.020 -40.610  0.00  0.00    +0.000 A 
ENDBRANCH  12  13
ENDBRANCH   3  12
TORSDOF 4
ENDMDL
MODEL 8
REMARK VINA RESULT:    -4.412      3.997      7.395
REMARK INTER + INTRA:          -6.105
REMARK INTER:                  -5.444
REMARK INTRA:                  -0.662
REMARK UNBOUND:                -0.662
REMARK  Name = /home/anacleto/Desktop/manuscript_Mpro/naturecomm/supplementary_file_S2/6-chemical-library/molecular_docking/3D_ligand_structure/603.pdb
REMARK  4 active torsions:
REMARK  status: ('A' for Active; 'I' for Inactive)
REMARK    1  A    between atoms: C6_6  and  C7_7
REMARK    2  A    between atoms: C7_7  and  C8_8
REMARK    3  A    between atoms: N1_10  and  C9_11
REMARK    4  A    between atoms: C9_11  and  C10_12
REMARK                            x       y       z     vdW  Elec       q    Type
REMARK                         _______ _______ _______ _____ _____    ______ ____
ROOT
ATOM      1  C8  UNL     1     -20.869   6.762 -39.475  0.00  0.00    +0.000 C 
ATOM      2  O1  UNL     1     -21.254   7.031 -40.605  0.00  0.00    +0.000 OA
ATOM      3  N1  UNL     1     -19.540   6.799 -39.105  0.00  0.00    +0.000 N 
ATOM      4  H14 UNL     1     -19.308   6.724 -38.123  0.00  0.00    +0.000 HD
ENDROOT
BRANCH   1   5
ATOM      5  C7  UNL     1     -21.777   6.349 -38.326  0.00  0.00    +0.000 C 
BRANCH   5  11
ATOM      6  C1  UNL     1     -23.942   7.711 -38.489  0.00  0.00    +0.000 C 
ATOM      7  C2  UNL     1     -24.811   8.763 -37.803  0.00  0.00    +0.000 C 
ATOM      8  C3  UNL     1     -24.037  10.052 -37.543  0.00  0.00    +0.000 C 
ATOM      9  C4  UNL     1     -22.760   9.791 -36.750  0.00  0.00    +0.000 C 
ATOM     10  C5  UNL     1     -21.878   8.745 -37.428  0.00  0.00    +0.000 C 
ATOM     11  C6  UNL     1     -22.651   7.445 -37.698  0.00  0.00    +0.000 C 
ENDBRANCH   5  11
ENDBRANCH   1   5
BRANCH   3  12
ATOM     12  C9  UNL     1     -18.511   7.267 -40.007  0.00  0.00    +0.000 C 
BRANCH  12  13
ATOM     13  C10 UNL     1     -18.253   8.734 -39.818  0.00  0.00    +0.000 A 
ATOM     14  C11 UNL     1     -18.443   9.353 -38.579  0.00  0.00    +0.000 A 
ATOM     15  C12 UNL     1     -18.178  10.711 -38.436  0.00  0.00    +0.000 A 
ATOM     16  C13 UNL     1     -17.728  11.410 -39.543  0.00  0.00    +0.000 A 
ATOM     17  N2  UNL     1     -17.527  10.849 -40.756  0.00  0.00    +0.000 NA
ATOM     18  C14 UNL     1     -17.795   9.528 -40.865  0.00  0.00    +0.000 A 
ENDBRANCH  12  13
ENDBRANCH   3  12
TORSDOF 4
ENDMDL
MODEL 9
REMARK VINA RESULT:    -4.400     15.435     17.918
REMARK INTER + INTRA:          -6.090
REMARK INTER:                  -5.668
REMARK INTRA:                  -0.422
REMARK UNBOUND:                -0.662
REMARK  Name = /home/anacleto/Desktop/manuscript_Mpro/naturecomm/supplementary_file_S2/6-chemical-library/molecular_docking/3D_ligand_structure/603.pdb
REMARK  4 active torsions:
REMARK  status: ('A' for Active; 'I' for Inactive)
REMARK    1  A    between atoms: C6_6  and  C7_7
REMARK    2  A    between atoms: C7_7  and  C8_8
REMARK    3  A    between atoms: N1_10  and  C9_11
REMARK    4  A    between atoms: C9_11  and  C10_12
REMARK                            x       y       z     vdW  Elec       q    Type
REMARK                         _______ _______ _______ _____ _____    ______ ____
ROOT
ATOM      1  C8  UNL     1     -38.633  -3.607 -32.020  0.00  0.00    +0.000 C 
ATOM      2  O1  UNL     1     -39.545  -4.415 -32.137  0.00  0.00    +0.000 OA
ATOM      3  N1  UNL     1     -38.043  -2.977 -33.097  0.00  0.00    +0.000 N 
ATOM      4  H14 UNL     1     -37.412  -2.207 -32.923  0.00  0.00    +0.000 HD
ENDROOT
BRANCH   1   5
ATOM      5  C7  UNL     1     -38.017  -3.182 -30.695  0.00  0.00    +0.000 C 
BRANCH   5  11
ATOM      6  C1  UNL     1     -37.046  -1.320 -29.227  0.00  0.00    +0.000 C 
ATOM      7  C2  UNL     1     -36.992   0.189 -28.995  0.00  0.00    +0.000 C 
ATOM      8  C3  UNL     1     -38.385   0.779 -28.794  0.00  0.00    +0.000 C 
ATOM      9  C4  UNL     1     -39.314   0.433 -29.955  0.00  0.00    +0.000 C 
ATOM     10  C5  UNL     1     -39.382  -1.073 -30.194  0.00  0.00    +0.000 C 
ATOM     11  C6  UNL     1     -37.982  -1.676 -30.392  0.00  0.00    +0.000 C 
ENDBRANCH   5  11
ENDBRANCH   1   5
BRANCH   3  12
ATOM     12  C9  UNL     1     -38.539  -3.150 -34.445  0.00  0.00    +0.000 C 
BRANCH  12  13
ATOM     13  C10 UNL     1     -37.958  -2.120 -35.371  0.00  0.00    +0.000 A 
ATOM     14  C11 UNL     1     -36.596  -1.805 -35.346  0.00  0.00    +0.000 A 
ATOM     15  C12 UNL     1     -36.089  -0.858 -36.229  0.00  0.00    +0.000 A 
ATOM     16  C13 UNL     1     -36.964  -0.255 -37.116  0.00  0.00    +0.000 A 
ATOM     17  N2  UNL     1     -38.285  -0.535 -37.176  0.00  0.00    +0.000 NA
ATOM     18  C14 UNL     1     -38.750  -1.458 -36.303  0.00  0.00    +0.000 A 
ENDBRANCH  12  13
ENDBRANCH   3  12
TORSDOF 4
ENDMDL
