MODEL 1
REMARK VINA RESULT:    -5.139      0.000      0.000
REMARK INTER + INTRA:          -5.487
REMARK INTER:                  -5.390
REMARK INTRA:                  -0.097
REMARK UNBOUND:                -0.048
REMARK  Name = /home/anacleto/Desktop/manuscript_Mpro/naturecomm/supplementary_file_S2/6-chemical-library/molecular_docking/3D_ligand_structure/813.pdb
REMARK  1 active torsions:
REMARK  status: ('A' for Active; 'I' for Inactive)
REMARK    1  A    between atoms: C6_6  and  N1_7
REMARK                            x       y       z     vdW  Elec       q    Type
REMARK                         _______ _______ _______ _____ _____    ______ ____
ROOT
ATOM      1  N1  UNL     1      15.946  12.645  -3.442  0.00  0.00    +0.000 NA
ATOM      2  C7  UNL     1      15.486  13.631  -2.750  0.00  0.00    +0.000 A 
ATOM      3  N2  UNL     1      16.263  14.114  -1.751  0.00  0.00    +0.000 N 
ATOM      4  C8  UNL     1      15.904  15.149  -0.943  0.00  0.00    +0.000 A 
ATOM      5  O1  UNL     1      16.632  15.563  -0.047  0.00  0.00    +0.000 OA
ATOM      6  N3  UNL     1      14.684  15.699  -1.193  0.00  0.00    +0.000 N 
ATOM      7  C9  UNL     1      13.841  15.277  -2.173  0.00  0.00    +0.000 A 
ATOM      8  O2  UNL     1      12.749  15.802  -2.363  0.00  0.00    +0.000 OA
ATOM      9  N4  UNL     1      14.281  14.235  -2.933  0.00  0.00    +0.000 N 
ATOM     10  H6  UNL     1      17.161  13.680  -1.597  0.00  0.00    +0.000 HD
ATOM     11  H7  UNL     1      14.386  16.468  -0.612  0.00  0.00    +0.000 HD
ATOM     12  H8  UNL     1      13.662  13.917  -3.663  0.00  0.00    +0.000 HD
ENDROOT
BRANCH   1  18
ATOM     13  C1  UNL     1      15.296  12.623  -5.780  0.00  0.00    +0.000 A 
ATOM     14  C2  UNL     1      14.527  12.097  -6.819  0.00  0.00    +0.000 A 
ATOM     15  C3  UNL     1      13.647  11.044  -6.570  0.00  0.00    +0.000 A 
ATOM     16  C4  UNL     1      13.541  10.513  -5.285  0.00  0.00    +0.000 A 
ATOM     17  C5  UNL     1      14.311  11.043  -4.248  0.00  0.00    +0.000 A 
ATOM     18  C6  UNL     1      15.181  12.109  -4.486  0.00  0.00    +0.000 A 
ENDBRANCH   1  18
TORSDOF 1
ENDMDL
MODEL 2
REMARK VINA RESULT:    -4.996      3.030      5.689
REMARK INTER + INTRA:          -5.336
REMARK INTER:                  -5.265
REMARK INTRA:                  -0.071
REMARK UNBOUND:                -0.048
REMARK  Name = /home/anacleto/Desktop/manuscript_Mpro/naturecomm/supplementary_file_S2/6-chemical-library/molecular_docking/3D_ligand_structure/813.pdb
REMARK  1 active torsions:
REMARK  status: ('A' for Active; 'I' for Inactive)
REMARK    1  A    between atoms: C6_6  and  N1_7
REMARK                            x       y       z     vdW  Elec       q    Type
REMARK                         _______ _______ _______ _____ _____    ______ ____
ROOT
ATOM      1  N1  UNL     1      16.180  11.841  -1.464  0.00  0.00    +0.000 NA
ATOM      2  C7  UNL     1      15.787  11.931  -2.689  0.00  0.00    +0.000 A 
ATOM      3  N2  UNL     1      14.845  11.053  -3.112  0.00  0.00    +0.000 N 
ATOM      4  C8  UNL     1      14.340  11.035  -4.376  0.00  0.00    +0.000 A 
ATOM      5  O1  UNL     1      13.487  10.227  -4.728  0.00  0.00    +0.000 OA
ATOM      6  N3  UNL     1      14.839  11.972  -5.228  0.00  0.00    +0.000 N 
ATOM      7  C9  UNL     1      15.784  12.889  -4.887  0.00  0.00    +0.000 A 
ATOM      8  O2  UNL     1      16.207  13.716  -5.687  0.00  0.00    +0.000 OA
ATOM      9  N4  UNL     1      16.234  12.834  -3.602  0.00  0.00    +0.000 N 
ATOM     10  H6  UNL     1      14.499  10.374  -2.451  0.00  0.00    +0.000 HD
ATOM     11  H7  UNL     1      14.487  11.986  -6.173  0.00  0.00    +0.000 HD
ATOM     12  H8  UNL     1      16.935  13.512  -3.341  0.00  0.00    +0.000 HD
ENDROOT
BRANCH   1  18
ATOM     13  C1  UNL     1      16.791  14.005  -0.552  0.00  0.00    +0.000 A 
ATOM     14  C2  UNL     1      17.759  14.890  -0.075  0.00  0.00    +0.000 A 
ATOM     15  C3  UNL     1      19.094  14.493  -0.013  0.00  0.00    +0.000 A 
ATOM     16  C4  UNL     1      19.460  13.209  -0.418  0.00  0.00    +0.000 A 
ATOM     17  C5  UNL     1      18.488  12.327  -0.894  0.00  0.00    +0.000 A 
ATOM     18  C6  UNL     1      17.152  12.724  -0.978  0.00  0.00    +0.000 A 
ENDBRANCH   1  18
TORSDOF 1
ENDMDL
MODEL 3
REMARK VINA RESULT:    -4.911     15.811     17.315
REMARK INTER + INTRA:          -5.245
REMARK INTER:                  -5.154
REMARK INTRA:                  -0.091
REMARK UNBOUND:                -0.048
REMARK  Name = /home/anacleto/Desktop/manuscript_Mpro/naturecomm/supplementary_file_S2/6-chemical-library/molecular_docking/3D_ligand_structure/813.pdb
REMARK  1 active torsions:
REMARK  status: ('A' for Active; 'I' for Inactive)
REMARK    1  A    between atoms: C6_6  and  N1_7
REMARK                            x       y       z     vdW  Elec       q    Type
REMARK                         _______ _______ _______ _____ _____    ______ ____
ROOT
ATOM      1  N1  UNL     1      19.110   7.688  11.524  0.00  0.00    +0.000 NA
ATOM      2  C7  UNL     1      18.284   7.092  12.316  0.00  0.00    +0.000 A 
ATOM      3  N2  UNL     1      17.737   7.823  13.317  0.00  0.00    +0.000 N 
ATOM      4  C8  UNL     1      16.852   7.324  14.223  0.00  0.00    +0.000 A 
ATOM      5  O1  UNL     1      16.374   8.013  15.119  0.00  0.00    +0.000 OA
ATOM      6  N3  UNL     1      16.527   6.011  14.073  0.00  0.00    +0.000 N 
ATOM      7  C9  UNL     1      17.028   5.206  13.098  0.00  0.00    +0.000 A 
ATOM      8  O2  UNL     1      16.708   4.026  13.000  0.00  0.00    +0.000 OA
ATOM      9  N4  UNL     1      17.908   5.788  12.236  0.00  0.00    +0.000 N 
ATOM     10  H6  UNL     1      18.002   8.793  13.395  0.00  0.00    +0.000 HD
ATOM     11  H7  UNL     1      15.874   5.609  14.728  0.00  0.00    +0.000 HD
ATOM     12  H8  UNL     1      18.284   5.197  11.509  0.00  0.00    +0.000 HD
ENDROOT
BRANCH   1  18
ATOM     13  C1  UNL     1      19.052   6.864   9.242  0.00  0.00    +0.000 A 
ATOM     14  C2  UNL     1      19.636   6.147   8.197  0.00  0.00    +0.000 A 
ATOM     15  C3  UNL     1      20.883   5.550   8.375  0.00  0.00    +0.000 A 
ATOM     16  C4  UNL     1      21.549   5.674   9.595  0.00  0.00    +0.000 A 
ATOM     17  C5  UNL     1      20.960   6.391  10.639  0.00  0.00    +0.000 A 
ATOM     18  C6  UNL     1      19.703   6.977  10.473  0.00  0.00    +0.000 A 
ENDBRANCH   1  18
TORSDOF 1
ENDMDL
MODEL 4
REMARK VINA RESULT:    -4.901      2.720      5.592
REMARK INTER + INTRA:          -5.235
REMARK INTER:                  -5.138
REMARK INTRA:                  -0.097
REMARK UNBOUND:                -0.048
REMARK  Name = /home/anacleto/Desktop/manuscript_Mpro/naturecomm/supplementary_file_S2/6-chemical-library/molecular_docking/3D_ligand_structure/813.pdb
REMARK  1 active torsions:
REMARK  status: ('A' for Active; 'I' for Inactive)
REMARK    1  A    between atoms: C6_6  and  N1_7
REMARK                            x       y       z     vdW  Elec       q    Type
REMARK                         _______ _______ _______ _____ _____    ______ ____
ROOT
ATOM      1  N1  UNL     1      14.587  14.526  -3.837  0.00  0.00    +0.000 NA
ATOM      2  C7  UNL     1      14.638  13.247  -3.993  0.00  0.00    +0.000 A 
ATOM      3  N2  UNL     1      13.851  12.699  -4.950  0.00  0.00    +0.000 N 
ATOM      4  C8  UNL     1      13.805  11.366  -5.222  0.00  0.00    +0.000 A 
ATOM      5  O1  UNL     1      13.081  10.902  -6.097  0.00  0.00    +0.000 OA
ATOM      6  N3  UNL     1      14.614  10.578  -4.463  0.00  0.00    +0.000 N 
ATOM      7  C9  UNL     1      15.434  11.044  -3.483  0.00  0.00    +0.000 A 
ATOM      8  O2  UNL     1      16.148  10.297  -2.822  0.00  0.00    +0.000 OA
ATOM      9  N4  UNL     1      15.416  12.391  -3.278  0.00  0.00    +0.000 N 
ATOM     10  H6  UNL     1      13.265  13.316  -5.492  0.00  0.00    +0.000 HD
ATOM     11  H7  UNL     1      14.605   9.585  -4.638  0.00  0.00    +0.000 HD
ATOM     12  H8  UNL     1      16.022  12.744  -2.553  0.00  0.00    +0.000 HD
ENDROOT
BRANCH   1  18
ATOM     13  C1  UNL     1      16.652  15.620  -3.184  0.00  0.00    +0.000 A 
ATOM     14  C2  UNL     1      17.448  16.225  -2.211  0.00  0.00    +0.000 A 
ATOM     15  C3  UNL     1      16.970  16.363  -0.908  0.00  0.00    +0.000 A 
ATOM     16  C4  UNL     1      15.694  15.906  -0.582  0.00  0.00    +0.000 A 
ATOM     17  C5  UNL     1      14.900  15.301  -1.559  0.00  0.00    +0.000 A 
ATOM     18  C6  UNL     1      15.380  15.141  -2.861  0.00  0.00    +0.000 A 
ENDBRANCH   1  18
TORSDOF 1
ENDMDL
MODEL 5
REMARK VINA RESULT:    -4.846      2.057      2.963
REMARK INTER + INTRA:          -5.177
REMARK INTER:                  -5.100
REMARK INTRA:                  -0.077
REMARK UNBOUND:                -0.048
REMARK  Name = /home/anacleto/Desktop/manuscript_Mpro/naturecomm/supplementary_file_S2/6-chemical-library/molecular_docking/3D_ligand_structure/813.pdb
REMARK  1 active torsions:
REMARK  status: ('A' for Active; 'I' for Inactive)
REMARK    1  A    between atoms: C6_6  and  N1_7
REMARK                            x       y       z     vdW  Elec       q    Type
REMARK                         _______ _______ _______ _____ _____    ______ ____
ROOT
ATOM      1  N1  UNL     1      14.722  13.187  -3.810  0.00  0.00    +0.000 NA
ATOM      2  C7  UNL     1      15.667  12.830  -3.007  0.00  0.00    +0.000 A 
ATOM      3  N2  UNL     1      15.858  13.576  -1.891  0.00  0.00    +0.000 N 
ATOM      4  C8  UNL     1      16.815  13.314  -0.959  0.00  0.00    +0.000 A 
ATOM      5  O1  UNL     1      16.961  14.010   0.041  0.00  0.00    +0.000 OA
ATOM      6  N3  UNL     1      17.601  12.231  -1.205  0.00  0.00    +0.000 N 
ATOM      7  C9  UNL     1      17.478  11.430  -2.297  0.00  0.00    +0.000 A 
ATOM      8  O2  UNL     1      18.210  10.462  -2.480  0.00  0.00    +0.000 OA
ATOM      9  N4  UNL     1      16.495  11.765  -3.178  0.00  0.00    +0.000 N 
ATOM     10  H6  UNL     1      15.254  14.371  -1.744  0.00  0.00    +0.000 HD
ATOM     11  H7  UNL     1      18.321  12.009  -0.535  0.00  0.00    +0.000 HD
ATOM     12  H8  UNL     1      16.397  11.175  -3.991  0.00  0.00    +0.000 HD
ENDROOT
BRANCH   1  18
ATOM     13  C1  UNL     1      15.091  12.819  -6.179  0.00  0.00    +0.000 A 
ATOM     14  C2  UNL     1      14.849  12.092  -7.345  0.00  0.00    +0.000 A 
ATOM     15  C3  UNL     1      14.006  10.982  -7.310  0.00  0.00    +0.000 A 
ATOM     16  C4  UNL     1      13.413  10.594  -6.109  0.00  0.00    +0.000 A 
ATOM     17  C5  UNL     1      13.657  11.325  -4.945  0.00  0.00    +0.000 A 
ATOM     18  C6  UNL     1      14.485  12.450  -4.976  0.00  0.00    +0.000 A 
ENDBRANCH   1  18
TORSDOF 1
ENDMDL
MODEL 6
REMARK VINA RESULT:    -4.834      2.489      5.188
REMARK INTER + INTRA:          -5.164
REMARK INTER:                  -5.128
REMARK INTRA:                  -0.035
REMARK UNBOUND:                -0.048
REMARK  Name = /home/anacleto/Desktop/manuscript_Mpro/naturecomm/supplementary_file_S2/6-chemical-library/molecular_docking/3D_ligand_structure/813.pdb
REMARK  1 active torsions:
REMARK  status: ('A' for Active; 'I' for Inactive)
REMARK    1  A    between atoms: C6_6  and  N1_7
REMARK                            x       y       z     vdW  Elec       q    Type
REMARK                         _______ _______ _______ _____ _____    ______ ____
ROOT
ATOM      1  N1  UNL     1      15.201  14.426  -1.787  0.00  0.00    +0.000 NA
ATOM      2  C7  UNL     1      15.139  13.510  -2.692  0.00  0.00    +0.000 A 
ATOM      3  N2  UNL     1      15.956  12.438  -2.558  0.00  0.00    +0.000 N 
ATOM      4  C8  UNL     1      15.995  11.399  -3.436  0.00  0.00    +0.000 A 
ATOM      5  O1  UNL     1      16.747  10.442  -3.285  0.00  0.00    +0.000 OA
ATOM      6  N3  UNL     1      15.144  11.487  -4.495  0.00  0.00    +0.000 N 
ATOM      7  C9  UNL     1      14.292  12.525  -4.707  0.00  0.00    +0.000 A 
ATOM      8  O2  UNL     1      13.541  12.564  -5.677  0.00  0.00    +0.000 OA
ATOM      9  N4  UNL     1      14.320  13.521  -3.778  0.00  0.00    +0.000 N 
ATOM     10  H6  UNL     1      16.572  12.409  -1.759  0.00  0.00    +0.000 HD
ATOM     11  H7  UNL     1      15.147  10.734  -5.166  0.00  0.00    +0.000 HD
ATOM     12  H8  UNL     1      13.690  14.295  -3.928  0.00  0.00    +0.000 HD
ENDROOT
BRANCH   1  18
ATOM     13  C1  UNL     1      13.028  15.475  -1.526  0.00  0.00    +0.000 A 
ATOM     14  C2  UNL     1      12.203  16.596  -1.627  0.00  0.00    +0.000 A 
ATOM     15  C3  UNL     1      12.728  17.808  -2.074  0.00  0.00    +0.000 A 
ATOM     16  C4  UNL     1      14.078  17.901  -2.412  0.00  0.00    +0.000 A 
ATOM     17  C5  UNL     1      14.900  16.777  -2.310  0.00  0.00    +0.000 A 
ATOM     18  C6  UNL     1      14.377  15.555  -1.880  0.00  0.00    +0.000 A 
ENDBRANCH   1  18
TORSDOF 1
ENDMDL
MODEL 7
REMARK VINA RESULT:    -4.747     15.907     16.898
REMARK INTER + INTRA:          -5.072
REMARK INTER:                  -5.003
REMARK INTRA:                  -0.069
REMARK UNBOUND:                -0.048
REMARK  Name = /home/anacleto/Desktop/manuscript_Mpro/naturecomm/supplementary_file_S2/6-chemical-library/molecular_docking/3D_ligand_structure/813.pdb
REMARK  1 active torsions:
REMARK  status: ('A' for Active; 'I' for Inactive)
REMARK    1  A    between atoms: C6_6  and  N1_7
REMARK                            x       y       z     vdW  Elec       q    Type
REMARK                         _______ _______ _______ _____ _____    ______ ____
ROOT
ATOM      1  N1  UNL     1      16.077   2.663   7.707  0.00  0.00    +0.000 NA
ATOM      2  C7  UNL     1      16.803   3.133   8.664  0.00  0.00    +0.000 A 
ATOM      3  N2  UNL     1      17.554   4.229   8.402  0.00  0.00    +0.000 N 
ATOM      4  C8  UNL     1      18.365   4.829   9.316  0.00  0.00    +0.000 A 
ATOM      5  O1  UNL     1      19.032   5.823   9.047  0.00  0.00    +0.000 OA
ATOM      6  N3  UNL     1      18.388   4.259  10.551  0.00  0.00    +0.000 N 
ATOM      7  C9  UNL     1      17.667   3.159  10.899  0.00  0.00    +0.000 A 
ATOM      8  O2  UNL     1      17.719   2.677  12.026  0.00  0.00    +0.000 OA
ATOM      9  N4  UNL     1      16.884   2.624   9.922  0.00  0.00    +0.000 N 
ATOM     10  H6  UNL     1      17.510   4.623   7.474  0.00  0.00    +0.000 HD
ATOM     11  H7  UNL     1      18.979   4.678  11.253  0.00  0.00    +0.000 HD
ATOM     12  H8  UNL     1      16.345   1.808  10.173  0.00  0.00    +0.000 HD
ENDROOT
BRANCH   1  18
ATOM     13  C1  UNL     1      15.753   0.262   7.580  0.00  0.00    +0.000 A 
ATOM     14  C2  UNL     1      14.960  -0.867   7.790  0.00  0.00    +0.000 A 
ATOM     15  C3  UNL     1      13.694  -0.732   8.359  0.00  0.00    +0.000 A 
ATOM     16  C4  UNL     1      13.225   0.529   8.726  0.00  0.00    +0.000 A 
ATOM     17  C5  UNL     1      14.021   1.656   8.514  0.00  0.00    +0.000 A 
ATOM     18  C6  UNL     1      15.283   1.531   7.927  0.00  0.00    +0.000 A 
ENDBRANCH   1  18
TORSDOF 1
ENDMDL
MODEL 8
REMARK VINA RESULT:    -4.707      1.828      3.007
REMARK INTER + INTRA:          -5.030
REMARK INTER:                  -4.984
REMARK INTRA:                  -0.045
REMARK UNBOUND:                -0.048
REMARK  Name = /home/anacleto/Desktop/manuscript_Mpro/naturecomm/supplementary_file_S2/6-chemical-library/molecular_docking/3D_ligand_structure/813.pdb
REMARK  1 active torsions:
REMARK  status: ('A' for Active; 'I' for Inactive)
REMARK    1  A    between atoms: C6_6  and  N1_7
REMARK                            x       y       z     vdW  Elec       q    Type
REMARK                         _______ _______ _______ _____ _____    ______ ____
ROOT
ATOM      1  N1  UNL     1      14.555  13.254  -3.905  0.00  0.00    +0.000 NA
ATOM      2  C7  UNL     1      14.489  14.219  -3.051  0.00  0.00    +0.000 A 
ATOM      3  N2  UNL     1      13.459  15.091  -3.168  0.00  0.00    +0.000 N 
ATOM      4  C8  UNL     1      13.266  16.152  -2.337  0.00  0.00    +0.000 A 
ATOM      5  O1  UNL     1      12.321  16.923  -2.469  0.00  0.00    +0.000 OA
ATOM      6  N3  UNL     1      14.188  16.305  -1.348  0.00  0.00    +0.000 N 
ATOM      7  C9  UNL     1      15.251  15.478  -1.159  0.00  0.00    +0.000 A 
ATOM      8  O2  UNL     1      16.059  15.653  -0.253  0.00  0.00    +0.000 OA
ATOM      9  N4  UNL     1      15.367  14.443  -2.036  0.00  0.00    +0.000 N 
ATOM     10  H6  UNL     1      12.796  14.944  -3.914  0.00  0.00    +0.000 HD
ATOM     11  H7  UNL     1      14.076  17.082  -0.715  0.00  0.00    +0.000 HD
ATOM     12  H8  UNL     1      16.153  13.824  -1.903  0.00  0.00    +0.000 HD
ENDROOT
BRANCH   1  18
ATOM     13  C1  UNL     1      16.712  12.446  -4.667  0.00  0.00    +0.000 A 
ATOM     14  C2  UNL     1      17.752  11.517  -4.598  0.00  0.00    +0.000 A 
ATOM     15  C3  UNL     1      17.690  10.470  -3.680  0.00  0.00    +0.000 A 
ATOM     16  C4  UNL     1      16.594  10.356  -2.825  0.00  0.00    +0.000 A 
ATOM     17  C5  UNL     1      15.556  11.286  -2.897  0.00  0.00    +0.000 A 
ATOM     18  C6  UNL     1      15.602  12.327  -3.828  0.00  0.00    +0.000 A 
ENDBRANCH   1  18
TORSDOF 1
ENDMDL
MODEL 9
REMARK VINA RESULT:    -4.524     15.649     16.968
REMARK INTER + INTRA:          -4.836
REMARK INTER:                  -4.789
REMARK INTRA:                  -0.048
REMARK UNBOUND:                -0.048
REMARK  Name = /home/anacleto/Desktop/manuscript_Mpro/naturecomm/supplementary_file_S2/6-chemical-library/molecular_docking/3D_ligand_structure/813.pdb
REMARK  1 active torsions:
REMARK  status: ('A' for Active; 'I' for Inactive)
REMARK    1  A    between atoms: C6_6  and  N1_7
REMARK                            x       y       z     vdW  Elec       q    Type
REMARK                         _______ _______ _______ _____ _____    ______ ____
ROOT
ATOM      1  N1  UNL     1      18.415   4.546  11.034  0.00  0.00    +0.000 NA
ATOM      2  C7  UNL     1      17.507   3.848  10.440  0.00  0.00    +0.000 A 
ATOM      3  N2  UNL     1      16.719   3.059  11.209  0.00  0.00    +0.000 N 
ATOM      4  C8  UNL     1      15.723   2.272  10.716  0.00  0.00    +0.000 A 
ATOM      5  O1  UNL     1      15.026   1.568  11.440  0.00  0.00    +0.000 OA
ATOM      6  N3  UNL     1      15.547   2.315   9.367  0.00  0.00    +0.000 N 
ATOM      7  C9  UNL     1      16.292   3.078   8.523  0.00  0.00    +0.000 A 
ATOM      8  O2  UNL     1      16.099   3.086   7.311  0.00  0.00    +0.000 OA
ATOM      9  N4  UNL     1      17.267   3.833   9.102  0.00  0.00    +0.000 N 
ATOM     10  H6  UNL     1      16.880   3.054  12.205  0.00  0.00    +0.000 HD
ATOM     11  H7  UNL     1      14.818   1.744   8.968  0.00  0.00    +0.000 HD
ATOM     12  H8  UNL     1      17.824   4.403   8.482  0.00  0.00    +0.000 HD
ENDROOT
BRANCH   1  18
ATOM     13  C1  UNL     1      19.034   6.756  10.247  0.00  0.00    +0.000 A 
ATOM     14  C2  UNL     1      19.865   7.585   9.493  0.00  0.00    +0.000 A 
ATOM     15  C3  UNL     1      20.932   7.039   8.781  0.00  0.00    +0.000 A 
ATOM     16  C4  UNL     1      21.172   5.666   8.829  0.00  0.00    +0.000 A 
ATOM     17  C5  UNL     1      20.338   4.839   9.584  0.00  0.00    +0.000 A 
ATOM     18  C6  UNL     1      19.256   5.377  10.285  0.00  0.00    +0.000 A 
ENDBRANCH   1  18
TORSDOF 1
ENDMDL
