MODEL 1
REMARK VINA RESULT:    -4.180      0.000      0.000
REMARK INTER + INTRA:          -4.180
REMARK INTER:                  -4.180
REMARK INTRA:                   0.000
REMARK UNBOUND:                 0.000
REMARK  Name = /home/anacleto/Desktop/manuscript_Mpro/naturecomm/supplementary_file_S2/6-chemical-library/molecular_docking/3D_ligand_structure/214.pdb
REMARK  0 active torsions:
REMARK  status: ('A' for Active; 'I' for Inactive)
REMARK                            x       y       z     vdW  Elec       q    Type
REMARK                         _______ _______ _______ _____ _____    ______ ____
ROOT
ATOM      1  C1  UNL     1     -22.393   5.800 -37.891  0.00  0.00    +0.000 A 
ATOM      2  C2  UNL     1     -23.730   5.612 -38.148  0.00  0.00    +0.000 A 
ATOM      3  O1  UNL     1     -24.360   6.806 -38.288  0.00  0.00    +0.000 OA
ATOM      4  C3  UNL     1     -23.416   7.767 -38.111  0.00  0.00    +0.000 A 
ATOM      5  C4  UNL     1     -22.177   7.206 -37.868  0.00  0.00    +0.000 A 
ATOM      6  C5  UNL     1     -23.855   9.178 -38.193  0.00  0.00    +0.000 C 
ATOM      7  C6  UNL     1     -23.299  10.014 -37.042  0.00  0.00    +0.000 C 
ATOM      8  C7  UNL     1     -21.770  10.149 -37.033  0.00  0.00    +0.000 C 
ATOM      9  N1  UNL     1     -21.048   8.947 -36.601  0.00  0.00    +0.000 NA
ATOM     10  C8  UNL     1     -20.902   7.937 -37.653  0.00  0.00    +0.000 C 
ATOM     11  H9  UNL     1     -20.110   9.228 -36.318  0.00  0.00    +0.000 HD
ENDROOT
TORSDOF 0
ENDMDL
MODEL 2
REMARK VINA RESULT:    -4.083      3.288      4.295
REMARK INTER + INTRA:          -4.083
REMARK INTER:                  -4.083
REMARK INTRA:                   0.000
REMARK UNBOUND:                 0.000
REMARK  Name = /home/anacleto/Desktop/manuscript_Mpro/naturecomm/supplementary_file_S2/6-chemical-library/molecular_docking/3D_ligand_structure/214.pdb
REMARK  0 active torsions:
REMARK  status: ('A' for Active; 'I' for Inactive)
REMARK                            x       y       z     vdW  Elec       q    Type
REMARK                         _______ _______ _______ _____ _____    ______ ____
ROOT
ATOM      1  C1  UNL     1     -20.768   7.929 -37.674  0.00  0.00    +0.000 A 
ATOM      2  C2  UNL     1     -21.529   8.910 -37.083  0.00  0.00    +0.000 A 
ATOM      3  O1  UNL     1     -21.055  10.139 -37.409  0.00  0.00    +0.000 OA
ATOM      4  C3  UNL     1     -19.976   9.942 -38.210  0.00  0.00    +0.000 A 
ATOM      5  C4  UNL     1     -19.752   8.594 -38.416  0.00  0.00    +0.000 A 
ATOM      6  C5  UNL     1     -19.255  11.140 -38.692  0.00  0.00    +0.000 C 
ATOM      7  C6  UNL     1     -17.742  10.996 -38.532  0.00  0.00    +0.000 C 
ATOM      8  C7  UNL     1     -17.117   9.878 -39.377  0.00  0.00    +0.000 C 
ATOM      9  N1  UNL     1     -17.368   8.520 -38.884  0.00  0.00    +0.000 NA
ATOM     10  C8  UNL     1     -18.684   7.992 -39.254  0.00  0.00    +0.000 C 
ATOM     11  H9  UNL     1     -16.667   7.901 -39.293  0.00  0.00    +0.000 HD
ENDROOT
TORSDOF 0
ENDMDL
MODEL 3
REMARK VINA RESULT:    -3.779      2.281      3.373
REMARK INTER + INTRA:          -3.779
REMARK INTER:                  -3.779
REMARK INTRA:                   0.000
REMARK UNBOUND:                 0.000
REMARK  Name = /home/anacleto/Desktop/manuscript_Mpro/naturecomm/supplementary_file_S2/6-chemical-library/molecular_docking/3D_ligand_structure/214.pdb
REMARK  0 active torsions:
REMARK  status: ('A' for Active; 'I' for Inactive)
REMARK                            x       y       z     vdW  Elec       q    Type
REMARK                         _______ _______ _______ _____ _____    ______ ____
ROOT
ATOM      1  C1  UNL     1     -19.694   7.860 -38.640  0.00  0.00    +0.000 A 
ATOM      2  C2  UNL     1     -19.055   9.067 -38.478  0.00  0.00    +0.000 A 
ATOM      3  O1  UNL     1     -19.853   9.942 -37.815  0.00  0.00    +0.000 OA
ATOM      4  C3  UNL     1     -21.016   9.291 -37.557  0.00  0.00    +0.000 A 
ATOM      5  C4  UNL     1     -20.976   7.996 -38.038  0.00  0.00    +0.000 A 
ATOM      6  C5  UNL     1     -22.077  10.042 -36.851  0.00  0.00    +0.000 C 
ATOM      7  C6  UNL     1     -23.441   9.861 -37.517  0.00  0.00    +0.000 C 
ATOM      8  C7  UNL     1     -23.981   8.425 -37.483  0.00  0.00    +0.000 C 
ATOM      9  N1  UNL     1     -23.326   7.498 -38.412  0.00  0.00    +0.000 NA
ATOM     10  C8  UNL     1     -22.049   6.975 -37.920  0.00  0.00    +0.000 C 
ATOM     11  H9  UNL     1     -23.947   6.701 -38.551  0.00  0.00    +0.000 HD
ENDROOT
TORSDOF 0
ENDMDL
MODEL 4
REMARK VINA RESULT:    -3.763      7.455      8.612
REMARK INTER + INTRA:          -3.763
REMARK INTER:                  -3.763
REMARK INTRA:                   0.000
REMARK UNBOUND:                 0.000
REMARK  Name = /home/anacleto/Desktop/manuscript_Mpro/naturecomm/supplementary_file_S2/6-chemical-library/molecular_docking/3D_ligand_structure/214.pdb
REMARK  0 active torsions:
REMARK  status: ('A' for Active; 'I' for Inactive)
REMARK                            x       y       z     vdW  Elec       q    Type
REMARK                         _______ _______ _______ _____ _____    ______ ____
ROOT
ATOM      1  C1  UNL     1     -27.743   3.464 -38.267  0.00  0.00    +0.000 A 
ATOM      2  C2  UNL     1     -27.355   2.488 -39.154  0.00  0.00    +0.000 A 
ATOM      3  O1  UNL     1     -28.178   2.471 -40.233  0.00  0.00    +0.000 OA
ATOM      4  C3  UNL     1     -29.108   3.440 -40.029  0.00  0.00    +0.000 A 
ATOM      5  C4  UNL     1     -28.887   4.094 -38.832  0.00  0.00    +0.000 A 
ATOM      6  C5  UNL     1     -30.149   3.615 -41.065  0.00  0.00    +0.000 C 
ATOM      7  C6  UNL     1     -31.545   3.730 -40.453  0.00  0.00    +0.000 C 
ATOM      8  C7  UNL     1     -31.753   4.967 -39.570  0.00  0.00    +0.000 C 
ATOM      9  N1  UNL     1     -31.106   4.901 -38.255  0.00  0.00    +0.000 NA
ATOM     10  C8  UNL     1     -29.677   5.226 -38.284  0.00  0.00    +0.000 C 
ATOM     11  H9  UNL     1     -31.560   5.582 -37.646  0.00  0.00    +0.000 HD
ENDROOT
TORSDOF 0
ENDMDL
MODEL 5
REMARK VINA RESULT:    -3.727      5.173      6.580
REMARK INTER + INTRA:          -3.727
REMARK INTER:                  -3.727
REMARK INTRA:                   0.000
REMARK UNBOUND:                 0.000
REMARK  Name = /home/anacleto/Desktop/manuscript_Mpro/naturecomm/supplementary_file_S2/6-chemical-library/molecular_docking/3D_ligand_structure/214.pdb
REMARK  0 active torsions:
REMARK  status: ('A' for Active; 'I' for Inactive)
REMARK                            x       y       z     vdW  Elec       q    Type
REMARK                         _______ _______ _______ _____ _____    ______ ____
ROOT
ATOM      1  C1  UNL     1     -29.288   4.966 -38.223  0.00  0.00    +0.000 A 
ATOM      2  C2  UNL     1     -29.080   6.270 -38.608  0.00  0.00    +0.000 A 
ATOM      3  O1  UNL     1     -27.844   6.413 -39.150  0.00  0.00    +0.000 OA
ATOM      4  C3  UNL     1     -27.253   5.191 -39.103  0.00  0.00    +0.000 A 
ATOM      5  C4  UNL     1     -28.100   4.252 -38.546  0.00  0.00    +0.000 A 
ATOM      6  C5  UNL     1     -25.872   5.080 -39.621  0.00  0.00    +0.000 C 
ATOM      7  C6  UNL     1     -24.968   4.300 -38.668  0.00  0.00    +0.000 C 
ATOM      8  C7  UNL     1     -25.364   2.829 -38.478  0.00  0.00    +0.000 C 
ATOM      9  N1  UNL     1     -26.549   2.613 -37.642  0.00  0.00    +0.000 NA
ATOM     10  C8  UNL     1     -27.816   2.807 -38.354  0.00  0.00    +0.000 C 
ATOM     11  H9  UNL     1     -26.532   1.647 -37.313  0.00  0.00    +0.000 HD
ENDROOT
TORSDOF 0
ENDMDL
MODEL 6
REMARK VINA RESULT:    -3.723      4.518      6.672
REMARK INTER + INTRA:          -3.723
REMARK INTER:                  -3.723
REMARK INTRA:                   0.000
REMARK UNBOUND:                 0.000
REMARK  Name = /home/anacleto/Desktop/manuscript_Mpro/naturecomm/supplementary_file_S2/6-chemical-library/molecular_docking/3D_ligand_structure/214.pdb
REMARK  0 active torsions:
REMARK  status: ('A' for Active; 'I' for Inactive)
REMARK                            x       y       z     vdW  Elec       q    Type
REMARK                         _______ _______ _______ _____ _____    ______ ____
ROOT
ATOM      1  C1  UNL     1     -26.302   6.316 -39.386  0.00  0.00    +0.000 A 
ATOM      2  C2  UNL     1     -24.993   6.329 -38.963  0.00  0.00    +0.000 A 
ATOM      3  O1  UNL     1     -24.586   5.076 -38.640  0.00  0.00    +0.000 OA
ATOM      4  C3  UNL     1     -25.647   4.254 -38.850  0.00  0.00    +0.000 A 
ATOM      5  C4  UNL     1     -26.737   4.962 -39.319  0.00  0.00    +0.000 A 
ATOM      6  C5  UNL     1     -25.467   2.817 -38.549  0.00  0.00    +0.000 C 
ATOM      7  C6  UNL     1     -26.637   2.255 -37.743  0.00  0.00    +0.000 C 
ATOM      8  C7  UNL     1     -27.983   2.267 -38.480  0.00  0.00    +0.000 C 
ATOM      9  N1  UNL     1     -28.608   3.588 -38.598  0.00  0.00    +0.000 NA
ATOM     10  C8  UNL     1     -28.063   4.404 -39.687  0.00  0.00    +0.000 C 
ATOM     11  H9  UNL     1     -29.600   3.451 -38.790  0.00  0.00    +0.000 HD
ENDROOT
TORSDOF 0
ENDMDL
MODEL 7
REMARK VINA RESULT:    -3.602     17.426     18.795
REMARK INTER + INTRA:          -3.602
REMARK INTER:                  -3.602
REMARK INTRA:                   0.000
REMARK UNBOUND:                 0.000
REMARK  Name = /home/anacleto/Desktop/manuscript_Mpro/naturecomm/supplementary_file_S2/6-chemical-library/molecular_docking/3D_ligand_structure/214.pdb
REMARK  0 active torsions:
REMARK  status: ('A' for Active; 'I' for Inactive)
REMARK                            x       y       z     vdW  Elec       q    Type
REMARK                         _______ _______ _______ _____ _____    ______ ____
ROOT
ATOM      1  C1  UNL     1     -25.186  -4.028 -26.019  0.00  0.00    +0.000 A 
ATOM      2  C2  UNL     1     -24.526  -4.412 -24.874  0.00  0.00    +0.000 A 
ATOM      3  O1  UNL     1     -25.191  -5.424 -24.260  0.00  0.00    +0.000 OA
ATOM      4  C3  UNL     1     -26.290  -5.683 -25.015  0.00  0.00    +0.000 A 
ATOM      5  C4  UNL     1     -26.339  -4.856 -26.120  0.00  0.00    +0.000 A 
ATOM      6  C5  UNL     1     -27.205  -6.746 -24.544  0.00  0.00    +0.000 C 
ATOM      7  C6  UNL     1     -28.666  -6.303 -24.599  0.00  0.00    +0.000 C 
ATOM      8  C7  UNL     1     -29.193  -6.022 -26.013  0.00  0.00    +0.000 C 
ATOM      9  N1  UNL     1     -28.718  -4.770 -26.610  0.00  0.00    +0.000 NA
ATOM     10  C8  UNL     1     -27.374  -4.863 -27.185  0.00  0.00    +0.000 C 
ATOM     11  H9  UNL     1     -29.355  -4.519 -27.366  0.00  0.00    +0.000 HD
ENDROOT
TORSDOF 0
ENDMDL
MODEL 8
REMARK VINA RESULT:    -3.584      1.761      3.423
REMARK INTER + INTRA:          -3.584
REMARK INTER:                  -3.584
REMARK INTRA:                   0.000
REMARK UNBOUND:                 0.000
REMARK  Name = /home/anacleto/Desktop/manuscript_Mpro/naturecomm/supplementary_file_S2/6-chemical-library/molecular_docking/3D_ligand_structure/214.pdb
REMARK  0 active torsions:
REMARK  status: ('A' for Active; 'I' for Inactive)
REMARK                            x       y       z     vdW  Elec       q    Type
REMARK                         _______ _______ _______ _____ _____    ______ ____
ROOT
ATOM      1  C1  UNL     1     -22.208  10.403 -37.320  0.00  0.00    +0.000 A 
ATOM      2  C2  UNL     1     -23.406   9.738 -37.198  0.00  0.00    +0.000 A 
ATOM      3  O1  UNL     1     -23.246   8.417 -37.460  0.00  0.00    +0.000 OA
ATOM      4  C3  UNL     1     -21.933   8.235 -37.759  0.00  0.00    +0.000 A 
ATOM      5  C4  UNL     1     -21.238   9.427 -37.683  0.00  0.00    +0.000 A 
ATOM      6  C5  UNL     1     -21.496   6.866 -38.108  0.00  0.00    +0.000 C 
ATOM      7  C6  UNL     1     -20.616   6.850 -39.356  0.00  0.00    +0.000 C 
ATOM      8  C7  UNL     1     -19.279   7.590 -39.201  0.00  0.00    +0.000 C 
ATOM      9  N1  UNL     1     -19.380   9.052 -39.206  0.00  0.00    +0.000 NA
ATOM     10  C8  UNL     1     -19.784   9.619 -37.916  0.00  0.00    +0.000 C 
ATOM     11  H9  UNL     1     -18.460   9.432 -39.429  0.00  0.00    +0.000 HD
ENDROOT
TORSDOF 0
ENDMDL
MODEL 9
REMARK VINA RESULT:    -3.551     16.278     17.551
REMARK INTER + INTRA:          -3.551
REMARK INTER:                  -3.551
REMARK INTRA:                   0.000
REMARK UNBOUND:                 0.000
REMARK  Name = /home/anacleto/Desktop/manuscript_Mpro/naturecomm/supplementary_file_S2/6-chemical-library/molecular_docking/3D_ligand_structure/214.pdb
REMARK  0 active torsions:
REMARK  status: ('A' for Active; 'I' for Inactive)
REMARK                            x       y       z     vdW  Elec       q    Type
REMARK                         _______ _______ _______ _____ _____    ______ ____
ROOT
ATOM      1  C1  UNL     1     -24.179  -4.271 -25.099  0.00  0.00    +0.000 A 
ATOM      2  C2  UNL     1     -24.697  -4.925 -24.006  0.00  0.00    +0.000 A 
ATOM      3  O1  UNL     1     -25.890  -5.494 -24.314  0.00  0.00    +0.000 OA
ATOM      4  C3  UNL     1     -26.140  -5.195 -25.615  0.00  0.00    +0.000 A 
ATOM      5  C4  UNL     1     -25.114  -4.445 -26.157  0.00  0.00    +0.000 A 
ATOM      6  C5  UNL     1     -27.407  -5.688 -26.197  0.00  0.00    +0.000 C 
ATOM      7  C6  UNL     1     -28.133  -4.599 -26.985  0.00  0.00    +0.000 C 
ATOM      8  C7  UNL     1     -27.378  -4.099 -28.224  0.00  0.00    +0.000 C 
ATOM      9  N1  UNL     1     -26.234  -3.228 -27.939  0.00  0.00    +0.000 NA
ATOM     10  C8  UNL     1     -25.020  -3.955 -27.556  0.00  0.00    +0.000 C 
ATOM     11  H9  UNL     1     -26.018  -2.703 -28.786  0.00  0.00    +0.000 HD
ENDROOT
TORSDOF 0
ENDMDL
