MODEL 1
REMARK VINA RESULT:    -4.808      0.000      0.000
REMARK INTER + INTRA:          -5.695
REMARK INTER:                  -5.348
REMARK INTRA:                  -0.347
REMARK UNBOUND:                -0.325
REMARK  Name = /home/anacleto/Desktop/manuscript_Mpro/naturecomm/supplementary_file_S2/6-chemical-library/molecular_docking/3D_ligand_structure/1104.pdb
REMARK  2 active torsions:
REMARK  status: ('A' for Active; 'I' for Inactive)
REMARK    1  A    between atoms: C6_6  and  N1_7
REMARK    2  A    between atoms: N1_7  and  C7_8
REMARK                            x       y       z     vdW  Elec       q    Type
REMARK                         _______ _______ _______ _____ _____    ______ ____
ROOT
ATOM      1  N1  UNL     1      15.320  10.677  -3.272  0.00  0.00    +0.000 N 
ATOM      2  H6  UNL     1      15.692   9.741  -3.409  0.00  0.00    +0.000 HD
ENDROOT
BRANCH   1   8
ATOM      3  C1  UNL     1      15.755  12.763  -2.162  0.00  0.00    +0.000 A 
ATOM      4  C2  UNL     1      16.523  13.591  -1.337  0.00  0.00    +0.000 A 
ATOM      5  C3  UNL     1      17.676  13.095  -0.738  0.00  0.00    +0.000 A 
ATOM      6  C4  UNL     1      18.061  11.780  -0.978  0.00  0.00    +0.000 A 
ATOM      7  C5  UNL     1      17.288  10.958  -1.806  0.00  0.00    +0.000 A 
ATOM      8  C6  UNL     1      16.102  11.422  -2.388  0.00  0.00    +0.000 A 
ENDBRANCH   1   8
BRANCH   1   9
ATOM      9  C7  UNL     1      14.735  11.267  -4.478  0.00  0.00    +0.000 C 
ATOM     10  C8  UNL     1      13.476  10.484  -4.878  0.00  0.00    +0.000 C 
ATOM     11  C9  UNL     1      12.890  10.994  -6.192  0.00  0.00    +0.000 C 
ATOM     12  C10 UNL     1      13.922  10.972  -7.315  0.00  0.00    +0.000 C 
ATOM     13  C11 UNL     1      15.188  11.728  -6.930  0.00  0.00    +0.000 C 
ATOM     14  C12 UNL     1      15.771  11.216  -5.615  0.00  0.00    +0.000 C 
ENDBRANCH   1   9
TORSDOF 2
ENDMDL
MODEL 2
REMARK VINA RESULT:    -4.792     13.757     15.614
REMARK INTER + INTRA:          -5.677
REMARK INTER:                  -5.375
REMARK INTRA:                  -0.302
REMARK UNBOUND:                -0.325
REMARK  Name = /home/anacleto/Desktop/manuscript_Mpro/naturecomm/supplementary_file_S2/6-chemical-library/molecular_docking/3D_ligand_structure/1104.pdb
REMARK  2 active torsions:
REMARK  status: ('A' for Active; 'I' for Inactive)
REMARK    1  A    between atoms: C6_6  and  N1_7
REMARK    2  A    between atoms: N1_7  and  C7_8
REMARK                            x       y       z     vdW  Elec       q    Type
REMARK                         _______ _______ _______ _____ _____    ______ ____
ROOT
ATOM      1  N1  UNL     1      17.967   4.609   8.141  0.00  0.00    +0.000 N 
ATOM      2  H6  UNL     1      18.385   4.320   7.260  0.00  0.00    +0.000 HD
ENDROOT
BRANCH   1   8
ATOM      3  C1  UNL     1      16.333   2.880   7.807  0.00  0.00    +0.000 A 
ATOM      4  C2  UNL     1      15.444   1.908   8.277  0.00  0.00    +0.000 A 
ATOM      5  C3  UNL     1      15.337   1.669   9.642  0.00  0.00    +0.000 A 
ATOM      6  C4  UNL     1      16.109   2.411  10.530  0.00  0.00    +0.000 A 
ATOM      7  C5  UNL     1      16.996   3.383  10.052  0.00  0.00    +0.000 A 
ATOM      8  C6  UNL     1      17.151   3.614   8.680  0.00  0.00    +0.000 A 
ENDBRANCH   1   8
BRANCH   1   9
ATOM      9  C7  UNL     1      18.847   5.429   8.976  0.00  0.00    +0.000 C 
ATOM     10  C8  UNL     1      18.914   6.856   8.411  0.00  0.00    +0.000 C 
ATOM     11  C9  UNL     1      19.905   7.721   9.185  0.00  0.00    +0.000 C 
ATOM     12  C10 UNL     1      21.293   7.090   9.225  0.00  0.00    +0.000 C 
ATOM     13  C11 UNL     1      21.246   5.664   9.765  0.00  0.00    +0.000 C 
ATOM     14  C12 UNL     1      20.253   4.802   8.989  0.00  0.00    +0.000 C 
ENDBRANCH   1   9
TORSDOF 2
ENDMDL
MODEL 3
REMARK VINA RESULT:    -4.751     13.946     15.253
REMARK INTER + INTRA:          -5.632
REMARK INTER:                  -5.308
REMARK INTRA:                  -0.324
REMARK UNBOUND:                -0.325
REMARK  Name = /home/anacleto/Desktop/manuscript_Mpro/naturecomm/supplementary_file_S2/6-chemical-library/molecular_docking/3D_ligand_structure/1104.pdb
REMARK  2 active torsions:
REMARK  status: ('A' for Active; 'I' for Inactive)
REMARK    1  A    between atoms: C6_6  and  N1_7
REMARK    2  A    between atoms: N1_7  and  C7_8
REMARK                            x       y       z     vdW  Elec       q    Type
REMARK                         _______ _______ _______ _____ _____    ______ ____
ROOT
ATOM      1  N1  UNL     1      17.991   4.807   8.226  0.00  0.00    +0.000 N 
ATOM      2  H6  UNL     1      17.164   5.385   8.097  0.00  0.00    +0.000 HD
ENDROOT
BRANCH   1   8
ATOM      3  C1  UNL     1      18.961   6.959   8.671  0.00  0.00    +0.000 A 
ATOM      4  C2  UNL     1      20.041   7.791   8.983  0.00  0.00    +0.000 A 
ATOM      5  C3  UNL     1      21.297   7.239   9.209  0.00  0.00    +0.000 A 
ATOM      6  C4  UNL     1      21.469   5.863   9.109  0.00  0.00    +0.000 A 
ATOM      7  C5  UNL     1      20.383   5.037   8.795  0.00  0.00    +0.000 A 
ATOM      8  C6  UNL     1      19.101   5.564   8.603  0.00  0.00    +0.000 A 
ENDBRANCH   1   8
BRANCH   1   9
ATOM      9  C7  UNL     1      17.713   3.493   8.810  0.00  0.00    +0.000 C 
ATOM     10  C8  UNL     1      16.564   2.820   8.043  0.00  0.00    +0.000 C 
ATOM     11  C9  UNL     1      16.163   1.492   8.682  0.00  0.00    +0.000 C 
ATOM     12  C10 UNL     1      15.806   1.661  10.155  0.00  0.00    +0.000 C 
ATOM     13  C11 UNL     1      16.927   2.346  10.930  0.00  0.00    +0.000 C 
ATOM     14  C12 UNL     1      17.325   3.672  10.288  0.00  0.00    +0.000 C 
ENDBRANCH   1   9
TORSDOF 2
ENDMDL
MODEL 4
REMARK VINA RESULT:    -4.692      0.604      5.502
REMARK INTER + INTRA:          -5.566
REMARK INTER:                  -5.233
REMARK INTRA:                  -0.332
REMARK UNBOUND:                -0.325
REMARK  Name = /home/anacleto/Desktop/manuscript_Mpro/naturecomm/supplementary_file_S2/6-chemical-library/molecular_docking/3D_ligand_structure/1104.pdb
REMARK  2 active torsions:
REMARK  status: ('A' for Active; 'I' for Inactive)
REMARK    1  A    between atoms: C6_6  and  N1_7
REMARK    2  A    between atoms: N1_7  and  C7_8
REMARK                            x       y       z     vdW  Elec       q    Type
REMARK                         _______ _______ _______ _____ _____    ______ ____
ROOT
ATOM      1  N1  UNL     1      14.970  11.034  -3.212  0.00  0.00    +0.000 N 
ATOM      2  H6  UNL     1      14.153  10.919  -2.619  0.00  0.00    +0.000 HD
ENDROOT
BRANCH   1   8
ATOM      3  C1  UNL     1      15.592  11.431  -5.499  0.00  0.00    +0.000 A 
ATOM      4  C2  UNL     1      15.314  11.476  -6.868  0.00  0.00    +0.000 A 
ATOM      5  C3  UNL     1      14.057  11.104  -7.333  0.00  0.00    +0.000 A 
ATOM      6  C4  UNL     1      13.083  10.703  -6.425  0.00  0.00    +0.000 A 
ATOM      7  C5  UNL     1      13.369  10.662  -5.055  0.00  0.00    +0.000 A 
ATOM      8  C6  UNL     1      14.639  10.992  -4.567  0.00  0.00    +0.000 A 
ENDBRANCH   1   8
BRANCH   1   9
ATOM      9  C7  UNL     1      15.962  11.973  -2.684  0.00  0.00    +0.000 C 
ATOM     10  C8  UNL     1      16.605  11.387  -1.418  0.00  0.00    +0.000 C 
ATOM     11  C9  UNL     1      17.569  12.377  -0.767  0.00  0.00    +0.000 C 
ATOM     12  C10 UNL     1      16.889  13.708  -0.464  0.00  0.00    +0.000 C 
ATOM     13  C11 UNL     1      16.227  14.297  -1.704  0.00  0.00    +0.000 C 
ATOM     14  C12 UNL     1      15.265  13.304  -2.352  0.00  0.00    +0.000 C 
ENDBRANCH   1   9
TORSDOF 2
ENDMDL
MODEL 5
REMARK VINA RESULT:    -4.657     14.204     16.823
REMARK INTER + INTRA:          -5.526
REMARK INTER:                  -5.180
REMARK INTRA:                  -0.346
REMARK UNBOUND:                -0.325
REMARK  Name = /home/anacleto/Desktop/manuscript_Mpro/naturecomm/supplementary_file_S2/6-chemical-library/molecular_docking/3D_ligand_structure/1104.pdb
REMARK  2 active torsions:
REMARK  status: ('A' for Active; 'I' for Inactive)
REMARK    1  A    between atoms: C6_6  and  N1_7
REMARK    2  A    between atoms: N1_7  and  C7_8
REMARK                            x       y       z     vdW  Elec       q    Type
REMARK                         _______ _______ _______ _____ _____    ______ ____
ROOT
ATOM      1  N1  UNL     1      19.445   7.952  11.601  0.00  0.00    +0.000 N 
ATOM      2  H6  UNL     1      19.309   8.912  11.295  0.00  0.00    +0.000 HD
ENDROOT
BRANCH   1   8
ATOM      3  C1  UNL     1      19.752   7.785  13.978  0.00  0.00    +0.000 A 
ATOM      4  C2  UNL     1      19.291   7.513  15.271  0.00  0.00    +0.000 A 
ATOM      5  C3  UNL     1      17.965   7.149  15.472  0.00  0.00    +0.000 A 
ATOM      6  C4  UNL     1      17.110   7.046  14.380  0.00  0.00    +0.000 A 
ATOM      7  C5  UNL     1      17.578   7.319  13.089  0.00  0.00    +0.000 A 
ATOM      8  C6  UNL     1      18.899   7.727  12.865  0.00  0.00    +0.000 A 
ENDBRANCH   1   8
BRANCH   1   9
ATOM      9  C7  UNL     1      19.345   6.964  10.525  0.00  0.00    +0.000 C 
ATOM     10  C8  UNL     1      20.280   5.782  10.819  0.00  0.00    +0.000 C 
ATOM     11  C9  UNL     1      20.293   4.775   9.671  0.00  0.00    +0.000 C 
ATOM     12  C10 UNL     1      20.657   5.437   8.346  0.00  0.00    +0.000 C 
ATOM     13  C11 UNL     1      19.752   6.626   8.045  0.00  0.00    +0.000 C 
ATOM     14  C12 UNL     1      19.741   7.630   9.195  0.00  0.00    +0.000 C 
ENDBRANCH   1   9
TORSDOF 2
ENDMDL
MODEL 6
REMARK VINA RESULT:    -4.626     14.226     15.385
REMARK INTER + INTRA:          -5.492
REMARK INTER:                  -5.187
REMARK INTRA:                  -0.305
REMARK UNBOUND:                -0.325
REMARK  Name = /home/anacleto/Desktop/manuscript_Mpro/naturecomm/supplementary_file_S2/6-chemical-library/molecular_docking/3D_ligand_structure/1104.pdb
REMARK  2 active torsions:
REMARK  status: ('A' for Active; 'I' for Inactive)
REMARK    1  A    between atoms: C6_6  and  N1_7
REMARK    2  A    between atoms: N1_7  and  C7_8
REMARK                            x       y       z     vdW  Elec       q    Type
REMARK                         _______ _______ _______ _____ _____    ______ ____
ROOT
ATOM      1  N1  UNL     1      17.259   4.261   8.725  0.00  0.00    +0.000 N 
ATOM      2  H6  UNL     1      16.659   4.987   9.109  0.00  0.00    +0.000 HD
ENDROOT
BRANCH   1   8
ATOM      3  C1  UNL     1      19.098   5.789   8.489  0.00  0.00    +0.000 A 
ATOM      4  C2  UNL     1      20.452   6.125   8.598  0.00  0.00    +0.000 A 
ATOM      5  C3  UNL     1      21.354   5.207   9.122  0.00  0.00    +0.000 A 
ATOM      6  C4  UNL     1      20.901   3.954   9.523  0.00  0.00    +0.000 A 
ATOM      7  C5  UNL     1      19.545   3.625   9.410  0.00  0.00    +0.000 A 
ATOM      8  C6  UNL     1      18.611   4.547   8.923  0.00  0.00    +0.000 A 
ENDBRANCH   1   8
BRANCH   1   9
ATOM      9  C7  UNL     1      16.722   2.907   8.870  0.00  0.00    +0.000 C 
ATOM     10  C8  UNL     1      16.240   2.394   7.505  0.00  0.00    +0.000 C 
ATOM     11  C9  UNL     1      15.571   1.026   7.622  0.00  0.00    +0.000 C 
ATOM     12  C10 UNL     1      14.426   1.044   8.629  0.00  0.00    +0.000 C 
ATOM     13  C11 UNL     1      14.879   1.570   9.987  0.00  0.00    +0.000 C 
ATOM     14  C12 UNL     1      15.549   2.937   9.865  0.00  0.00    +0.000 C 
ENDBRANCH   1   9
TORSDOF 2
ENDMDL
MODEL 7
REMARK VINA RESULT:    -4.609      0.728      5.150
REMARK INTER + INTRA:          -5.473
REMARK INTER:                  -5.285
REMARK INTRA:                  -0.188
REMARK UNBOUND:                -0.325
REMARK  Name = /home/anacleto/Desktop/manuscript_Mpro/naturecomm/supplementary_file_S2/6-chemical-library/molecular_docking/3D_ligand_structure/1104.pdb
REMARK  2 active torsions:
REMARK  status: ('A' for Active; 'I' for Inactive)
REMARK    1  A    between atoms: C6_6  and  N1_7
REMARK    2  A    between atoms: N1_7  and  C7_8
REMARK                            x       y       z     vdW  Elec       q    Type
REMARK                         _______ _______ _______ _____ _____    ______ ____
ROOT
ATOM      1  N1  UNL     1      15.009  10.675  -3.198  0.00  0.00    +0.000 N 
ATOM      2  H6  UNL     1      14.356   9.972  -2.858  0.00  0.00    +0.000 HD
ENDROOT
BRANCH   1   8
ATOM      3  C1  UNL     1      13.556  10.743  -5.110  0.00  0.00    +0.000 A 
ATOM      4  C2  UNL     1      13.312  10.923  -6.475  0.00  0.00    +0.000 A 
ATOM      5  C3  UNL     1      14.355  11.276  -7.324  0.00  0.00    +0.000 A 
ATOM      6  C4  UNL     1      15.637  11.432  -6.807  0.00  0.00    +0.000 A 
ATOM      7  C5  UNL     1      15.873  11.249  -5.439  0.00  0.00    +0.000 A 
ATOM      8  C6  UNL     1      14.832  10.934  -4.558  0.00  0.00    +0.000 A 
ENDBRANCH   1   8
BRANCH   1   9
ATOM      9  C7  UNL     1      15.289  11.741  -2.234  0.00  0.00    +0.000 C 
ATOM     10  C8  UNL     1      15.015  13.107  -2.881  0.00  0.00    +0.000 C 
ATOM     11  C9  UNL     1      15.396  14.257  -1.951  0.00  0.00    +0.000 C 
ATOM     12  C10 UNL     1      16.848  14.154  -1.495  0.00  0.00    +0.000 C 
ATOM     13  C11 UNL     1      17.146  12.797  -0.868  0.00  0.00    +0.000 C 
ATOM     14  C12 UNL     1      16.762  11.651  -1.800  0.00  0.00    +0.000 C 
ENDBRANCH   1   9
TORSDOF 2
ENDMDL
MODEL 8
REMARK VINA RESULT:    -4.565     14.526     15.790
REMARK INTER + INTRA:          -5.424
REMARK INTER:                  -5.142
REMARK INTRA:                  -0.282
REMARK UNBOUND:                -0.325
REMARK  Name = /home/anacleto/Desktop/manuscript_Mpro/naturecomm/supplementary_file_S2/6-chemical-library/molecular_docking/3D_ligand_structure/1104.pdb
REMARK  2 active torsions:
REMARK  status: ('A' for Active; 'I' for Inactive)
REMARK    1  A    between atoms: C6_6  and  N1_7
REMARK    2  A    between atoms: N1_7  and  C7_8
REMARK                            x       y       z     vdW  Elec       q    Type
REMARK                         _______ _______ _______ _____ _____    ______ ____
ROOT
ATOM      1  N1  UNL     1      17.904   4.206  10.063  0.00  0.00    +0.000 N 
ATOM      2  H6  UNL     1      17.632   4.574  10.971  0.00  0.00    +0.000 HD
ENDROOT
BRANCH   1   8
ATOM      3  C1  UNL     1      15.840   3.000  10.300  0.00  0.00    +0.000 A 
ATOM      4  C2  UNL     1      14.809   2.197   9.801  0.00  0.00    +0.000 A 
ATOM      5  C3  UNL     1      14.813   1.817   8.463  0.00  0.00    +0.000 A 
ATOM      6  C4  UNL     1      15.854   2.230   7.637  0.00  0.00    +0.000 A 
ATOM      7  C5  UNL     1      16.882   3.032   8.145  0.00  0.00    +0.000 A 
ATOM      8  C6  UNL     1      16.879   3.461   9.478  0.00  0.00    +0.000 A 
ENDBRANCH   1   8
BRANCH   1   9
ATOM      9  C7  UNL     1      18.749   5.112   9.282  0.00  0.00    +0.000 C 
ATOM     10  C8  UNL     1      20.129   4.474   9.066  0.00  0.00    +0.000 C 
ATOM     11  C9  UNL     1      21.083   5.426   8.349  0.00  0.00    +0.000 C 
ATOM     12  C10 UNL     1      21.210   6.755   9.086  0.00  0.00    +0.000 C 
ATOM     13  C11 UNL     1      19.848   7.397   9.327  0.00  0.00    +0.000 C 
ATOM     14  C12 UNL     1      18.897   6.441  10.043  0.00  0.00    +0.000 C 
ENDBRANCH   1   9
TORSDOF 2
ENDMDL
MODEL 9
REMARK VINA RESULT:    -4.543      1.939      3.127
REMARK INTER + INTRA:          -5.399
REMARK INTER:                  -5.074
REMARK INTRA:                  -0.325
REMARK UNBOUND:                -0.325
REMARK  Name = /home/anacleto/Desktop/manuscript_Mpro/naturecomm/supplementary_file_S2/6-chemical-library/molecular_docking/3D_ligand_structure/1104.pdb
REMARK  2 active torsions:
REMARK  status: ('A' for Active; 'I' for Inactive)
REMARK    1  A    between atoms: C6_6  and  N1_7
REMARK    2  A    between atoms: N1_7  and  C7_8
REMARK                            x       y       z     vdW  Elec       q    Type
REMARK                         _______ _______ _______ _____ _____    ______ ____
ROOT
ATOM      1  N1  UNL     1      14.185  14.135  -4.356  0.00  0.00    +0.000 N 
ATOM      2  H6  UNL     1      13.197  14.375  -4.350  0.00  0.00    +0.000 HD
ENDROOT
BRANCH   1   8
ATOM      3  C1  UNL     1      15.753  13.652  -2.600  0.00  0.00    +0.000 A 
ATOM      4  C2  UNL     1      16.387  13.949  -1.390  0.00  0.00    +0.000 A 
ATOM      5  C3  UNL     1      16.081  15.127  -0.718  0.00  0.00    +0.000 A 
ATOM      6  C4  UNL     1      15.134  15.994  -1.251  0.00  0.00    +0.000 A 
ATOM      7  C5  UNL     1      14.502  15.689  -2.462  0.00  0.00    +0.000 A 
ATOM      8  C6  UNL     1      14.822  14.530  -3.178  0.00  0.00    +0.000 A 
ENDBRANCH   1   8
BRANCH   1   9
ATOM      9  C7  UNL     1      14.484  12.860  -5.011  0.00  0.00    +0.000 C 
ATOM     10  C8  UNL     1      15.296  13.114  -6.289  0.00  0.00    +0.000 C 
ATOM     11  C9  UNL     1      15.540  11.823  -7.067  0.00  0.00    +0.000 C 
ATOM     12  C10 UNL     1      14.234  11.104  -7.389  0.00  0.00    +0.000 C 
ATOM     13  C11 UNL     1      13.403  10.860  -6.134  0.00  0.00    +0.000 C 
ATOM     14  C12 UNL     1      13.162  12.153  -5.359  0.00  0.00    +0.000 C 
ENDBRANCH   1   9
TORSDOF 2
ENDMDL
