MODEL 1
REMARK VINA RESULT:    -3.964      0.000      0.000
REMARK INTER + INTRA:          -4.282
REMARK INTER:                  -4.209
REMARK INTRA:                  -0.073
REMARK UNBOUND:                -0.086
REMARK  Name = /home/anacleto/Desktop/manuscript_Mpro/naturecomm/supplementary_file_S2/6-chemical-library/molecular_docking/3D_ligand_structure/1333.pdb
REMARK  1 active torsions:
REMARK  status: ('A' for Active; 'I' for Inactive)
REMARK    1  A    between atoms: N2_5  and  C4_6
REMARK                            x       y       z     vdW  Elec       q    Type
REMARK                         _______ _______ _______ _____ _____    ______ ____
ROOT
ATOM      1  C4  UNL     1      15.098  11.112  -4.801  0.00  0.00    +0.000 A 
ATOM      2  C5  UNL     1      13.767  10.726  -4.992  0.00  0.00    +0.000 A 
ATOM      3  C6  UNL     1      13.231  10.713  -6.280  0.00  0.00    +0.000 A 
ATOM      4  C7  UNL     1      14.042  11.087  -7.337  0.00  0.00    +0.000 A 
ATOM      5  N3  UNL     1      15.328  11.466  -7.190  0.00  0.00    +0.000 NA
ATOM      6  C8  UNL     1      15.829  11.470  -5.930  0.00  0.00    +0.000 A 
ENDROOT
BRANCH   1  11
ATOM      7  C1  UNL     1      16.821  10.481  -3.087  0.00  0.00    +0.000 A 
ATOM      8  N1  UNL     1      17.103  10.711  -1.823  0.00  0.00    +0.000 NA
ATOM      9  C2  UNL     1      16.122  11.550  -1.388  0.00  0.00    +0.000 A 
ATOM     10  C3  UNL     1      15.236  11.829  -2.401  0.00  0.00    +0.000 A 
ATOM     11  N2  UNL     1      15.683  11.138  -3.508  0.00  0.00    +0.000 N 
ENDBRANCH   1  11
TORSDOF 1
ENDMDL
MODEL 2
REMARK VINA RESULT:    -3.864      1.060      4.603
REMARK INTER + INTRA:          -4.176
REMARK INTER:                  -4.098
REMARK INTRA:                  -0.078
REMARK UNBOUND:                -0.086
REMARK  Name = /home/anacleto/Desktop/manuscript_Mpro/naturecomm/supplementary_file_S2/6-chemical-library/molecular_docking/3D_ligand_structure/1333.pdb
REMARK  1 active torsions:
REMARK  status: ('A' for Active; 'I' for Inactive)
REMARK    1  A    between atoms: N2_5  and  C4_6
REMARK                            x       y       z     vdW  Elec       q    Type
REMARK                         _______ _______ _______ _____ _____    ______ ____
ROOT
ATOM      1  C4  UNL     1      15.818  11.042  -3.969  0.00  0.00    +0.000 A 
ATOM      2  C5  UNL     1      17.138  10.586  -4.058  0.00  0.00    +0.000 A 
ATOM      3  C6  UNL     1      17.940  10.571  -2.917  0.00  0.00    +0.000 A 
ATOM      4  C7  UNL     1      17.399  11.011  -1.723  0.00  0.00    +0.000 A 
ATOM      5  N3  UNL     1      16.132  11.457  -1.599  0.00  0.00    +0.000 NA
ATOM      6  C8  UNL     1      15.369  11.463  -2.720  0.00  0.00    +0.000 A 
ENDROOT
BRANCH   1  11
ATOM      7  C1  UNL     1      15.282  11.488  -6.381  0.00  0.00    +0.000 A 
ATOM      8  N1  UNL     1      14.268  11.394  -7.212  0.00  0.00    +0.000 NA
ATOM      9  C2  UNL     1      13.241  10.900  -6.465  0.00  0.00    +0.000 A 
ATOM     10  C3  UNL     1      13.641  10.693  -5.166  0.00  0.00    +0.000 A 
ATOM     11  N2  UNL     1      14.966  11.073  -5.104  0.00  0.00    +0.000 N 
ENDBRANCH   1  11
TORSDOF 1
ENDMDL
MODEL 3
REMARK VINA RESULT:    -3.794      1.839      4.754
REMARK INTER + INTRA:          -4.102
REMARK INTER:                  -4.016
REMARK INTRA:                  -0.086
REMARK UNBOUND:                -0.086
REMARK  Name = /home/anacleto/Desktop/manuscript_Mpro/naturecomm/supplementary_file_S2/6-chemical-library/molecular_docking/3D_ligand_structure/1333.pdb
REMARK  1 active torsions:
REMARK  status: ('A' for Active; 'I' for Inactive)
REMARK    1  A    between atoms: N2_5  and  C4_6
REMARK                            x       y       z     vdW  Elec       q    Type
REMARK                         _______ _______ _______ _____ _____    ______ ____
ROOT
ATOM      1  C4  UNL     1      15.409  12.302  -2.826  0.00  0.00    +0.000 A 
ATOM      2  C5  UNL     1      16.035  11.335  -2.032  0.00  0.00    +0.000 A 
ATOM      3  C6  UNL     1      16.791  11.732  -0.929  0.00  0.00    +0.000 A 
ATOM      4  C7  UNL     1      16.900  13.084  -0.655  0.00  0.00    +0.000 A 
ATOM      5  N3  UNL     1      16.311  14.044  -1.398  0.00  0.00    +0.000 NA
ATOM      6  C8  UNL     1      15.580  13.636  -2.464  0.00  0.00    +0.000 A 
ENDROOT
BRANCH   1  11
ATOM      7  C1  UNL     1      14.203  10.680  -4.316  0.00  0.00    +0.000 A 
ATOM      8  N1  UNL     1      13.492  10.679  -5.422  0.00  0.00    +0.000 NA
ATOM      9  C2  UNL     1      13.441  11.984  -5.812  0.00  0.00    +0.000 A 
ATOM     10  C3  UNL     1      14.130  12.782  -4.930  0.00  0.00    +0.000 A 
ATOM     11  N2  UNL     1      14.628  11.942  -3.956  0.00  0.00    +0.000 N 
ENDBRANCH   1  11
TORSDOF 1
ENDMDL
MODEL 4
REMARK VINA RESULT:    -3.761     14.596     17.472
REMARK INTER + INTRA:          -4.068
REMARK INTER:                  -3.998
REMARK INTRA:                  -0.069
REMARK UNBOUND:                -0.086
REMARK  Name = /home/anacleto/Desktop/manuscript_Mpro/naturecomm/supplementary_file_S2/6-chemical-library/molecular_docking/3D_ligand_structure/1333.pdb
REMARK  1 active torsions:
REMARK  status: ('A' for Active; 'I' for Inactive)
REMARK    1  A    between atoms: N2_5  and  C4_6
REMARK                            x       y       z     vdW  Elec       q    Type
REMARK                         _______ _______ _______ _____ _____    ______ ____
ROOT
ATOM      1  C4  UNL     1      19.172   7.142  11.919  0.00  0.00    +0.000 A 
ATOM      2  C5  UNL     1      17.978   7.395  12.604  0.00  0.00    +0.000 A 
ATOM      3  C6  UNL     1      18.022   7.849  13.922  0.00  0.00    +0.000 A 
ATOM      4  C7  UNL     1      19.257   8.036  14.515  0.00  0.00    +0.000 A 
ATOM      5  N3  UNL     1      20.428   7.802  13.887  0.00  0.00    +0.000 NA
ATOM      6  C8  UNL     1      20.363   7.362  12.607  0.00  0.00    +0.000 A 
ENDROOT
BRANCH   1  11
ATOM      7  C1  UNL     1      18.860   5.415  10.123  0.00  0.00    +0.000 A 
ATOM      8  N1  UNL     1      18.957   5.306   8.816  0.00  0.00    +0.000 NA
ATOM      9  C2  UNL     1      19.347   6.538   8.385  0.00  0.00    +0.000 A 
ATOM     10  C3  UNL     1      19.487   7.402   9.444  0.00  0.00    +0.000 A 
ATOM     11  N2  UNL     1      19.173   6.680  10.577  0.00  0.00    +0.000 N 
ENDBRANCH   1  11
TORSDOF 1
ENDMDL
MODEL 5
REMARK VINA RESULT:    -3.740     14.751     16.799
REMARK INTER + INTRA:          -4.045
REMARK INTER:                  -3.975
REMARK INTRA:                  -0.070
REMARK UNBOUND:                -0.086
REMARK  Name = /home/anacleto/Desktop/manuscript_Mpro/naturecomm/supplementary_file_S2/6-chemical-library/molecular_docking/3D_ligand_structure/1333.pdb
REMARK  1 active torsions:
REMARK  status: ('A' for Active; 'I' for Inactive)
REMARK    1  A    between atoms: N2_5  and  C4_6
REMARK                            x       y       z     vdW  Elec       q    Type
REMARK                         _______ _______ _______ _____ _____    ______ ____
ROOT
ATOM      1  C4  UNL     1      19.120   6.766  10.843  0.00  0.00    +0.000 A 
ATOM      2  C5  UNL     1      19.519   7.618   9.808  0.00  0.00    +0.000 A 
ATOM      3  C6  UNL     1      19.608   7.126   8.506  0.00  0.00    +0.000 A 
ATOM      4  C7  UNL     1      19.297   5.798   8.278  0.00  0.00    +0.000 A 
ATOM      5  N3  UNL     1      18.909   4.947   9.251  0.00  0.00    +0.000 NA
ATOM      6  C8  UNL     1      18.828   5.446  10.509  0.00  0.00    +0.000 A 
ENDROOT
BRANCH   1  11
ATOM      7  C1  UNL     1      17.862   7.440  12.909  0.00  0.00    +0.000 A 
ATOM      8  N1  UNL     1      18.102   7.867  14.129  0.00  0.00    +0.000 NA
ATOM      9  C2  UNL     1      19.460   7.938  14.219  0.00  0.00    +0.000 A 
ATOM     10  C3  UNL     1      20.046   7.549  13.039  0.00  0.00    +0.000 A 
ATOM     11  N2  UNL     1      19.015   7.224  12.183  0.00  0.00    +0.000 N 
ENDBRANCH   1  11
TORSDOF 1
ENDMDL
MODEL 6
REMARK VINA RESULT:    -3.725      3.676      6.615
REMARK INTER + INTRA:          -4.029
REMARK INTER:                  -3.951
REMARK INTRA:                  -0.077
REMARK UNBOUND:                -0.086
REMARK  Name = /home/anacleto/Desktop/manuscript_Mpro/naturecomm/supplementary_file_S2/6-chemical-library/molecular_docking/3D_ligand_structure/1333.pdb
REMARK  1 active torsions:
REMARK  status: ('A' for Active; 'I' for Inactive)
REMARK    1  A    between atoms: N2_5  and  C4_6
REMARK                            x       y       z     vdW  Elec       q    Type
REMARK                         _______ _______ _______ _____ _____    ______ ____
ROOT
ATOM      1  C4  UNL     1      17.732  13.966  -0.432  0.00  0.00    +0.000 A 
ATOM      2  C5  UNL     1      19.076  13.637  -0.230  0.00  0.00    +0.000 A 
ATOM      3  C6  UNL     1      19.921  14.546   0.407  0.00  0.00    +0.000 A 
ATOM      4  C7  UNL     1      19.396  15.756   0.822  0.00  0.00    +0.000 A 
ATOM      5  N3  UNL     1      18.106  16.108   0.644  0.00  0.00    +0.000 NA
ATOM      6  C8  UNL     1      17.302  15.210   0.024  0.00  0.00    +0.000 A 
ENDROOT
BRANCH   1  11
ATOM      7  C1  UNL     1      16.717  11.712  -0.870  0.00  0.00    +0.000 A 
ATOM      8  N1  UNL     1      15.789  11.164  -1.625  0.00  0.00    +0.000 NA
ATOM      9  C2  UNL     1      15.274  12.192  -2.356  0.00  0.00    +0.000 A 
ATOM     10  C3  UNL     1      15.898  13.375  -2.039  0.00  0.00    +0.000 A 
ATOM     11  N2  UNL     1      16.837  13.071  -1.075  0.00  0.00    +0.000 N 
ENDBRANCH   1  11
TORSDOF 1
ENDMDL
MODEL 7
REMARK VINA RESULT:    -3.722      1.891      4.920
REMARK INTER + INTRA:          -4.026
REMARK INTER:                  -3.939
REMARK INTRA:                  -0.086
REMARK UNBOUND:                -0.086
REMARK  Name = /home/anacleto/Desktop/manuscript_Mpro/naturecomm/supplementary_file_S2/6-chemical-library/molecular_docking/3D_ligand_structure/1333.pdb
REMARK  1 active torsions:
REMARK  status: ('A' for Active; 'I' for Inactive)
REMARK    1  A    between atoms: N2_5  and  C4_6
REMARK                            x       y       z     vdW  Elec       q    Type
REMARK                         _______ _______ _______ _____ _____    ______ ____
ROOT
ATOM      1  C4  UNL     1      15.546  12.663  -2.676  0.00  0.00    +0.000 A 
ATOM      2  C5  UNL     1      15.821  14.017  -2.455  0.00  0.00    +0.000 A 
ATOM      3  C6  UNL     1      16.574  14.395  -1.343  0.00  0.00    +0.000 A 
ATOM      4  C7  UNL     1      17.029  13.409  -0.487  0.00  0.00    +0.000 A 
ATOM      5  N3  UNL     1      16.783  12.095  -0.667  0.00  0.00    +0.000 NA
ATOM      6  C8  UNL     1      16.050  11.749  -1.754  0.00  0.00    +0.000 A 
ENDROOT
BRANCH   1  11
ATOM      7  C1  UNL     1      14.504  10.937  -4.172  0.00  0.00    +0.000 A 
ATOM      8  N1  UNL     1      13.770  10.872  -5.262  0.00  0.00    +0.000 NA
ATOM      9  C2  UNL     1      13.554  12.169  -5.621  0.00  0.00    +0.000 A 
ATOM     10  C3  UNL     1      14.165  13.027  -4.738  0.00  0.00    +0.000 A 
ATOM     11  N2  UNL     1      14.785  12.234  -3.795  0.00  0.00    +0.000 N 
ENDBRANCH   1  11
TORSDOF 1
ENDMDL
MODEL 8
REMARK VINA RESULT:    -3.582     15.432     17.166
REMARK INTER + INTRA:          -3.877
REMARK INTER:                  -3.809
REMARK INTRA:                  -0.068
REMARK UNBOUND:                -0.086
REMARK  Name = /home/anacleto/Desktop/manuscript_Mpro/naturecomm/supplementary_file_S2/6-chemical-library/molecular_docking/3D_ligand_structure/1333.pdb
REMARK  1 active torsions:
REMARK  status: ('A' for Active; 'I' for Inactive)
REMARK    1  A    between atoms: N2_5  and  C4_6
REMARK                            x       y       z     vdW  Elec       q    Type
REMARK                         _______ _______ _______ _____ _____    ______ ____
ROOT
ATOM      1  C4  UNL     1      19.409   6.747  11.151  0.00  0.00    +0.000 A 
ATOM      2  C5  UNL     1      19.056   7.133   9.853  0.00  0.00    +0.000 A 
ATOM      3  C6  UNL     1      20.047   7.266   8.880  0.00  0.00    +0.000 A 
ATOM      4  C7  UNL     1      21.359   7.011   9.234  0.00  0.00    +0.000 A 
ATOM      5  N3  UNL     1      21.737   6.638  10.475  0.00  0.00    +0.000 NA
ATOM      6  C8  UNL     1      20.758   6.514  11.405  0.00  0.00    +0.000 A 
ENDROOT
BRANCH   1  11
ATOM      7  C1  UNL     1      17.904   7.584  12.978  0.00  0.00    +0.000 A 
ATOM      8  N1  UNL     1      17.014   7.121  13.830  0.00  0.00    +0.000 NA
ATOM      9  C2  UNL     1      16.949   5.783  13.581  0.00  0.00    +0.000 A 
ATOM     10  C3  UNL     1      17.809   5.434  12.568  0.00  0.00    +0.000 A 
ATOM     11  N2  UNL     1      18.433   6.599  12.172  0.00  0.00    +0.000 N 
ENDBRANCH   1  11
TORSDOF 1
ENDMDL
MODEL 9
REMARK VINA RESULT:    -3.400      4.538      6.659
REMARK INTER + INTRA:          -3.685
REMARK INTER:                  -3.599
REMARK INTRA:                  -0.086
REMARK UNBOUND:                -0.086
REMARK  Name = /home/anacleto/Desktop/manuscript_Mpro/naturecomm/supplementary_file_S2/6-chemical-library/molecular_docking/3D_ligand_structure/1333.pdb
REMARK  1 active torsions:
REMARK  status: ('A' for Active; 'I' for Inactive)
REMARK    1  A    between atoms: N2_5  and  C4_6
REMARK                            x       y       z     vdW  Elec       q    Type
REMARK                         _______ _______ _______ _____ _____    ______ ____
ROOT
ATOM      1  C4  UNL     1      18.505  13.706  -0.503  0.00  0.00    +0.000 A 
ATOM      2  C5  UNL     1      19.114  12.453  -0.633  0.00  0.00    +0.000 A 
ATOM      3  C6  UNL     1      18.352  11.353  -1.027  0.00  0.00    +0.000 A 
ATOM      4  C7  UNL     1      17.004  11.539  -1.278  0.00  0.00    +0.000 A 
ATOM      5  N3  UNL     1      16.383  12.731  -1.162  0.00  0.00    +0.000 NA
ATOM      6  C8  UNL     1      17.143  13.787  -0.779  0.00  0.00    +0.000 A 
ENDROOT
BRANCH   1  11
ATOM      7  C1  UNL     1      18.763  16.126   0.116  0.00  0.00    +0.000 A 
ATOM      8  N1  UNL     1      19.706  16.969   0.476  0.00  0.00    +0.000 NA
ATOM      9  C2  UNL     1      20.852  16.232   0.496  0.00  0.00    +0.000 A 
ATOM     10  C3  UNL     1      20.598  14.928   0.143  0.00  0.00    +0.000 A 
ATOM     11  N2  UNL     1      19.243  14.852  -0.106  0.00  0.00    +0.000 N 
ENDBRANCH   1  11
TORSDOF 1
ENDMDL
