MODEL 1
REMARK VINA RESULT:    -4.799      0.000      0.000
REMARK INTER + INTRA:          -7.772
REMARK INTER:                  -6.771
REMARK INTRA:                  -1.000
REMARK UNBOUND:                -1.570
REMARK  Name = /home/anacleto/Desktop/manuscript_Mpro/naturecomm/supplementary_file_S2/6-chemical-library/molecular_docking/3D_ligand_structure/566.pdb
REMARK  5 active torsions:
REMARK  status: ('A' for Active; 'I' for Inactive)
REMARK    1  A    between atoms: C6_6  and  O1_7
REMARK    2  A    between atoms: O1_7  and  C7_8
REMARK    3  A    between atoms: C7_8  and  C8_9
REMARK    4  A    between atoms: N1_11  and  C9_12
REMARK    5  A    between atoms: C9_12  and  C10_13
REMARK                            x       y       z     vdW  Elec       q    Type
REMARK                         _______ _______ _______ _____ _____    ______ ____
ROOT
ATOM      1  C8  UNL     1      22.320   5.948  12.722  0.00  0.00    +0.000 C 
ATOM      2  O2  UNL     1      22.014   4.761  12.813  0.00  0.00    +0.000 OA
ATOM      3  N1  UNL     1      22.728   6.544  11.551  0.00  0.00    +0.000 N 
ATOM      4  H8  UNL     1      22.779   7.557  11.558  0.00  0.00    +0.000 HD
ENDROOT
BRANCH   1   5
ATOM      5  C7  UNL     1      22.302   6.882  13.934  0.00  0.00    +0.000 C 
BRANCH   5   6
ATOM      6  O1  UNL     1      21.505   8.037  13.681  0.00  0.00    +0.000 OA
BRANCH   6  12
ATOM      7  C1  UNL     1      19.383   7.778  12.457  0.00  0.00    +0.000 A 
ATOM      8  C2  UNL     1      18.001   7.584  12.540  0.00  0.00    +0.000 A 
ATOM      9  C3  UNL     1      17.381   7.462  13.782  0.00  0.00    +0.000 A 
ATOM     10  C4  UNL     1      18.143   7.534  14.945  0.00  0.00    +0.000 A 
ATOM     11  C5  UNL     1      19.523   7.729  14.863  0.00  0.00    +0.000 A 
ATOM     12  C6  UNL     1      20.151   7.852  13.620  0.00  0.00    +0.000 A 
ENDBRANCH   6  12
ENDBRANCH   5   6
ENDBRANCH   1   5
BRANCH   3  13
ATOM     13  C9  UNL     1      22.669   5.869  10.278  0.00  0.00    +0.000 C 
BRANCH  13  14
ATOM     14  C10 UNL     1      21.381   6.184   9.562  0.00  0.00    +0.000 A 
ATOM     15  C11 UNL     1      21.069   7.501   9.197  0.00  0.00    +0.000 A 
ATOM     16  C12 UNL     1      19.863   7.790   8.555  0.00  0.00    +0.000 A 
ATOM     17  C13 UNL     1      18.957   6.767   8.277  0.00  0.00    +0.000 A 
ATOM     18  C14 UNL     1      19.254   5.455   8.644  0.00  0.00    +0.000 A 
ATOM     19  C15 UNL     1      20.458   5.165   9.286  0.00  0.00    +0.000 A 
ENDBRANCH  13  14
ENDBRANCH   3  13
TORSDOF 5
ENDMDL
MODEL 2
REMARK VINA RESULT:    -4.511      5.592      7.556
REMARK INTER + INTRA:          -7.400
REMARK INTER:                  -7.027
REMARK INTRA:                  -0.374
REMARK UNBOUND:                -1.570
REMARK  Name = /home/anacleto/Desktop/manuscript_Mpro/naturecomm/supplementary_file_S2/6-chemical-library/molecular_docking/3D_ligand_structure/566.pdb
REMARK  5 active torsions:
REMARK  status: ('A' for Active; 'I' for Inactive)
REMARK    1  A    between atoms: C6_6  and  O1_7
REMARK    2  A    between atoms: O1_7  and  C7_8
REMARK    3  A    between atoms: C7_8  and  C8_9
REMARK    4  A    between atoms: N1_11  and  C9_12
REMARK    5  A    between atoms: C9_12  and  C10_13
REMARK                            x       y       z     vdW  Elec       q    Type
REMARK                         _______ _______ _______ _____ _____    ______ ____
ROOT
ATOM      1  C8  UNL     1      17.498   2.380   8.893  0.00  0.00    +0.000 C 
ATOM      2  O2  UNL     1      18.167   1.397   9.205  0.00  0.00    +0.000 OA
ATOM      3  N1  UNL     1      16.464   2.342   7.986  0.00  0.00    +0.000 N 
ATOM      4  H8  UNL     1      15.875   3.167   7.945  0.00  0.00    +0.000 HD
ENDROOT
BRANCH   1   5
ATOM      5  C7  UNL     1      17.781   3.767   9.472  0.00  0.00    +0.000 C 
BRANCH   5   6
ATOM      6  O1  UNL     1      18.058   4.709   8.439  0.00  0.00    +0.000 OA
BRANCH   6  12
ATOM      7  C1  UNL     1      18.924   6.997   8.729  0.00  0.00    +0.000 A 
ATOM      8  C2  UNL     1      20.040   7.801   8.982  0.00  0.00    +0.000 A 
ATOM      9  C3  UNL     1      21.292   7.225   9.182  0.00  0.00    +0.000 A 
ATOM     10  C4  UNL     1      21.433   5.841   9.129  0.00  0.00    +0.000 A 
ATOM     11  C5  UNL     1      20.321   5.037   8.876  0.00  0.00    +0.000 A 
ATOM     12  C6  UNL     1      19.061   5.608   8.675  0.00  0.00    +0.000 A 
ENDBRANCH   6  12
ENDBRANCH   5   6
ENDBRANCH   1   5
BRANCH   3  13
ATOM     13  C9  UNL     1      15.953   1.106   7.446  0.00  0.00    +0.000 C 
BRANCH  13  14
ATOM     14  C10 UNL     1      14.688   0.694   8.153  0.00  0.00    +0.000 A 
ATOM     15  C11 UNL     1      13.911   1.637   8.841  0.00  0.00    +0.000 A 
ATOM     16  C12 UNL     1      12.752   1.244   9.513  0.00  0.00    +0.000 A 
ATOM     17  C13 UNL     1      12.362  -0.095   9.510  0.00  0.00    +0.000 A 
ATOM     18  C14 UNL     1      13.133  -1.042   8.837  0.00  0.00    +0.000 A 
ATOM     19  C15 UNL     1      14.291  -0.651   8.165  0.00  0.00    +0.000 A 
ENDBRANCH  13  14
ENDBRANCH   3  13
TORSDOF 5
ENDMDL
MODEL 3
REMARK VINA RESULT:    -4.443      5.090      7.150
REMARK INTER + INTRA:          -7.311
REMARK INTER:                  -6.966
REMARK INTRA:                  -0.346
REMARK UNBOUND:                -1.570
REMARK  Name = /home/anacleto/Desktop/manuscript_Mpro/naturecomm/supplementary_file_S2/6-chemical-library/molecular_docking/3D_ligand_structure/566.pdb
REMARK  5 active torsions:
REMARK  status: ('A' for Active; 'I' for Inactive)
REMARK    1  A    between atoms: C6_6  and  O1_7
REMARK    2  A    between atoms: O1_7  and  C7_8
REMARK    3  A    between atoms: C7_8  and  C8_9
REMARK    4  A    between atoms: N1_11  and  C9_12
REMARK    5  A    between atoms: C9_12  and  C10_13
REMARK                            x       y       z     vdW  Elec       q    Type
REMARK                         _______ _______ _______ _____ _____    ______ ____
ROOT
ATOM      1  C8  UNL     1      17.302   3.218   9.773  0.00  0.00    +0.000 C 
ATOM      2  O2  UNL     1      16.367   3.484  10.526  0.00  0.00    +0.000 OA
ATOM      3  N1  UNL     1      17.140   2.783   8.478  0.00  0.00    +0.000 N 
ATOM      4  H8  UNL     1      17.975   2.769   7.903  0.00  0.00    +0.000 HD
ENDROOT
BRANCH   1   5
ATOM      5  C7  UNL     1      18.758   3.320  10.229  0.00  0.00    +0.000 C 
BRANCH   5   6
ATOM      6  O1  UNL     1      19.607   3.716   9.154  0.00  0.00    +0.000 OA
BRANCH   6  12
ATOM      7  C1  UNL     1      21.217   5.536   9.559  0.00  0.00    +0.000 A 
ATOM      8  C2  UNL     1      21.480   6.906   9.466  0.00  0.00    +0.000 A 
ATOM      9  C3  UNL     1      20.526   7.773   8.939  0.00  0.00    +0.000 A 
ATOM     10  C4  UNL     1      19.302   7.271   8.502  0.00  0.00    +0.000 A 
ATOM     11  C5  UNL     1      19.038   5.903   8.594  0.00  0.00    +0.000 A 
ATOM     12  C6  UNL     1      19.992   5.028   9.122  0.00  0.00    +0.000 A 
ENDBRANCH   6  12
ENDBRANCH   5   6
ENDBRANCH   1   5
BRANCH   3  13
ATOM     13  C9  UNL     1      15.855   2.764   7.823  0.00  0.00    +0.000 C 
BRANCH  13  14
ATOM     14  C10 UNL     1      15.203   1.412   7.959  0.00  0.00    +0.000 A 
ATOM     15  C11 UNL     1      15.833   0.260   7.468  0.00  0.00    +0.000 A 
ATOM     16  C12 UNL     1      15.213  -0.986   7.578  0.00  0.00    +0.000 A 
ATOM     17  C13 UNL     1      13.957  -1.091   8.173  0.00  0.00    +0.000 A 
ATOM     18  C14 UNL     1      13.317   0.049   8.656  0.00  0.00    +0.000 A 
ATOM     19  C15 UNL     1      13.935   1.295   8.546  0.00  0.00    +0.000 A 
ENDBRANCH  13  14
ENDBRANCH   3  13
TORSDOF 5
ENDMDL
MODEL 4
REMARK VINA RESULT:    -4.398     14.109     16.613
REMARK INTER + INTRA:          -7.253
REMARK INTER:                  -6.827
REMARK INTRA:                  -0.426
REMARK UNBOUND:                -1.570
REMARK  Name = /home/anacleto/Desktop/manuscript_Mpro/naturecomm/supplementary_file_S2/6-chemical-library/molecular_docking/3D_ligand_structure/566.pdb
REMARK  5 active torsions:
REMARK  status: ('A' for Active; 'I' for Inactive)
REMARK    1  A    between atoms: C6_6  and  O1_7
REMARK    2  A    between atoms: O1_7  and  C7_8
REMARK    3  A    between atoms: C7_8  and  C8_9
REMARK    4  A    between atoms: N1_11  and  C9_12
REMARK    5  A    between atoms: C9_12  and  C10_13
REMARK                            x       y       z     vdW  Elec       q    Type
REMARK                         _______ _______ _______ _____ _____    ______ ____
ROOT
ATOM      1  C8  UNL     1      17.406  11.167  -2.102  0.00  0.00    +0.000 C 
ATOM      2  O2  UNL     1      18.259  10.749  -2.882  0.00  0.00    +0.000 OA
ATOM      3  N1  UNL     1      17.697  11.869  -0.955  0.00  0.00    +0.000 N 
ATOM      4  H8  UNL     1      16.913  12.314  -0.491  0.00  0.00    +0.000 HD
ENDROOT
BRANCH   1   5
ATOM      5  C7  UNL     1      15.914  10.912  -2.326  0.00  0.00    +0.000 C 
BRANCH   5   6
ATOM      6  O1  UNL     1      15.287  12.037  -2.938  0.00  0.00    +0.000 OA
BRANCH   6  12
ATOM      7  C1  UNL     1      15.401  12.728  -5.299  0.00  0.00    +0.000 A 
ATOM      8  C2  UNL     1      14.977  12.488  -6.610  0.00  0.00    +0.000 A 
ATOM      9  C3  UNL     1      14.105  11.437  -6.886  0.00  0.00    +0.000 A 
ATOM     10  C4  UNL     1      13.654  10.623  -5.851  0.00  0.00    +0.000 A 
ATOM     11  C5  UNL     1      14.077  10.862  -4.542  0.00  0.00    +0.000 A 
ATOM     12  C6  UNL     1      14.951  11.915  -4.258  0.00  0.00    +0.000 A 
ENDBRANCH   6  12
ENDBRANCH   5   6
ENDBRANCH   1   5
BRANCH   3  13
ATOM     13  C9  UNL     1      19.029  12.333  -0.649  0.00  0.00    +0.000 C 
BRANCH  13  14
ATOM     14  C10 UNL     1      18.999  13.754  -0.147  0.00  0.00    +0.000 A 
ATOM     15  C11 UNL     1      20.162  14.365   0.342  0.00  0.00    +0.000 A 
ATOM     16  C12 UNL     1      20.122  15.674   0.827  0.00  0.00    +0.000 A 
ATOM     17  C13 UNL     1      18.920  16.381   0.833  0.00  0.00    +0.000 A 
ATOM     18  C14 UNL     1      17.756  15.779   0.358  0.00  0.00    +0.000 A 
ATOM     19  C15 UNL     1      17.794  14.471  -0.126  0.00  0.00    +0.000 A 
ENDBRANCH  13  14
ENDBRANCH   3  13
TORSDOF 5
ENDMDL
MODEL 5
REMARK VINA RESULT:    -4.380     14.404     16.581
REMARK INTER + INTRA:          -7.231
REMARK INTER:                  -6.821
REMARK INTRA:                  -0.410
REMARK UNBOUND:                -1.570
REMARK  Name = /home/anacleto/Desktop/manuscript_Mpro/naturecomm/supplementary_file_S2/6-chemical-library/molecular_docking/3D_ligand_structure/566.pdb
REMARK  5 active torsions:
REMARK  status: ('A' for Active; 'I' for Inactive)
REMARK    1  A    between atoms: C6_6  and  O1_7
REMARK    2  A    between atoms: O1_7  and  C7_8
REMARK    3  A    between atoms: C7_8  and  C8_9
REMARK    4  A    between atoms: N1_11  and  C9_12
REMARK    5  A    between atoms: C9_12  and  C10_13
REMARK                            x       y       z     vdW  Elec       q    Type
REMARK                         _______ _______ _______ _____ _____    ______ ____
ROOT
ATOM      1  C8  UNL     1      16.471  13.070  -2.504  0.00  0.00    +0.000 C 
ATOM      2  O2  UNL     1      17.567  12.805  -2.995  0.00  0.00    +0.000 OA
ATOM      3  N1  UNL     1      15.352  12.286  -2.665  0.00  0.00    +0.000 N 
ATOM      4  H8  UNL     1      14.561  12.508  -2.072  0.00  0.00    +0.000 HD
ENDROOT
BRANCH   1   5
ATOM      5  C7  UNL     1      16.241  14.338  -1.680  0.00  0.00    +0.000 C 
BRANCH   5   6
ATOM      6  O1  UNL     1      16.699  14.171  -0.340  0.00  0.00    +0.000 OA
BRANCH   6  12
ATOM      7  C1  UNL     1      19.141  13.991  -0.068  0.00  0.00    +0.000 A 
ATOM      8  C2  UNL     1      20.332  14.644   0.264  0.00  0.00    +0.000 A 
ATOM      9  C3  UNL     1      20.319  15.990   0.624  0.00  0.00    +0.000 A 
ATOM     10  C4  UNL     1      19.114  16.687   0.653  0.00  0.00    +0.000 A 
ATOM     11  C5  UNL     1      17.925  16.036   0.323  0.00  0.00    +0.000 A 
ATOM     12  C6  UNL     1      17.930  14.685  -0.039  0.00  0.00    +0.000 A 
ENDBRANCH   6  12
ENDBRANCH   5   6
ENDBRANCH   1   5
BRANCH   3  13
ATOM     13  C9  UNL     1      15.403  10.983  -3.282  0.00  0.00    +0.000 C 
BRANCH  13  14
ATOM     14  C10 UNL     1      14.922  11.046  -4.709  0.00  0.00    +0.000 A 
ATOM     15  C11 UNL     1      13.603  10.700  -5.037  0.00  0.00    +0.000 A 
ATOM     16  C12 UNL     1      13.172  10.739  -6.364  0.00  0.00    +0.000 A 
ATOM     17  C13 UNL     1      14.053  11.118  -7.375  0.00  0.00    +0.000 A 
ATOM     18  C14 UNL     1      15.369  11.455  -7.061  0.00  0.00    +0.000 A 
ATOM     19  C15 UNL     1      15.803  11.416  -5.735  0.00  0.00    +0.000 A 
ENDBRANCH  13  14
ENDBRANCH   3  13
TORSDOF 5
ENDMDL
MODEL 6
REMARK VINA RESULT:    -4.379      5.792      7.736
REMARK INTER + INTRA:          -7.229
REMARK INTER:                  -6.812
REMARK INTRA:                  -0.418
REMARK UNBOUND:                -1.570
REMARK  Name = /home/anacleto/Desktop/manuscript_Mpro/naturecomm/supplementary_file_S2/6-chemical-library/molecular_docking/3D_ligand_structure/566.pdb
REMARK  5 active torsions:
REMARK  status: ('A' for Active; 'I' for Inactive)
REMARK    1  A    between atoms: C6_6  and  O1_7
REMARK    2  A    between atoms: O1_7  and  C7_8
REMARK    3  A    between atoms: C7_8  and  C8_9
REMARK    4  A    between atoms: N1_11  and  C9_12
REMARK    5  A    between atoms: C9_12  and  C10_13
REMARK                            x       y       z     vdW  Elec       q    Type
REMARK                         _______ _______ _______ _____ _____    ______ ____
ROOT
ATOM      1  C8  UNL     1      17.305   2.187   8.828  0.00  0.00    +0.000 C 
ATOM      2  O2  UNL     1      18.155   1.377   9.195  0.00  0.00    +0.000 OA
ATOM      3  N1  UNL     1      17.124   3.420   9.411  0.00  0.00    +0.000 N 
ATOM      4  H8  UNL     1      16.521   4.066   8.912  0.00  0.00    +0.000 HD
ENDROOT
BRANCH   1   5
ATOM      5  C7  UNL     1      16.334   1.876   7.688  0.00  0.00    +0.000 C 
BRANCH   5   6
ATOM      6  O1  UNL     1      15.005   2.269   8.024  0.00  0.00    +0.000 OA
BRANCH   6  12
ATOM      7  C1  UNL     1      13.117   1.456   9.382  0.00  0.00    +0.000 A 
ATOM      8  C2  UNL     1      12.334   0.360   9.759  0.00  0.00    +0.000 A 
ATOM      9  C3  UNL     1      12.595  -0.904   9.236  0.00  0.00    +0.000 A 
ATOM     10  C4  UNL     1      13.640  -1.077   8.332  0.00  0.00    +0.000 A 
ATOM     11  C5  UNL     1      14.422   0.016   7.955  0.00  0.00    +0.000 A 
ATOM     12  C6  UNL     1      14.167   1.287   8.477  0.00  0.00    +0.000 A 
ENDBRANCH   6  12
ENDBRANCH   5   6
ENDBRANCH   1   5
BRANCH   3  13
ATOM     13  C9  UNL     1      18.032   3.951  10.398  0.00  0.00    +0.000 C 
BRANCH  13  14
ATOM     14  C10 UNL     1      18.638   5.248   9.926  0.00  0.00    +0.000 A 
ATOM     15  C11 UNL     1      18.792   5.511   8.557  0.00  0.00    +0.000 A 
ATOM     16  C12 UNL     1      19.375   6.704   8.128  0.00  0.00    +0.000 A 
ATOM     17  C13 UNL     1      19.815   7.643   9.060  0.00  0.00    +0.000 A 
ATOM     18  C14 UNL     1      19.675   7.387  10.424  0.00  0.00    +0.000 A 
ATOM     19  C15 UNL     1      19.093   6.195  10.855  0.00  0.00    +0.000 A 
ENDBRANCH  13  14
ENDBRANCH   3  13
TORSDOF 5
ENDMDL
MODEL 7
REMARK VINA RESULT:    -4.301      2.505      5.401
REMARK INTER + INTRA:          -7.129
REMARK INTER:                  -5.883
REMARK INTRA:                  -1.246
REMARK UNBOUND:                -1.570
REMARK  Name = /home/anacleto/Desktop/manuscript_Mpro/naturecomm/supplementary_file_S2/6-chemical-library/molecular_docking/3D_ligand_structure/566.pdb
REMARK  5 active torsions:
REMARK  status: ('A' for Active; 'I' for Inactive)
REMARK    1  A    between atoms: C6_6  and  O1_7
REMARK    2  A    between atoms: O1_7  and  C7_8
REMARK    3  A    between atoms: C7_8  and  C8_9
REMARK    4  A    between atoms: N1_11  and  C9_12
REMARK    5  A    between atoms: C9_12  and  C10_13
REMARK                            x       y       z     vdW  Elec       q    Type
REMARK                         _______ _______ _______ _____ _____    ______ ____
ROOT
ATOM      1  C8  UNL     1      18.592   3.299  11.090  0.00  0.00    +0.000 C 
ATOM      2  O2  UNL     1      19.279   2.754  11.951  0.00  0.00    +0.000 OA
ATOM      3  N1  UNL     1      17.527   4.123  11.372  0.00  0.00    +0.000 N 
ATOM      4  H8  UNL     1      17.152   4.653  10.592  0.00  0.00    +0.000 HD
ENDROOT
BRANCH   1   5
ATOM      5  C7  UNL     1      18.844   3.079   9.597  0.00  0.00    +0.000 C 
BRANCH   5   6
ATOM      6  O1  UNL     1      20.059   3.701   9.184  0.00  0.00    +0.000 OA
BRANCH   6  12
ATOM      7  C1  UNL     1      19.002   5.815   8.488  0.00  0.00    +0.000 A 
ATOM      8  C2  UNL     1      19.114   7.206   8.405  0.00  0.00    +0.000 A 
ATOM      9  C3  UNL     1      20.258   7.849   8.872  0.00  0.00    +0.000 A 
ATOM     10  C4  UNL     1      21.295   7.102   9.425  0.00  0.00    +0.000 A 
ATOM     11  C5  UNL     1      21.185   5.713   9.508  0.00  0.00    +0.000 A 
ATOM     12  C6  UNL     1      20.040   5.061   9.041  0.00  0.00    +0.000 A 
ENDBRANCH   6  12
ENDBRANCH   5   6
ENDBRANCH   1   5
BRANCH   3  13
ATOM     13  C9  UNL     1      17.224   4.567  12.710  0.00  0.00    +0.000 C 
BRANCH  13  14
ATOM     14  C10 UNL     1      18.041   5.781  13.070  0.00  0.00    +0.000 A 
ATOM     15  C11 UNL     1      18.359   6.744  12.102  0.00  0.00    +0.000 A 
ATOM     16  C12 UNL     1      19.135   7.855  12.438  0.00  0.00    +0.000 A 
ATOM     17  C13 UNL     1      19.606   8.011  13.741  0.00  0.00    +0.000 A 
ATOM     18  C14 UNL     1      19.304   7.054  14.709  0.00  0.00    +0.000 A 
ATOM     19  C15 UNL     1      18.529   5.943  14.375  0.00  0.00    +0.000 A 
ENDBRANCH  13  14
ENDBRANCH   3  13
TORSDOF 5
ENDMDL
MODEL 8
REMARK VINA RESULT:    -4.261     14.830     17.026
REMARK INTER + INTRA:          -7.077
REMARK INTER:                  -5.507
REMARK INTRA:                  -1.570
REMARK UNBOUND:                -1.570
REMARK  Name = /home/anacleto/Desktop/manuscript_Mpro/naturecomm/supplementary_file_S2/6-chemical-library/molecular_docking/3D_ligand_structure/566.pdb
REMARK  5 active torsions:
REMARK  status: ('A' for Active; 'I' for Inactive)
REMARK    1  A    between atoms: C6_6  and  O1_7
REMARK    2  A    between atoms: O1_7  and  C7_8
REMARK    3  A    between atoms: C7_8  and  C8_9
REMARK    4  A    between atoms: N1_11  and  C9_12
REMARK    5  A    between atoms: C9_12  and  C10_13
REMARK                            x       y       z     vdW  Elec       q    Type
REMARK                         _______ _______ _______ _____ _____    ______ ____
ROOT
ATOM      1  C8  UNL     1      15.579  10.937  -4.598  0.00  0.00    +0.000 C 
ATOM      2  O2  UNL     1      16.316  10.923  -5.582  0.00  0.00    +0.000 OA
ATOM      3  N1  UNL     1      15.955  10.481  -3.355  0.00  0.00    +0.000 N 
ATOM      4  H8  UNL     1      15.332  10.708  -2.588  0.00  0.00    +0.000 HD
ENDROOT
BRANCH   1   5
ATOM      5  C7  UNL     1      14.138  11.444  -4.676  0.00  0.00    +0.000 C 
BRANCH   5   6
ATOM      6  O1  UNL     1      14.099  12.852  -4.896  0.00  0.00    +0.000 OA
BRANCH   6  12
ATOM      7  C1  UNL     1      14.694  13.677  -2.653  0.00  0.00    +0.000 A 
ATOM      8  C2  UNL     1      15.511  14.523  -1.896  0.00  0.00    +0.000 A 
ATOM      9  C3  UNL     1      16.463  15.324  -2.521  0.00  0.00    +0.000 A 
ATOM     10  C4  UNL     1      16.602  15.282  -3.906  0.00  0.00    +0.000 A 
ATOM     11  C5  UNL     1      15.787  14.439  -4.662  0.00  0.00    +0.000 A 
ATOM     12  C6  UNL     1      14.829  13.632  -4.041  0.00  0.00    +0.000 A 
ENDBRANCH   6  12
ENDBRANCH   5   6
ENDBRANCH   1   5
BRANCH   3  13
ATOM     13  C9  UNL     1      17.313  10.104  -3.048  0.00  0.00    +0.000 C 
BRANCH  13  14
ATOM     14  C10 UNL     1      18.082  11.275  -2.490  0.00  0.00    +0.000 A 
ATOM     15  C11 UNL     1      18.034  11.578  -1.122  0.00  0.00    +0.000 A 
ATOM     16  C12 UNL     1      18.730  12.677  -0.617  0.00  0.00    +0.000 A 
ATOM     17  C13 UNL     1      19.475  13.487  -1.473  0.00  0.00    +0.000 A 
ATOM     18  C14 UNL     1      19.522  13.200  -2.837  0.00  0.00    +0.000 A 
ATOM     19  C15 UNL     1      18.826  12.102  -3.344  0.00  0.00    +0.000 A 
ENDBRANCH  13  14
ENDBRANCH   3  13
TORSDOF 5
ENDMDL
MODEL 9
REMARK VINA RESULT:    -4.256      1.362      4.765
REMARK INTER + INTRA:          -7.070
REMARK INTER:                  -6.017
REMARK INTRA:                  -1.054
REMARK UNBOUND:                -1.570
REMARK  Name = /home/anacleto/Desktop/manuscript_Mpro/naturecomm/supplementary_file_S2/6-chemical-library/molecular_docking/3D_ligand_structure/566.pdb
REMARK  5 active torsions:
REMARK  status: ('A' for Active; 'I' for Inactive)
REMARK    1  A    between atoms: C6_6  and  O1_7
REMARK    2  A    between atoms: O1_7  and  C7_8
REMARK    3  A    between atoms: C7_8  and  C8_9
REMARK    4  A    between atoms: N1_11  and  C9_12
REMARK    5  A    between atoms: C9_12  and  C10_13
REMARK                            x       y       z     vdW  Elec       q    Type
REMARK                         _______ _______ _______ _____ _____    ______ ____
ROOT
ATOM      1  C8  UNL     1      22.878   5.700  11.423  0.00  0.00    +0.000 C 
ATOM      2  O2  UNL     1      22.900   4.848  12.309  0.00  0.00    +0.000 OA
ATOM      3  N1  UNL     1      22.392   6.975  11.601  0.00  0.00    +0.000 N 
ATOM      4  H8  UNL     1      22.590   7.637  10.859  0.00  0.00    +0.000 HD
ENDROOT
BRANCH   1   5
ATOM      5  C7  UNL     1      23.371   5.403  10.006  0.00  0.00    +0.000 C 
BRANCH   5   6
ATOM      6  O1  UNL     1      22.601   4.366   9.401  0.00  0.00    +0.000 OA
BRANCH   6  12
ATOM      7  C1  UNL     1      20.227   3.834   9.784  0.00  0.00    +0.000 A 
ATOM      8  C2  UNL     1      18.895   4.191   9.546  0.00  0.00    +0.000 A 
ATOM      9  C3  UNL     1      18.594   5.310   8.774  0.00  0.00    +0.000 A 
ATOM     10  C4  UNL     1      19.623   6.078   8.236  0.00  0.00    +0.000 A 
ATOM     11  C5  UNL     1      20.952   5.723   8.472  0.00  0.00    +0.000 A 
ATOM     12  C6  UNL     1      21.262   4.600   9.246  0.00  0.00    +0.000 A 
ENDBRANCH   6  12
ENDBRANCH   5   6
ENDBRANCH   1   5
BRANCH   3  13
ATOM     13  C9  UNL     1      22.022   7.488  12.897  0.00  0.00    +0.000 C 
BRANCH  13  14
ATOM     14  C10 UNL     1      20.524   7.509  13.058  0.00  0.00    +0.000 A 
ATOM     15  C11 UNL     1      19.683   7.203  11.978  0.00  0.00    +0.000 A 
ATOM     16  C12 UNL     1      18.296   7.246  12.128  0.00  0.00    +0.000 A 
ATOM     17  C13 UNL     1      17.736   7.601  13.355  0.00  0.00    +0.000 A 
ATOM     18  C14 UNL     1      18.562   7.915  14.432  0.00  0.00    +0.000 A 
ATOM     19  C15 UNL     1      19.949   7.873  14.284  0.00  0.00    +0.000 A 
ENDBRANCH  13  14
ENDBRANCH   3  13
TORSDOF 5
ENDMDL
