MODEL 1
REMARK VINA RESULT:    -5.425      0.000      0.000
REMARK INTER + INTRA:          -6.287
REMARK INTER:                  -6.062
REMARK INTRA:                  -0.226
REMARK UNBOUND:                -0.228
REMARK  Name = /home/anacleto/Desktop/manuscript_Mpro/naturecomm/supplementary_file_S2/6-chemical-library/molecular_docking/3D_ligand_structure/757.pdb
REMARK  2 active torsions:
REMARK  status: ('A' for Active; 'I' for Inactive)
REMARK    1  A    between atoms: C3_6  and  C4_7
REMARK    2  A    between atoms: N2_9  and  C5_10
REMARK                            x       y       z     vdW  Elec       q    Type
REMARK                         _______ _______ _______ _____ _____    ______ ____
ROOT
ATOM      1  C4  UNL     1      17.453   3.816   9.479  0.00  0.00    +0.000 C 
ATOM      2  O2  UNL     1      17.609   3.868  10.695  0.00  0.00    +0.000 OA
ATOM      3  N2  UNL     1      18.112   4.564   8.526  0.00  0.00    +0.000 N 
ATOM      4  H3  UNL     1      17.852   4.384   7.563  0.00  0.00    +0.000 HD
ENDROOT
BRANCH   1  10
ATOM      5  O1  UNL     1      13.587   0.600   8.341  0.00  0.00    +0.000 OA
ATOM      6  C1  UNL     1      14.575   1.310   8.380  0.00  0.00    +0.000 A 
ATOM      7  S1  UNL     1      15.071   2.281   9.776  0.00  0.00    +0.000 S 
ATOM      8  N1  UNL     1      15.497   1.508   7.380  0.00  0.00    +0.000 N 
ATOM      9  C2  UNL     1      16.527   2.361   7.673  0.00  0.00    +0.000 A 
ATOM     10  C3  UNL     1      16.460   2.866   8.910  0.00  0.00    +0.000 A 
ATOM     11  H1  UNL     1      15.389   1.036   6.492  0.00  0.00    +0.000 HD
ENDBRANCH   1  10
BRANCH   3  12
ATOM     12  C5  UNL     1      19.104   5.545   8.727  0.00  0.00    +0.000 A 
ATOM     13  C6  UNL     1      18.864   6.919   8.679  0.00  0.00    +0.000 A 
ATOM     14  C7  UNL     1      19.908   7.827   8.891  0.00  0.00    +0.000 A 
ATOM     15  C8  UNL     1      21.197   7.369   9.150  0.00  0.00    +0.000 A 
ATOM     16  C9  UNL     1      21.446   6.001   9.199  0.00  0.00    +0.000 A 
ATOM     17  C10 UNL     1      20.404   5.093   8.989  0.00  0.00    +0.000 A 
ENDBRANCH   3  12
TORSDOF 2
ENDMDL
MODEL 2
REMARK VINA RESULT:    -5.166     15.695     16.316
REMARK INTER + INTRA:          -5.998
REMARK INTER:                  -5.764
REMARK INTRA:                  -0.234
REMARK UNBOUND:                -0.228
REMARK  Name = /home/anacleto/Desktop/manuscript_Mpro/naturecomm/supplementary_file_S2/6-chemical-library/molecular_docking/3D_ligand_structure/757.pdb
REMARK  2 active torsions:
REMARK  status: ('A' for Active; 'I' for Inactive)
REMARK    1  A    between atoms: C3_6  and  C4_7
REMARK    2  A    between atoms: N2_9  and  C5_10
REMARK                            x       y       z     vdW  Elec       q    Type
REMARK                         _______ _______ _______ _____ _____    ______ ____
ROOT
ATOM      1  C4  UNL     1      14.824  13.333  -4.821  0.00  0.00    +0.000 C 
ATOM      2  O2  UNL     1      15.527  14.179  -5.365  0.00  0.00    +0.000 OA
ATOM      3  N2  UNL     1      14.612  13.178  -3.467  0.00  0.00    +0.000 N 
ATOM      4  H3  UNL     1      13.995  12.419  -3.199  0.00  0.00    +0.000 HD
ENDROOT
BRANCH   1  10
ATOM      5  O1  UNL     1      13.122   9.811  -8.180  0.00  0.00    +0.000 OA
ATOM      6  C1  UNL     1      13.295  10.630  -7.296  0.00  0.00    +0.000 A 
ATOM      7  S1  UNL     1      14.816  11.485  -6.990  0.00  0.00    +0.000 S 
ATOM      8  N1  UNL     1      12.376  11.060  -6.368  0.00  0.00    +0.000 N 
ATOM      9  C2  UNL     1      12.819  11.995  -5.472  0.00  0.00    +0.000 A 
ATOM     10  C3  UNL     1      14.098  12.339  -5.657  0.00  0.00    +0.000 A 
ATOM     11  H1  UNL     1      11.436  10.685  -6.377  0.00  0.00    +0.000 HD
ENDBRANCH   1  10
BRANCH   3  12
ATOM     12  C5  UNL     1      15.145  13.946  -2.412  0.00  0.00    +0.000 A 
ATOM     13  C6  UNL     1      14.608  15.160  -1.982  0.00  0.00    +0.000 A 
ATOM     14  C7  UNL     1      15.200  15.861  -0.924  0.00  0.00    +0.000 A 
ATOM     15  C8  UNL     1      16.332  15.353  -0.292  0.00  0.00    +0.000 A 
ATOM     16  C9  UNL     1      16.875  14.143  -0.715  0.00  0.00    +0.000 A 
ATOM     17  C10 UNL     1      16.284  13.444  -1.770  0.00  0.00    +0.000 A 
ENDBRANCH   3  12
TORSDOF 2
ENDMDL
MODEL 3
REMARK VINA RESULT:    -4.995     14.347     14.689
REMARK INTER + INTRA:          -5.807
REMARK INTER:                  -5.592
REMARK INTRA:                  -0.215
REMARK UNBOUND:                -0.228
REMARK  Name = /home/anacleto/Desktop/manuscript_Mpro/naturecomm/supplementary_file_S2/6-chemical-library/molecular_docking/3D_ligand_structure/757.pdb
REMARK  2 active torsions:
REMARK  status: ('A' for Active; 'I' for Inactive)
REMARK    1  A    between atoms: C3_6  and  C4_7
REMARK    2  A    between atoms: N2_9  and  C5_10
REMARK                            x       y       z     vdW  Elec       q    Type
REMARK                         _______ _______ _______ _____ _____    ______ ____
ROOT
ATOM      1  C4  UNL     1      15.923  13.948  -2.600  0.00  0.00    +0.000 C 
ATOM      2  O2  UNL     1      15.824  15.052  -3.127  0.00  0.00    +0.000 OA
ATOM      3  N2  UNL     1      16.554  13.650  -1.412  0.00  0.00    +0.000 N 
ATOM      4  H3  UNL     1      16.534  12.676  -1.130  0.00  0.00    +0.000 HD
ENDROOT
BRANCH   1  10
ATOM      5  O1  UNL     1      13.519  10.466  -5.548  0.00  0.00    +0.000 OA
ATOM      6  C1  UNL     1      14.145  11.093  -4.713  0.00  0.00    +0.000 A 
ATOM      7  S1  UNL     1      14.399  12.846  -4.741  0.00  0.00    +0.000 S 
ATOM      8  N1  UNL     1      14.772  10.595  -3.596  0.00  0.00    +0.000 N 
ATOM      9  C2  UNL     1      15.413  11.512  -2.807  0.00  0.00    +0.000 A 
ATOM     10  C3  UNL     1      15.317  12.764  -3.268  0.00  0.00    +0.000 A 
ATOM     11  H1  UNL     1      14.742   9.603  -3.399  0.00  0.00    +0.000 HD
ENDBRANCH   1  10
BRANCH   3  12
ATOM     12  C5  UNL     1      17.222  14.533  -0.540  0.00  0.00    +0.000 A 
ATOM     13  C6  UNL     1      16.580  15.505   0.230  0.00  0.00    +0.000 A 
ATOM     14  C7  UNL     1      17.320  16.343   1.072  0.00  0.00    +0.000 A 
ATOM     15  C8  UNL     1      18.705  16.216   1.149  0.00  0.00    +0.000 A 
ATOM     16  C9  UNL     1      19.354  15.251   0.386  0.00  0.00    +0.000 A 
ATOM     17  C10 UNL     1      18.615  14.413  -0.455  0.00  0.00    +0.000 A 
ENDBRANCH   3  12
TORSDOF 2
ENDMDL
MODEL 4
REMARK VINA RESULT:    -4.862     13.640     14.364
REMARK INTER + INTRA:          -5.659
REMARK INTER:                  -5.450
REMARK INTRA:                  -0.209
REMARK UNBOUND:                -0.228
REMARK  Name = /home/anacleto/Desktop/manuscript_Mpro/naturecomm/supplementary_file_S2/6-chemical-library/molecular_docking/3D_ligand_structure/757.pdb
REMARK  2 active torsions:
REMARK  status: ('A' for Active; 'I' for Inactive)
REMARK    1  A    between atoms: C3_6  and  C4_7
REMARK    2  A    between atoms: N2_9  and  C5_10
REMARK                            x       y       z     vdW  Elec       q    Type
REMARK                         _______ _______ _______ _____ _____    ______ ____
ROOT
ATOM      1  C4  UNL     1      16.442  12.493  -1.629  0.00  0.00    +0.000 C 
ATOM      2  O2  UNL     1      16.457  11.762  -0.644  0.00  0.00    +0.000 OA
ATOM      3  N2  UNL     1      17.110  13.689  -1.783  0.00  0.00    +0.000 N 
ATOM      4  H3  UNL     1      16.979  14.158  -2.673  0.00  0.00    +0.000 HD
ENDROOT
BRANCH   1  10
ATOM      5  O1  UNL     1      13.437  12.049  -5.796  0.00  0.00    +0.000 OA
ATOM      6  C1  UNL     1      14.176  11.910  -4.837  0.00  0.00    +0.000 A 
ATOM      7  S1  UNL     1      14.711  13.220  -3.772  0.00  0.00    +0.000 S 
ATOM      8  N1  UNL     1      14.739  10.741  -4.383  0.00  0.00    +0.000 N 
ATOM      9  C2  UNL     1      15.539  10.849  -3.277  0.00  0.00    +0.000 A 
ATOM     10  C3  UNL     1      15.636  12.101  -2.817  0.00  0.00    +0.000 A 
ATOM     11  H1  UNL     1      14.552   9.870  -4.863  0.00  0.00    +0.000 HD
ENDBRANCH   1  10
BRANCH   3  12
ATOM     12  C5  UNL     1      17.951  14.339  -0.858  0.00  0.00    +0.000 A 
ATOM     13  C6  UNL     1      19.232  13.897  -0.523  0.00  0.00    +0.000 A 
ATOM     14  C7  UNL     1      20.003  14.602   0.408  0.00  0.00    +0.000 A 
ATOM     15  C8  UNL     1      19.499  15.752   1.011  0.00  0.00    +0.000 A 
ATOM     16  C9  UNL     1      18.222  16.200   0.685  0.00  0.00    +0.000 A 
ATOM     17  C10 UNL     1      17.452  15.496  -0.246  0.00  0.00    +0.000 A 
ENDBRANCH   3  12
TORSDOF 2
ENDMDL
MODEL 5
REMARK VINA RESULT:    -4.855     14.267     14.795
REMARK INTER + INTRA:          -5.651
REMARK INTER:                  -5.421
REMARK INTRA:                  -0.230
REMARK UNBOUND:                -0.228
REMARK  Name = /home/anacleto/Desktop/manuscript_Mpro/naturecomm/supplementary_file_S2/6-chemical-library/molecular_docking/3D_ligand_structure/757.pdb
REMARK  2 active torsions:
REMARK  status: ('A' for Active; 'I' for Inactive)
REMARK    1  A    between atoms: C3_6  and  C4_7
REMARK    2  A    between atoms: N2_9  and  C5_10
REMARK                            x       y       z     vdW  Elec       q    Type
REMARK                         _______ _______ _______ _____ _____    ______ ____
ROOT
ATOM      1  C4  UNL     1      16.493  13.548  -3.073  0.00  0.00    +0.000 C 
ATOM      2  O2  UNL     1      16.905  14.471  -3.767  0.00  0.00    +0.000 OA
ATOM      3  N2  UNL     1      16.795  13.308  -1.749  0.00  0.00    +0.000 N 
ATOM      4  H3  UNL     1      16.358  12.492  -1.335  0.00  0.00    +0.000 HD
ENDROOT
BRANCH   1  10
ATOM      5  O1  UNL     1      13.121  10.735  -5.775  0.00  0.00    +0.000 OA
ATOM      6  C1  UNL     1      13.928  11.200  -4.991  0.00  0.00    +0.000 A 
ATOM      7  S1  UNL     1      14.634  12.821  -5.106  0.00  0.00    +0.000 S 
ATOM      8  N1  UNL     1      14.453  10.590  -3.876  0.00  0.00    +0.000 N 
ATOM      9  C2  UNL     1      15.349  11.330  -3.152  0.00  0.00    +0.000 A 
ATOM     10  C3  UNL     1      15.565  12.546  -3.664  0.00  0.00    +0.000 A 
ATOM     11  H1  UNL     1      14.171   9.649  -3.635  0.00  0.00    +0.000 HD
ENDBRANCH   1  10
BRANCH   3  12
ATOM     12  C5  UNL     1      17.635  14.059  -0.901  0.00  0.00    +0.000 A 
ATOM     13  C6  UNL     1      18.950  13.706  -0.594  0.00  0.00    +0.000 A 
ATOM     14  C7  UNL     1      19.717  14.509   0.259  0.00  0.00    +0.000 A 
ATOM     15  C8  UNL     1      19.174  15.667   0.810  0.00  0.00    +0.000 A 
ATOM     16  C9  UNL     1      17.863  16.026   0.510  0.00  0.00    +0.000 A 
ATOM     17  C10 UNL     1      17.098  15.225  -0.342  0.00  0.00    +0.000 A 
ENDBRANCH   3  12
TORSDOF 2
ENDMDL
MODEL 6
REMARK VINA RESULT:    -4.845      2.638      6.523
REMARK INTER + INTRA:          -5.640
REMARK INTER:                  -5.453
REMARK INTRA:                  -0.187
REMARK UNBOUND:                -0.228
REMARK  Name = /home/anacleto/Desktop/manuscript_Mpro/naturecomm/supplementary_file_S2/6-chemical-library/molecular_docking/3D_ligand_structure/757.pdb
REMARK  2 active torsions:
REMARK  status: ('A' for Active; 'I' for Inactive)
REMARK    1  A    between atoms: C3_6  and  C4_7
REMARK    2  A    between atoms: N2_9  and  C5_10
REMARK                            x       y       z     vdW  Elec       q    Type
REMARK                         _______ _______ _______ _____ _____    ______ ____
ROOT
ATOM      1  C4  UNL     1      18.280   4.096   9.845  0.00  0.00    +0.000 C 
ATOM      2  O2  UNL     1      18.591   3.246  10.673  0.00  0.00    +0.000 OA
ATOM      3  N2  UNL     1      17.255   4.022   8.926  0.00  0.00    +0.000 N 
ATOM      4  H3  UNL     1      17.146   4.826   8.317  0.00  0.00    +0.000 HD
ENDROOT
BRANCH   1  10
ATOM      5  O1  UNL     1      21.295   8.145   8.793  0.00  0.00    +0.000 OA
ATOM      6  C1  UNL     1      20.523   7.317   9.244  0.00  0.00    +0.000 A 
ATOM      7  S1  UNL     1      20.140   5.767   8.477  0.00  0.00    +0.000 S 
ATOM      8  N1  UNL     1      19.803   7.401  10.411  0.00  0.00    +0.000 N 
ATOM      9  C2  UNL     1      18.999   6.330  10.698  0.00  0.00    +0.000 A 
ATOM     10  C3  UNL     1      19.055   5.365   9.774  0.00  0.00    +0.000 A 
ATOM     11  H1  UNL     1      19.885   8.220  10.998  0.00  0.00    +0.000 HD
ENDBRANCH   1  10
BRANCH   3  12
ATOM     12  C5  UNL     1      16.341   2.968   8.730  0.00  0.00    +0.000 A 
ATOM     13  C6  UNL     1      16.385   2.087   7.648  0.00  0.00    +0.000 A 
ATOM     14  C7  UNL     1      15.437   1.064   7.528  0.00  0.00    +0.000 A 
ATOM     15  C8  UNL     1      14.437   0.917   8.487  0.00  0.00    +0.000 A 
ATOM     16  C9  UNL     1      14.385   1.791   9.569  0.00  0.00    +0.000 A 
ATOM     17  C10 UNL     1      15.332   2.811   9.689  0.00  0.00    +0.000 A 
ENDBRANCH   3  12
TORSDOF 2
ENDMDL
MODEL 7
REMARK VINA RESULT:    -4.775     14.533     15.836
REMARK INTER + INTRA:          -5.561
REMARK INTER:                  -5.333
REMARK INTRA:                  -0.229
REMARK UNBOUND:                -0.228
REMARK  Name = /home/anacleto/Desktop/manuscript_Mpro/naturecomm/supplementary_file_S2/6-chemical-library/molecular_docking/3D_ligand_structure/757.pdb
REMARK  2 active torsions:
REMARK  status: ('A' for Active; 'I' for Inactive)
REMARK    1  A    between atoms: C3_6  and  C4_7
REMARK    2  A    between atoms: N2_9  and  C5_10
REMARK                            x       y       z     vdW  Elec       q    Type
REMARK                         _______ _______ _______ _____ _____    ______ ____
ROOT
ATOM      1  C4  UNL     1      16.167  12.842  -2.731  0.00  0.00    +0.000 C 
ATOM      2  O2  UNL     1      15.214  13.597  -2.566  0.00  0.00    +0.000 OA
ATOM      3  N2  UNL     1      16.304  11.883  -3.711  0.00  0.00    +0.000 N 
ATOM      4  H3  UNL     1      17.166  11.349  -3.693  0.00  0.00    +0.000 HD
ENDROOT
BRANCH   1  10
ATOM      5  O1  UNL     1      19.957  14.018   0.562  0.00  0.00    +0.000 OA
ATOM      6  C1  UNL     1      19.159  13.514  -0.208  0.00  0.00    +0.000 A 
ATOM      7  S1  UNL     1      17.821  14.373  -0.987  0.00  0.00    +0.000 S 
ATOM      8  N1  UNL     1      19.124  12.206  -0.631  0.00  0.00    +0.000 N 
ATOM      9  C2  UNL     1      18.121  11.884  -1.505  0.00  0.00    +0.000 A 
ATOM     10  C3  UNL     1      17.330  12.921  -1.806  0.00  0.00    +0.000 A 
ATOM     11  H1  UNL     1      19.813  11.548  -0.294  0.00  0.00    +0.000 HD
ENDBRANCH   1  10
BRANCH   3  12
ATOM     12  C5  UNL     1      15.393  11.554  -4.736  0.00  0.00    +0.000 A 
ATOM     13  C6  UNL     1      14.208  10.846  -4.530  0.00  0.00    +0.000 A 
ATOM     14  C7  UNL     1      13.358  10.560  -5.605  0.00  0.00    +0.000 A 
ATOM     15  C8  UNL     1      13.688  10.979  -6.892  0.00  0.00    +0.000 A 
ATOM     16  C9  UNL     1      14.868  11.684  -7.107  0.00  0.00    +0.000 A 
ATOM     17  C10 UNL     1      15.716  11.971  -6.034  0.00  0.00    +0.000 A 
ENDBRANCH   3  12
TORSDOF 2
ENDMDL
MODEL 8
REMARK VINA RESULT:    -4.627     15.283     16.554
REMARK INTER + INTRA:          -5.396
REMARK INTER:                  -5.166
REMARK INTRA:                  -0.231
REMARK UNBOUND:                -0.228
REMARK  Name = /home/anacleto/Desktop/manuscript_Mpro/naturecomm/supplementary_file_S2/6-chemical-library/molecular_docking/3D_ligand_structure/757.pdb
REMARK  2 active torsions:
REMARK  status: ('A' for Active; 'I' for Inactive)
REMARK    1  A    between atoms: C3_6  and  C4_7
REMARK    2  A    between atoms: N2_9  and  C5_10
REMARK                            x       y       z     vdW  Elec       q    Type
REMARK                         _______ _______ _______ _____ _____    ______ ____
ROOT
ATOM      1  C4  UNL     1      16.060  13.158  -3.072  0.00  0.00    +0.000 C 
ATOM      2  O2  UNL     1      17.004  12.385  -3.203  0.00  0.00    +0.000 OA
ATOM      3  N2  UNL     1      14.962  13.273  -3.897  0.00  0.00    +0.000 N 
ATOM      4  H3  UNL     1      14.277  13.972  -3.630  0.00  0.00    +0.000 HD
ENDROOT
BRANCH   1  10
ATOM      5  O1  UNL     1      16.746  15.933   1.219  0.00  0.00    +0.000 OA
ATOM      6  C1  UNL     1      16.394  15.431   0.167  0.00  0.00    +0.000 A 
ATOM      7  S1  UNL     1      17.184  14.048  -0.609  0.00  0.00    +0.000 S 
ATOM      8  N1  UNL     1      15.337  15.812  -0.624  0.00  0.00    +0.000 N 
ATOM      9  C2  UNL     1      15.147  15.081  -1.767  0.00  0.00    +0.000 A 
ATOM     10  C3  UNL     1      16.042  14.098  -1.919  0.00  0.00    +0.000 A 
ATOM     11  H1  UNL     1      14.755  16.592  -0.350  0.00  0.00    +0.000 HD
ENDBRANCH   1  10
BRANCH   3  12
ATOM     12  C5  UNL     1      14.674  12.538  -5.065  0.00  0.00    +0.000 A 
ATOM     13  C6  UNL     1      15.310  12.740  -6.291  0.00  0.00    +0.000 A 
ATOM     14  C7  UNL     1      14.963  11.965  -7.404  0.00  0.00    +0.000 A 
ATOM     15  C8  UNL     1      13.979  10.985  -7.299  0.00  0.00    +0.000 A 
ATOM     16  C9  UNL     1      13.339  10.777  -6.081  0.00  0.00    +0.000 A 
ATOM     17  C10 UNL     1      13.685  11.550  -4.969  0.00  0.00    +0.000 A 
ENDBRANCH   3  12
TORSDOF 2
ENDMDL
MODEL 9
REMARK VINA RESULT:    -4.210      4.376      6.597
REMARK INTER + INTRA:          -4.930
REMARK INTER:                  -4.702
REMARK INTRA:                  -0.228
REMARK UNBOUND:                -0.228
REMARK  Name = /home/anacleto/Desktop/manuscript_Mpro/naturecomm/supplementary_file_S2/6-chemical-library/molecular_docking/3D_ligand_structure/757.pdb
REMARK  2 active torsions:
REMARK  status: ('A' for Active; 'I' for Inactive)
REMARK    1  A    between atoms: C3_6  and  C4_7
REMARK    2  A    between atoms: N2_9  and  C5_10
REMARK                            x       y       z     vdW  Elec       q    Type
REMARK                         _______ _______ _______ _____ _____    ______ ____
ROOT
ATOM      1  C4  UNL     1      15.503   3.473  12.035  0.00  0.00    +0.000 C 
ATOM      2  O2  UNL     1      16.546   2.890  12.314  0.00  0.00    +0.000 OA
ATOM      3  N2  UNL     1      14.790   3.380  10.859  0.00  0.00    +0.000 N 
ATOM      4  H3  UNL     1      13.945   3.938  10.807  0.00  0.00    +0.000 HD
ENDROOT
BRANCH   1  10
ATOM      5  O1  UNL     1      14.276   6.874  15.711  0.00  0.00    +0.000 OA
ATOM      6  C1  UNL     1      14.321   6.048  14.818  0.00  0.00    +0.000 A 
ATOM      7  S1  UNL     1      15.811   5.399  14.113  0.00  0.00    +0.000 S 
ATOM      8  N1  UNL     1      13.259   5.453  14.180  0.00  0.00    +0.000 N 
ATOM      9  C2  UNL     1      13.575   4.548  13.202  0.00  0.00    +0.000 A 
ATOM     10  C3  UNL     1      14.892   4.394  13.032  0.00  0.00    +0.000 A 
ATOM     11  H1  UNL     1      12.312   5.693  14.443  0.00  0.00    +0.000 HD
ENDBRANCH   1  10
BRANCH   3  12
ATOM     12  C5  UNL     1      15.091   2.603   9.722  0.00  0.00    +0.000 A 
ATOM     13  C6  UNL     1      16.097   2.916   8.806  0.00  0.00    +0.000 A 
ATOM     14  C7  UNL     1      16.331   2.090   7.701  0.00  0.00    +0.000 A 
ATOM     15  C8  UNL     1      15.560   0.947   7.503  0.00  0.00    +0.000 A 
ATOM     16  C9  UNL     1      14.554   0.626   8.410  0.00  0.00    +0.000 A 
ATOM     17  C10 UNL     1      14.321   1.451   9.514  0.00  0.00    +0.000 A 
ENDBRANCH   3  12
TORSDOF 2
ENDMDL
