MODEL 1
REMARK VINA RESULT:    -4.814      0.000      0.000
REMARK INTER + INTRA:          -9.519
REMARK INTER:                  -6.637
REMARK INTRA:                  -2.882
REMARK UNBOUND:                -2.735
REMARK  Name = /home/anacleto/Desktop/manuscript_Mpro/naturecomm/supplementary_file_S2/6-chemical-library/molecular_docking/3D_ligand_structure/445.pdb
REMARK  7 active torsions:
REMARK  status: ('A' for Active; 'I' for Inactive)
REMARK    1  A    between atoms: C6_6  and  C7_7
REMARK    2  A    between atoms: C7_7  and  O1_8
REMARK    3  A    between atoms: O1_8  and  C8_9
REMARK    4  A    between atoms: C8_9  and  C9_11
REMARK    5  A    between atoms: C9_11  and  C10_12
REMARK    6  A    between atoms: C10_12  and  N1_13
REMARK    7  A    between atoms: C11_14  and  C12_16
REMARK                            x       y       z     vdW  Elec       q    Type
REMARK                         _______ _______ _______ _____ _____    ______ ____
ROOT
ATOM      1  C9  UNL     1      15.489   3.201  10.080  0.00  0.00    +0.000 C 
ENDROOT
BRANCH   1   2
ATOM      2  C8  UNL     1      15.990   2.954  11.479  0.00  0.00    +0.000 C 
ATOM      3  O2  UNL     1      15.920   1.888  12.074  0.00  0.00    +0.000 OA
BRANCH   2   4
ATOM      4  O1  UNL     1      16.559   4.093  11.959  0.00  0.00    +0.000 OA
BRANCH   4   5
ATOM      5  C7  UNL     1      17.783   3.920  12.684  0.00  0.00    +0.000 C 
BRANCH   5  11
ATOM      6  C1  UNL     1      17.899   6.428  12.423  0.00  0.00    +0.000 A 
ATOM      7  C2  UNL     1      18.607   7.630  12.441  0.00  0.00    +0.000 A 
ATOM      8  C3  UNL     1      19.972   7.633  12.725  0.00  0.00    +0.000 A 
ATOM      9  C4  UNL     1      20.629   6.434  12.996  0.00  0.00    +0.000 A 
ATOM     10  C5  UNL     1      19.922   5.231  12.978  0.00  0.00    +0.000 A 
ATOM     11  C6  UNL     1      18.552   5.216  12.682  0.00  0.00    +0.000 A 
ENDBRANCH   5  11
ENDBRANCH   4   5
ENDBRANCH   2   4
ENDBRANCH   1   2
BRANCH   1  12
ATOM     12  C10 UNL     1      16.570   2.906   9.054  0.00  0.00    +0.000 C 
BRANCH  12  13
ATOM     13  N1  UNL     1      17.460   4.044   8.886  0.00  0.00    +0.000 N 
ATOM     14  C11 UNL     1      18.807   3.931   9.176  0.00  0.00    +0.000 C 
ATOM     15  O3  UNL     1      19.352   2.873   9.471  0.00  0.00    +0.000 OA
ATOM     16  H12 UNL     1      17.052   4.966   8.968  0.00  0.00    +0.000 HD
BRANCH  14  17
ATOM     17  C12 UNL     1      19.593   5.196   9.153  0.00  0.00    +0.000 A 
ATOM     18  C13 UNL     1      20.964   5.225   9.445  0.00  0.00    +0.000 A 
ATOM     19  C14 UNL     1      21.660   6.435   9.412  0.00  0.00    +0.000 A 
ATOM     20  C15 UNL     1      20.992   7.619   9.096  0.00  0.00    +0.000 A 
ATOM     21  C16 UNL     1      19.625   7.598   8.822  0.00  0.00    +0.000 A 
ATOM     22  C17 UNL     1      18.925   6.390   8.855  0.00  0.00    +0.000 A 
ENDBRANCH  14  17
ENDBRANCH  12  13
ENDBRANCH   1  12
TORSDOF 7
ENDMDL
MODEL 2
REMARK VINA RESULT:    -4.700     14.880     17.135
REMARK INTER + INTRA:          -9.359
REMARK INTER:                  -6.719
REMARK INTRA:                  -2.640
REMARK UNBOUND:                -2.735
REMARK  Name = /home/anacleto/Desktop/manuscript_Mpro/naturecomm/supplementary_file_S2/6-chemical-library/molecular_docking/3D_ligand_structure/445.pdb
REMARK  7 active torsions:
REMARK  status: ('A' for Active; 'I' for Inactive)
REMARK    1  A    between atoms: C6_6  and  C7_7
REMARK    2  A    between atoms: C7_7  and  O1_8
REMARK    3  A    between atoms: O1_8  and  C8_9
REMARK    4  A    between atoms: C8_9  and  C9_11
REMARK    5  A    between atoms: C9_11  and  C10_12
REMARK    6  A    between atoms: C10_12  and  N1_13
REMARK    7  A    between atoms: C11_14  and  C12_16
REMARK                            x       y       z     vdW  Elec       q    Type
REMARK                         _______ _______ _______ _____ _____    ______ ____
ROOT
ATOM      1  C9  UNL     1      16.893  16.071  -1.419  0.00  0.00    +0.000 C 
ENDROOT
BRANCH   1   2
ATOM      2  C8  UNL     1      16.607  15.290  -0.163  0.00  0.00    +0.000 C 
ATOM      3  O2  UNL     1      16.205  15.769   0.887  0.00  0.00    +0.000 OA
BRANCH   2   4
ATOM      4  O1  UNL     1      16.837  13.968  -0.394  0.00  0.00    +0.000 OA
BRANCH   4   5
ATOM      5  C7  UNL     1      17.964  13.669  -1.228  0.00  0.00    +0.000 C 
BRANCH   5  11
ATOM      6  C1  UNL     1      16.602  11.638  -1.854  0.00  0.00    +0.000 A 
ATOM      7  C2  UNL     1      16.247  10.629  -2.751  0.00  0.00    +0.000 A 
ATOM      8  C3  UNL     1      16.874  10.547  -3.993  0.00  0.00    +0.000 A 
ATOM      9  C4  UNL     1      17.854  11.474  -4.340  0.00  0.00    +0.000 A 
ATOM     10  C5  UNL     1      18.211  12.483  -3.444  0.00  0.00    +0.000 A 
ATOM     11  C6  UNL     1      17.595  12.568  -2.188  0.00  0.00    +0.000 A 
ENDBRANCH   5  11
ENDBRANCH   4   5
ENDBRANCH   2   4
ENDBRANCH   1   2
BRANCH   1  12
ATOM     12  C10 UNL     1      15.605  16.447  -2.132  0.00  0.00    +0.000 C 
BRANCH  12  13
ATOM     13  N1  UNL     1      15.469  15.728  -3.389  0.00  0.00    +0.000 N 
ATOM     14  C11 UNL     1      14.773  14.535  -3.443  0.00  0.00    +0.000 C 
ATOM     15  O3  UNL     1      14.143  14.073  -2.499  0.00  0.00    +0.000 OA
ATOM     16  H12 UNL     1      16.195  15.865  -4.081  0.00  0.00    +0.000 HD
BRANCH  14  17
ATOM     17  C12 UNL     1      14.853  13.786  -4.728  0.00  0.00    +0.000 A 
ATOM     18  C13 UNL     1      15.761  14.138  -5.737  0.00  0.00    +0.000 A 
ATOM     19  C14 UNL     1      15.801  13.407  -6.927  0.00  0.00    +0.000 A 
ATOM     20  C15 UNL     1      14.932  12.332  -7.118  0.00  0.00    +0.000 A 
ATOM     21  C16 UNL     1      14.016  11.989  -6.124  0.00  0.00    +0.000 A 
ATOM     22  C17 UNL     1      13.972  12.717  -4.933  0.00  0.00    +0.000 A 
ENDBRANCH  14  17
ENDBRANCH  12  13
ENDBRANCH   1  12
TORSDOF 7
ENDMDL
MODEL 3
REMARK VINA RESULT:    -4.650     13.880     15.587
REMARK INTER + INTRA:          -9.288
REMARK INTER:                  -6.305
REMARK INTRA:                  -2.983
REMARK UNBOUND:                -2.735
REMARK  Name = /home/anacleto/Desktop/manuscript_Mpro/naturecomm/supplementary_file_S2/6-chemical-library/molecular_docking/3D_ligand_structure/445.pdb
REMARK  7 active torsions:
REMARK  status: ('A' for Active; 'I' for Inactive)
REMARK    1  A    between atoms: C6_6  and  C7_7
REMARK    2  A    between atoms: C7_7  and  O1_8
REMARK    3  A    between atoms: O1_8  and  C8_9
REMARK    4  A    between atoms: C8_9  and  C9_11
REMARK    5  A    between atoms: C9_11  and  C10_12
REMARK    6  A    between atoms: C10_12  and  N1_13
REMARK    7  A    between atoms: C11_14  and  C12_16
REMARK                            x       y       z     vdW  Elec       q    Type
REMARK                         _______ _______ _______ _____ _____    ______ ____
ROOT
ATOM      1  C9  UNL     1      15.450  12.155  -3.265  0.00  0.00    +0.000 C 
ENDROOT
BRANCH   1   2
ATOM      2  C8  UNL     1      16.178  11.776  -2.001  0.00  0.00    +0.000 C 
ATOM      3  O2  UNL     1      15.685  11.171  -1.060  0.00  0.00    +0.000 OA
BRANCH   2   4
ATOM      4  O1  UNL     1      17.473  12.186  -2.089  0.00  0.00    +0.000 OA
BRANCH   4   5
ATOM      5  C7  UNL     1      18.193  12.243  -0.852  0.00  0.00    +0.000 C 
BRANCH   5  11
ATOM      6  C1  UNL     1      19.761  13.861   0.285  0.00  0.00    +0.000 A 
ATOM      7  C2  UNL     1      20.678  14.912   0.245  0.00  0.00    +0.000 A 
ATOM      8  C3  UNL     1      21.014  15.499  -0.974  0.00  0.00    +0.000 A 
ATOM      9  C4  UNL     1      20.438  15.032  -2.153  0.00  0.00    +0.000 A 
ATOM     10  C5  UNL     1      19.521  13.981  -2.115  0.00  0.00    +0.000 A 
ATOM     11  C6  UNL     1      19.167  13.392  -0.893  0.00  0.00    +0.000 A 
ENDBRANCH   5  11
ENDBRANCH   4   5
ENDBRANCH   2   4
ENDBRANCH   1   2
BRANCH   1  12
ATOM     12  C10 UNL     1      14.962  13.592  -3.203  0.00  0.00    +0.000 C 
BRANCH  12  13
ATOM     13  N1  UNL     1      15.491  14.277  -2.034  0.00  0.00    +0.000 N 
ATOM     14  C11 UNL     1      15.958  15.575  -2.132  0.00  0.00    +0.000 C 
ATOM     15  O3  UNL     1      15.855  16.258  -3.144  0.00  0.00    +0.000 OA
ATOM     16  H12 UNL     1      15.890  13.703  -1.302  0.00  0.00    +0.000 HD
BRANCH  14  17
ATOM     17  C12 UNL     1      16.650  16.117  -0.930  0.00  0.00    +0.000 A 
ATOM     18  C13 UNL     1      17.592  17.151  -1.018  0.00  0.00    +0.000 A 
ATOM     19  C14 UNL     1      18.217  17.627   0.136  0.00  0.00    +0.000 A 
ATOM     20  C15 UNL     1      17.911  17.071   1.379  0.00  0.00    +0.000 A 
ATOM     21  C16 UNL     1      16.986  16.031   1.469  0.00  0.00    +0.000 A 
ATOM     22  C17 UNL     1      16.360  15.551   0.318  0.00  0.00    +0.000 A 
ENDBRANCH  14  17
ENDBRANCH  12  13
ENDBRANCH   1  12
TORSDOF 7
ENDMDL
MODEL 4
REMARK VINA RESULT:    -4.562     14.136     15.998
REMARK INTER + INTRA:          -9.164
REMARK INTER:                  -6.264
REMARK INTRA:                  -2.901
REMARK UNBOUND:                -2.735
REMARK  Name = /home/anacleto/Desktop/manuscript_Mpro/naturecomm/supplementary_file_S2/6-chemical-library/molecular_docking/3D_ligand_structure/445.pdb
REMARK  7 active torsions:
REMARK  status: ('A' for Active; 'I' for Inactive)
REMARK    1  A    between atoms: C6_6  and  C7_7
REMARK    2  A    between atoms: C7_7  and  O1_8
REMARK    3  A    between atoms: O1_8  and  C8_9
REMARK    4  A    between atoms: C8_9  and  C9_11
REMARK    5  A    between atoms: C9_11  and  C10_12
REMARK    6  A    between atoms: C10_12  and  N1_13
REMARK    7  A    between atoms: C11_14  and  C12_16
REMARK                            x       y       z     vdW  Elec       q    Type
REMARK                         _______ _______ _______ _____ _____    ______ ____
ROOT
ATOM      1  C9  UNL     1      19.516  16.119   0.282  0.00  0.00    +0.000 C 
ENDROOT
BRANCH   1   2
ATOM      2  C8  UNL     1      18.169  16.230   0.946  0.00  0.00    +0.000 C 
ATOM      3  O2  UNL     1      17.970  16.690   2.061  0.00  0.00    +0.000 OA
BRANCH   2   4
ATOM      4  O1  UNL     1      17.210  15.768   0.097  0.00  0.00    +0.000 OA
BRANCH   4   5
ATOM      5  C7  UNL     1      17.129  16.432  -1.170  0.00  0.00    +0.000 C 
BRANCH   5  11
ATOM      6  C1  UNL     1      15.130  15.055  -1.863  0.00  0.00    +0.000 A 
ATOM      7  C2  UNL     1      14.456  14.249  -2.781  0.00  0.00    +0.000 A 
ATOM      8  C3  UNL     1      15.052  13.933  -4.001  0.00  0.00    +0.000 A 
ATOM      9  C4  UNL     1      16.319  14.425  -4.305  0.00  0.00    +0.000 A 
ATOM     10  C5  UNL     1      16.995  15.231  -3.387  0.00  0.00    +0.000 A 
ATOM     11  C6  UNL     1      16.410  15.545  -2.153  0.00  0.00    +0.000 A 
ENDBRANCH   5  11
ENDBRANCH   4   5
ENDBRANCH   2   4
ENDBRANCH   1   2
BRANCH   1  12
ATOM     12  C10 UNL     1      20.122  14.744   0.505  0.00  0.00    +0.000 C 
BRANCH  12  13
ATOM     13  N1  UNL     1      19.237  13.694   0.024  0.00  0.00    +0.000 N 
ATOM     14  C11 UNL     1      19.337  13.234  -1.275  0.00  0.00    +0.000 C 
ATOM     15  O3  UNL     1      20.220  13.577  -2.052  0.00  0.00    +0.000 OA
ATOM     16  H12 UNL     1      18.332  13.612   0.469  0.00  0.00    +0.000 HD
BRANCH  14  17
ATOM     17  C12 UNL     1      18.267  12.299  -1.724  0.00  0.00    +0.000 A 
ATOM     18  C13 UNL     1      18.347  11.608  -2.942  0.00  0.00    +0.000 A 
ATOM     19  C14 UNL     1      17.320  10.742  -3.322  0.00  0.00    +0.000 A 
ATOM     20  C15 UNL     1      16.209  10.568  -2.496  0.00  0.00    +0.000 A 
ATOM     21  C16 UNL     1      16.117  11.265  -1.292  0.00  0.00    +0.000 A 
ATOM     22  C17 UNL     1      17.141  12.133  -0.908  0.00  0.00    +0.000 A 
ENDBRANCH  14  17
ENDBRANCH  12  13
ENDBRANCH   1  12
TORSDOF 7
ENDMDL
MODEL 5
REMARK VINA RESULT:    -4.451      3.260      5.171
REMARK INTER + INTRA:          -9.008
REMARK INTER:                  -6.504
REMARK INTRA:                  -2.504
REMARK UNBOUND:                -2.735
REMARK  Name = /home/anacleto/Desktop/manuscript_Mpro/naturecomm/supplementary_file_S2/6-chemical-library/molecular_docking/3D_ligand_structure/445.pdb
REMARK  7 active torsions:
REMARK  status: ('A' for Active; 'I' for Inactive)
REMARK    1  A    between atoms: C6_6  and  C7_7
REMARK    2  A    between atoms: C7_7  and  O1_8
REMARK    3  A    between atoms: O1_8  and  C8_9
REMARK    4  A    between atoms: C8_9  and  C9_11
REMARK    5  A    between atoms: C9_11  and  C10_12
REMARK    6  A    between atoms: C10_12  and  N1_13
REMARK    7  A    between atoms: C11_14  and  C12_16
REMARK                            x       y       z     vdW  Elec       q    Type
REMARK                         _______ _______ _______ _____ _____    ______ ____
ROOT
ATOM      1  C9  UNL     1      24.069   6.587  13.659  0.00  0.00    +0.000 C 
ENDROOT
BRANCH   1   2
ATOM      2  C8  UNL     1      23.226   7.828  13.797  0.00  0.00    +0.000 C 
ATOM      3  O2  UNL     1      23.375   8.855  13.151  0.00  0.00    +0.000 OA
BRANCH   2   4
ATOM      4  O1  UNL     1      22.258   7.612  14.729  0.00  0.00    +0.000 OA
BRANCH   4   5
ATOM      5  C7  UNL     1      21.573   6.357  14.635  0.00  0.00    +0.000 C 
BRANCH   5  11
ATOM      6  C1  UNL     1      19.927   7.801  13.379  0.00  0.00    +0.000 A 
ATOM      7  C2  UNL     1      18.790   7.957  12.585  0.00  0.00    +0.000 A 
ATOM      8  C3  UNL     1      18.054   6.840  12.192  0.00  0.00    +0.000 A 
ATOM      9  C4  UNL     1      18.457   5.567  12.589  0.00  0.00    +0.000 A 
ATOM     10  C5  UNL     1      19.594   5.409  13.384  0.00  0.00    +0.000 A 
ATOM     11  C6  UNL     1      20.333   6.526  13.795  0.00  0.00    +0.000 A 
ENDBRANCH   5  11
ENDBRANCH   4   5
ENDBRANCH   2   4
ENDBRANCH   1   2
BRANCH   1  12
ATOM     12  C10 UNL     1      24.214   6.187  12.201  0.00  0.00    +0.000 C 
BRANCH  12  13
ATOM     13  N1  UNL     1      23.019   6.521  11.442  0.00  0.00    +0.000 N 
ATOM     14  C11 UNL     1      22.222   5.522  10.912  0.00  0.00    +0.000 C 
ATOM     15  O3  UNL     1      22.392   4.329  11.135  0.00  0.00    +0.000 OA
ATOM     16  H12 UNL     1      23.007   7.414  10.967  0.00  0.00    +0.000 HD
BRANCH  14  17
ATOM     17  C12 UNL     1      21.134   5.967   9.997  0.00  0.00    +0.000 A 
ATOM     18  C13 UNL     1      20.251   5.058   9.398  0.00  0.00    +0.000 A 
ATOM     19  C14 UNL     1      19.246   5.520   8.546  0.00  0.00    +0.000 A 
ATOM     20  C15 UNL     1      19.123   6.885   8.283  0.00  0.00    +0.000 A 
ATOM     21  C16 UNL     1      20.009   7.790   8.864  0.00  0.00    +0.000 A 
ATOM     22  C17 UNL     1      21.016   7.333   9.716  0.00  0.00    +0.000 A 
ENDBRANCH  14  17
ENDBRANCH  12  13
ENDBRANCH   1  12
TORSDOF 7
ENDMDL
MODEL 6
REMARK VINA RESULT:    -4.427     15.043     17.338
REMARK INTER + INTRA:          -8.973
REMARK INTER:                  -6.003
REMARK INTRA:                  -2.970
REMARK UNBOUND:                -2.735
REMARK  Name = /home/anacleto/Desktop/manuscript_Mpro/naturecomm/supplementary_file_S2/6-chemical-library/molecular_docking/3D_ligand_structure/445.pdb
REMARK  7 active torsions:
REMARK  status: ('A' for Active; 'I' for Inactive)
REMARK    1  A    between atoms: C6_6  and  C7_7
REMARK    2  A    between atoms: C7_7  and  O1_8
REMARK    3  A    between atoms: O1_8  and  C8_9
REMARK    4  A    between atoms: C8_9  and  C9_11
REMARK    5  A    between atoms: C9_11  and  C10_12
REMARK    6  A    between atoms: C10_12  and  N1_13
REMARK    7  A    between atoms: C11_14  and  C12_16
REMARK                            x       y       z     vdW  Elec       q    Type
REMARK                         _______ _______ _______ _____ _____    ______ ____
ROOT
ATOM      1  C9  UNL     1      16.863  12.820  -0.592  0.00  0.00    +0.000 C 
ENDROOT
BRANCH   1   2
ATOM      2  C8  UNL     1      16.372  13.826  -1.600  0.00  0.00    +0.000 C 
ATOM      3  O2  UNL     1      16.910  14.896  -1.846  0.00  0.00    +0.000 OA
BRANCH   2   4
ATOM      4  O1  UNL     1      15.257  13.340  -2.213  0.00  0.00    +0.000 OA
BRANCH   4   5
ATOM      5  C7  UNL     1      14.832  14.048  -3.384  0.00  0.00    +0.000 C 
BRANCH   5  11
ATOM      6  C1  UNL     1      15.026  13.544  -5.850  0.00  0.00    +0.000 A 
ATOM      7  C2  UNL     1      14.986  12.656  -6.926  0.00  0.00    +0.000 A 
ATOM      8  C3  UNL     1      14.695  11.310  -6.710  0.00  0.00    +0.000 A 
ATOM      9  C4  UNL     1      14.449  10.850  -5.418  0.00  0.00    +0.000 A 
ATOM     10  C5  UNL     1      14.489  11.736  -4.341  0.00  0.00    +0.000 A 
ATOM     11  C6  UNL     1      14.768  13.094  -4.548  0.00  0.00    +0.000 A 
ENDBRANCH   5  11
ENDBRANCH   4   5
ENDBRANCH   2   4
ENDBRANCH   1   2
BRANCH   1  12
ATOM     12  C10 UNL     1      17.764  11.788  -1.247  0.00  0.00    +0.000 C 
BRANCH  12  13
ATOM     13  N1  UNL     1      17.802  11.963  -2.691  0.00  0.00    +0.000 N 
ATOM     14  C11 UNL     1      17.967  10.874  -3.526  0.00  0.00    +0.000 C 
ATOM     15  O3  UNL     1      17.974   9.713  -3.135  0.00  0.00    +0.000 OA
ATOM     16  H12 UNL     1      18.121  12.858  -3.040  0.00  0.00    +0.000 HD
BRANCH  14  17
ATOM     17  C12 UNL     1      18.182  11.179  -4.968  0.00  0.00    +0.000 A 
ATOM     18  C13 UNL     1      18.132  10.183  -5.954  0.00  0.00    +0.000 A 
ATOM     19  C14 UNL     1      18.341  10.515  -7.294  0.00  0.00    +0.000 A 
ATOM     20  C15 UNL     1      18.607  11.837  -7.654  0.00  0.00    +0.000 A 
ATOM     21  C16 UNL     1      18.674  12.828  -6.676  0.00  0.00    +0.000 A 
ATOM     22  C17 UNL     1      18.467  12.500  -5.335  0.00  0.00    +0.000 A 
ENDBRANCH  14  17
ENDBRANCH  12  13
ENDBRANCH   1  12
TORSDOF 7
ENDMDL
MODEL 7
REMARK VINA RESULT:    -4.418     13.784     15.653
REMARK INTER + INTRA:          -8.961
REMARK INTER:                  -5.885
REMARK INTRA:                  -3.075
REMARK UNBOUND:                -2.735
REMARK  Name = /home/anacleto/Desktop/manuscript_Mpro/naturecomm/supplementary_file_S2/6-chemical-library/molecular_docking/3D_ligand_structure/445.pdb
REMARK  7 active torsions:
REMARK  status: ('A' for Active; 'I' for Inactive)
REMARK    1  A    between atoms: C6_6  and  C7_7
REMARK    2  A    between atoms: C7_7  and  O1_8
REMARK    3  A    between atoms: O1_8  and  C8_9
REMARK    4  A    between atoms: C8_9  and  C9_11
REMARK    5  A    between atoms: C9_11  and  C10_12
REMARK    6  A    between atoms: C10_12  and  N1_13
REMARK    7  A    between atoms: C11_14  and  C12_16
REMARK                            x       y       z     vdW  Elec       q    Type
REMARK                         _______ _______ _______ _____ _____    ______ ____
ROOT
ATOM      1  C9  UNL     1      16.618  10.895  -4.024  0.00  0.00    +0.000 C 
ENDROOT
BRANCH   1   2
ATOM      2  C8  UNL     1      16.879  10.778  -2.545  0.00  0.00    +0.000 C 
ATOM      3  O2  UNL     1      16.078  10.362  -1.720  0.00  0.00    +0.000 OA
BRANCH   2   4
ATOM      4  O1  UNL     1      18.153  11.178  -2.281  0.00  0.00    +0.000 OA
BRANCH   4   5
ATOM      5  C7  UNL     1      18.399  11.630  -0.944  0.00  0.00    +0.000 C 
BRANCH   5  11
ATOM      6  C1  UNL     1      19.902  13.232  -2.186  0.00  0.00    +0.000 A 
ATOM      7  C2  UNL     1      20.730  14.355  -2.226  0.00  0.00    +0.000 A 
ATOM      8  C3  UNL     1      20.968  15.089  -1.064  0.00  0.00    +0.000 A 
ATOM      9  C4  UNL     1      20.374  14.704   0.136  0.00  0.00    +0.000 A 
ATOM     10  C5  UNL     1      19.545  13.581   0.177  0.00  0.00    +0.000 A 
ATOM     11  C6  UNL     1      19.310  12.829  -0.982  0.00  0.00    +0.000 A 
ENDBRANCH   5  11
ENDBRANCH   4   5
ENDBRANCH   2   4
ENDBRANCH   1   2
BRANCH   1  12
ATOM     12  C10 UNL     1      15.804  12.138  -4.338  0.00  0.00    +0.000 C 
BRANCH  12  13
ATOM     13  N1  UNL     1      15.917  13.123  -3.273  0.00  0.00    +0.000 N 
ATOM     14  C11 UNL     1      16.617  14.298  -3.475  0.00  0.00    +0.000 C 
ATOM     15  O3  UNL     1      17.076  14.636  -4.559  0.00  0.00    +0.000 OA
ATOM     16  H12 UNL     1      15.859  12.784  -2.321  0.00  0.00    +0.000 HD
BRANCH  14  17
ATOM     17  C12 UNL     1      16.834  15.148  -2.271  0.00  0.00    +0.000 A 
ATOM     18  C13 UNL     1      16.263  14.837  -1.029  0.00  0.00    +0.000 A 
ATOM     19  C14 UNL     1      16.493  15.663   0.072  0.00  0.00    +0.000 A 
ATOM     20  C15 UNL     1      17.284  16.805  -0.062  0.00  0.00    +0.000 A 
ATOM     21  C16 UNL     1      17.841  17.127  -1.299  0.00  0.00    +0.000 A 
ATOM     22  C17 UNL     1      17.613  16.304  -2.403  0.00  0.00    +0.000 A 
ENDBRANCH  14  17
ENDBRANCH  12  13
ENDBRANCH   1  12
TORSDOF 7
ENDMDL
MODEL 8
REMARK VINA RESULT:    -4.272      3.130      5.599
REMARK INTER + INTRA:          -8.755
REMARK INTER:                  -6.020
REMARK INTRA:                  -2.735
REMARK UNBOUND:                -2.735
REMARK  Name = /home/anacleto/Desktop/manuscript_Mpro/naturecomm/supplementary_file_S2/6-chemical-library/molecular_docking/3D_ligand_structure/445.pdb
REMARK  7 active torsions:
REMARK  status: ('A' for Active; 'I' for Inactive)
REMARK    1  A    between atoms: C6_6  and  C7_7
REMARK    2  A    between atoms: C7_7  and  O1_8
REMARK    3  A    between atoms: O1_8  and  C8_9
REMARK    4  A    between atoms: C8_9  and  C9_11
REMARK    5  A    between atoms: C9_11  and  C10_12
REMARK    6  A    between atoms: C10_12  and  N1_13
REMARK    7  A    between atoms: C11_14  and  C12_16
REMARK                            x       y       z     vdW  Elec       q    Type
REMARK                         _______ _______ _______ _____ _____    ______ ____
ROOT
ATOM      1  C9  UNL     1      22.117   6.959  14.362  0.00  0.00    +0.000 C 
ENDROOT
BRANCH   1   2
ATOM      2  C8  UNL     1      23.214   7.179  13.354  0.00  0.00    +0.000 C 
ATOM      3  O2  UNL     1      23.615   8.271  12.977  0.00  0.00    +0.000 OA
BRANCH   2   4
ATOM      4  O1  UNL     1      23.707   5.974  12.957  0.00  0.00    +0.000 OA
BRANCH   4   5
ATOM      5  C7  UNL     1      22.745   4.920  12.827  0.00  0.00    +0.000 C 
BRANCH   5  11
ATOM      6  C1  UNL     1      22.934   5.536  10.387  0.00  0.00    +0.000 A 
ATOM      7  C2  UNL     1      22.748   5.252   9.033  0.00  0.00    +0.000 A 
ATOM      8  C3  UNL     1      22.156   4.050   8.647  0.00  0.00    +0.000 A 
ATOM      9  C4  UNL     1      21.755   3.130   9.613  0.00  0.00    +0.000 A 
ATOM     10  C5  UNL     1      21.941   3.412  10.967  0.00  0.00    +0.000 A 
ATOM     11  C6  UNL     1      22.524   4.623  11.367  0.00  0.00    +0.000 A 
ENDBRANCH   5  11
ENDBRANCH   4   5
ENDBRANCH   2   4
ENDBRANCH   1   2
BRANCH   1  12
ATOM     12  C10 UNL     1      20.893   7.793  14.026  0.00  0.00    +0.000 C 
BRANCH  12  13
ATOM     13  N1  UNL     1      20.534   7.658  12.622  0.00  0.00    +0.000 N 
ATOM     14  C11 UNL     1      19.561   6.758  12.230  0.00  0.00    +0.000 C 
ATOM     15  O3  UNL     1      18.873   6.117  13.015  0.00  0.00    +0.000 OA
ATOM     16  H12 UNL     1      21.243   7.890  11.939  0.00  0.00    +0.000 HD
BRANCH  14  17
ATOM     17  C12 UNL     1      19.403   6.561  10.762  0.00  0.00    +0.000 A 
ATOM     18  C13 UNL     1      18.882   5.375  10.224  0.00  0.00    +0.000 A 
ATOM     19  C14 UNL     1      18.751   5.235   8.841  0.00  0.00    +0.000 A 
ATOM     20  C15 UNL     1      19.147   6.269   7.991  0.00  0.00    +0.000 A 
ATOM     21  C16 UNL     1      19.682   7.442   8.521  0.00  0.00    +0.000 A 
ATOM     22  C17 UNL     1      19.814   7.587   9.903  0.00  0.00    +0.000 A 
ENDBRANCH  14  17
ENDBRANCH  12  13
ENDBRANCH   1  12
TORSDOF 7
ENDMDL
MODEL 9
REMARK VINA RESULT:    -4.234     14.900     17.356
REMARK INTER + INTRA:          -8.702
REMARK INTER:                  -5.878
REMARK INTRA:                  -2.824
REMARK UNBOUND:                -2.735
REMARK  Name = /home/anacleto/Desktop/manuscript_Mpro/naturecomm/supplementary_file_S2/6-chemical-library/molecular_docking/3D_ligand_structure/445.pdb
REMARK  7 active torsions:
REMARK  status: ('A' for Active; 'I' for Inactive)
REMARK    1  A    between atoms: C6_6  and  C7_7
REMARK    2  A    between atoms: C7_7  and  O1_8
REMARK    3  A    between atoms: O1_8  and  C8_9
REMARK    4  A    between atoms: C8_9  and  C9_11
REMARK    5  A    between atoms: C9_11  and  C10_12
REMARK    6  A    between atoms: C10_12  and  N1_13
REMARK    7  A    between atoms: C11_14  and  C12_16
REMARK                            x       y       z     vdW  Elec       q    Type
REMARK                         _______ _______ _______ _____ _____    ______ ____
ROOT
ATOM      1  C9  UNL     1      17.901  13.473  -0.876  0.00  0.00    +0.000 C 
ENDROOT
BRANCH   1   2
ATOM      2  C8  UNL     1      17.617  12.071  -1.347  0.00  0.00    +0.000 C 
ATOM      3  O2  UNL     1      16.709  11.361  -0.939  0.00  0.00    +0.000 OA
BRANCH   2   4
ATOM      4  O1  UNL     1      18.510  11.735  -2.319  0.00  0.00    +0.000 OA
BRANCH   4   5
ATOM      5  C7  UNL     1      18.136  10.630  -3.152  0.00  0.00    +0.000 C 
BRANCH   5  11
ATOM      6  C1  UNL     1      18.874  12.251  -4.942  0.00  0.00    +0.000 A 
ATOM      7  C2  UNL     1      19.048  12.601  -6.281  0.00  0.00    +0.000 A 
ATOM      8  C3  UNL     1      18.661  11.720  -7.289  0.00  0.00    +0.000 A 
ATOM      9  C4  UNL     1      18.104  10.486  -6.959  0.00  0.00    +0.000 A 
ATOM     10  C5  UNL     1      17.930  10.134  -5.620  0.00  0.00    +0.000 A 
ATOM     11  C6  UNL     1      18.304  11.017  -4.599  0.00  0.00    +0.000 A 
ENDBRANCH   5  11
ENDBRANCH   4   5
ENDBRANCH   2   4
ENDBRANCH   1   2
BRANCH   1  12
ATOM     12  C10 UNL     1      17.097  14.488  -1.670  0.00  0.00    +0.000 C 
BRANCH  12  13
ATOM     13  N1  UNL     1      16.697  13.948  -2.961  0.00  0.00    +0.000 N 
ATOM     14  C11 UNL     1      15.372  13.648  -3.216  0.00  0.00    +0.000 C 
ATOM     15  O3  UNL     1      14.456  13.915  -2.447  0.00  0.00    +0.000 OA
ATOM     16  H12 UNL     1      17.391  13.425  -3.478  0.00  0.00    +0.000 HD
BRANCH  14  17
ATOM     17  C12 UNL     1      15.095  12.928  -4.490  0.00  0.00    +0.000 A 
ATOM     18  C13 UNL     1      15.365  13.502  -5.741  0.00  0.00    +0.000 A 
ATOM     19  C14 UNL     1      15.089  12.789  -6.910  0.00  0.00    +0.000 A 
ATOM     20  C15 UNL     1      14.537  11.510  -6.836  0.00  0.00    +0.000 A 
ATOM     21  C16 UNL     1      14.251  10.942  -5.595  0.00  0.00    +0.000 A 
ATOM     22  C17 UNL     1      14.525  11.651  -4.424  0.00  0.00    +0.000 A 
ENDBRANCH  14  17
ENDBRANCH  12  13
ENDBRANCH   1  12
TORSDOF 7
ENDMDL
