MODEL 1
REMARK VINA RESULT:    -2.720      0.000      0.000
REMARK INTER + INTRA:          -2.720
REMARK INTER:                  -2.720
REMARK INTRA:                   0.000
REMARK UNBOUND:                 0.000
REMARK  Name = /home/anacleto/Desktop/manuscript_Mpro/naturecomm/supplementary_file_S2/6-chemical-library/molecular_docking/3D_ligand_structure/111.pdb
REMARK  0 active torsions:
REMARK  status: ('A' for Active; 'I' for Inactive)
REMARK                            x       y       z     vdW  Elec       q    Type
REMARK                         _______ _______ _______ _____ _____    ______ ____
ROOT
ATOM      1  C1  UNL     1     -39.116   9.748 -15.797  0.00  0.00    +0.000 C 
ATOM      2  N1  UNL     1     -39.550   9.133 -14.741  0.00  0.00    +0.000 NA
ATOM      3  C2  UNL     1     -38.358   8.358 -14.284  0.00  0.00    +0.000 C 
ATOM      4  C3  UNL     1     -37.341   8.409 -15.435  0.00  0.00    +0.000 C 
ATOM      5  N2  UNL     1     -37.834   9.536 -16.195  0.00  0.00    +0.000 N 
ATOM      6  H6  UNL     1     -37.650   9.548 -17.191  0.00  0.00    +0.000 HD
ENDROOT
TORSDOF 0
ENDMDL
MODEL 2
REMARK VINA RESULT:    -2.688      1.977      2.459
REMARK INTER + INTRA:          -2.688
REMARK INTER:                  -2.688
REMARK INTRA:                   0.000
REMARK UNBOUND:                 0.000
REMARK  Name = /home/anacleto/Desktop/manuscript_Mpro/naturecomm/supplementary_file_S2/6-chemical-library/molecular_docking/3D_ligand_structure/111.pdb
REMARK  0 active torsions:
REMARK  status: ('A' for Active; 'I' for Inactive)
REMARK                            x       y       z     vdW  Elec       q    Type
REMARK                         _______ _______ _______ _____ _____    ______ ____
ROOT
ATOM      1  C1  UNL     1     -36.324   7.902 -13.795  0.00  0.00    +0.000 C 
ATOM      2  N1  UNL     1     -37.513   7.451 -13.540  0.00  0.00    +0.000 NA
ATOM      3  C2  UNL     1     -38.239   7.658 -14.829  0.00  0.00    +0.000 C 
ATOM      4  C3  UNL     1     -37.350   8.574 -15.685  0.00  0.00    +0.000 C 
ATOM      5  N2  UNL     1     -36.072   8.419 -15.026  0.00  0.00    +0.000 N 
ATOM      6  H6  UNL     1     -35.419   9.191 -15.081  0.00  0.00    +0.000 HD
ENDROOT
TORSDOF 0
ENDMDL
MODEL 3
REMARK VINA RESULT:    -2.644     15.491     16.123
REMARK INTER + INTRA:          -2.644
REMARK INTER:                  -2.644
REMARK INTRA:                   0.000
REMARK UNBOUND:                 0.000
REMARK  Name = /home/anacleto/Desktop/manuscript_Mpro/naturecomm/supplementary_file_S2/6-chemical-library/molecular_docking/3D_ligand_structure/111.pdb
REMARK  0 active torsions:
REMARK  status: ('A' for Active; 'I' for Inactive)
REMARK                            x       y       z     vdW  Elec       q    Type
REMARK                         _______ _______ _______ _____ _____    ______ ____
ROOT
ATOM      1  C1  UNL     1     -33.494  -3.523 -25.206  0.00  0.00    +0.000 C 
ATOM      2  N1  UNL     1     -34.754  -3.805 -25.332  0.00  0.00    +0.000 NA
ATOM      3  C2  UNL     1     -35.376  -2.474 -25.601  0.00  0.00    +0.000 C 
ATOM      4  C3  UNL     1     -34.304  -1.422 -25.279  0.00  0.00    +0.000 C 
ATOM      5  N2  UNL     1     -33.102  -2.226 -25.312  0.00  0.00    +0.000 N 
ATOM      6  H6  UNL     1     -32.322  -1.928 -24.739  0.00  0.00    +0.000 HD
ENDROOT
TORSDOF 0
ENDMDL
MODEL 4
REMARK VINA RESULT:    -2.385     20.891     21.287
REMARK INTER + INTRA:          -2.385
REMARK INTER:                  -2.385
REMARK INTRA:                   0.000
REMARK UNBOUND:                 0.000
REMARK  Name = /home/anacleto/Desktop/manuscript_Mpro/naturecomm/supplementary_file_S2/6-chemical-library/molecular_docking/3D_ligand_structure/111.pdb
REMARK  0 active torsions:
REMARK  status: ('A' for Active; 'I' for Inactive)
REMARK                            x       y       z     vdW  Elec       q    Type
REMARK                         _______ _______ _______ _____ _____    ______ ____
ROOT
ATOM      1  C1  UNL     1     -27.213  -3.344 -28.494  0.00  0.00    +0.000 C 
ATOM      2  N1  UNL     1     -26.143  -3.626 -27.817  0.00  0.00    +0.000 NA
ATOM      3  C2  UNL     1     -26.595  -4.718 -26.904  0.00  0.00    +0.000 C 
ATOM      4  C3  UNL     1     -28.130  -4.740 -26.983  0.00  0.00    +0.000 C 
ATOM      5  N2  UNL     1     -28.358  -4.020 -28.216  0.00  0.00    +0.000 N 
ATOM      6  H6  UNL     1     -29.231  -3.514 -28.309  0.00  0.00    +0.000 HD
ENDROOT
TORSDOF 0
ENDMDL
MODEL 5
REMARK VINA RESULT:    -2.383      8.703      9.105
REMARK INTER + INTRA:          -2.383
REMARK INTER:                  -2.383
REMARK INTRA:                   0.000
REMARK UNBOUND:                 0.000
REMARK  Name = /home/anacleto/Desktop/manuscript_Mpro/naturecomm/supplementary_file_S2/6-chemical-library/molecular_docking/3D_ligand_structure/111.pdb
REMARK  0 active torsions:
REMARK  status: ('A' for Active; 'I' for Inactive)
REMARK                            x       y       z     vdW  Elec       q    Type
REMARK                         _______ _______ _______ _____ _____    ______ ____
ROOT
ATOM      1  C1  UNL     1     -36.581   1.486 -17.738  0.00  0.00    +0.000 C 
ATOM      2  N1  UNL     1     -36.976   0.531 -16.954  0.00  0.00    +0.000 NA
ATOM      3  C2  UNL     1     -35.814  -0.408 -16.948  0.00  0.00    +0.000 C 
ATOM      4  C3  UNL     1     -34.890   0.040 -18.091  0.00  0.00    +0.000 C 
ATOM      5  N2  UNL     1     -35.354   1.391 -18.314  0.00  0.00    +0.000 N 
ATOM      6  H6  UNL     1     -35.247   1.776 -19.245  0.00  0.00    +0.000 HD
ENDROOT
TORSDOF 0
ENDMDL
MODEL 6
REMARK VINA RESULT:    -2.380     16.384     17.092
REMARK INTER + INTRA:          -2.380
REMARK INTER:                  -2.380
REMARK INTRA:                   0.000
REMARK UNBOUND:                 0.000
REMARK  Name = /home/anacleto/Desktop/manuscript_Mpro/naturecomm/supplementary_file_S2/6-chemical-library/molecular_docking/3D_ligand_structure/111.pdb
REMARK  0 active torsions:
REMARK  status: ('A' for Active; 'I' for Inactive)
REMARK                            x       y       z     vdW  Elec       q    Type
REMARK                         _______ _______ _______ _____ _____    ______ ____
ROOT
ATOM      1  C1  UNL     1     -37.001  10.987 -31.309  0.00  0.00    +0.000 C 
ATOM      2  N1  UNL     1     -36.327  12.086 -31.165  0.00  0.00    +0.000 NA
ATOM      3  C2  UNL     1     -35.392  12.068 -32.331  0.00  0.00    +0.000 C 
ATOM      4  C3  UNL     1     -35.459  10.648 -32.916  0.00  0.00    +0.000 C 
ATOM      5  N2  UNL     1     -36.702  10.171 -32.354  0.00  0.00    +0.000 N 
ATOM      6  H6  UNL     1     -36.798   9.173 -32.205  0.00  0.00    +0.000 HD
ENDROOT
TORSDOF 0
ENDMDL
MODEL 7
REMARK VINA RESULT:    -2.296     26.285     26.694
REMARK INTER + INTRA:          -2.296
REMARK INTER:                  -2.296
REMARK INTRA:                   0.000
REMARK UNBOUND:                 0.000
REMARK  Name = /home/anacleto/Desktop/manuscript_Mpro/naturecomm/supplementary_file_S2/6-chemical-library/molecular_docking/3D_ligand_structure/111.pdb
REMARK  0 active torsions:
REMARK  status: ('A' for Active; 'I' for Inactive)
REMARK                            x       y       z     vdW  Elec       q    Type
REMARK                         _______ _______ _______ _____ _____    ______ ____
ROOT
ATOM      1  C1  UNL     1     -18.549  -4.061 -26.756  0.00  0.00    +0.000 C 
ATOM      2  N1  UNL     1     -18.496  -5.355 -26.688  0.00  0.00    +0.000 NA
ATOM      3  C2  UNL     1     -19.286  -5.792 -27.878  0.00  0.00    +0.000 C 
ATOM      4  C3  UNL     1     -20.022  -4.544 -28.391  0.00  0.00    +0.000 C 
ATOM      5  N2  UNL     1     -19.253  -3.489 -27.768  0.00  0.00    +0.000 N 
ATOM      6  H6  UNL     1     -19.729  -2.618 -27.567  0.00  0.00    +0.000 HD
ENDROOT
TORSDOF 0
ENDMDL
MODEL 8
REMARK VINA RESULT:    -2.227     20.438     20.955
REMARK INTER + INTRA:          -2.227
REMARK INTER:                  -2.227
REMARK INTRA:                   0.000
REMARK UNBOUND:                 0.000
REMARK  Name = /home/anacleto/Desktop/manuscript_Mpro/naturecomm/supplementary_file_S2/6-chemical-library/molecular_docking/3D_ligand_structure/111.pdb
REMARK  0 active torsions:
REMARK  status: ('A' for Active; 'I' for Inactive)
REMARK                            x       y       z     vdW  Elec       q    Type
REMARK                         _______ _______ _______ _____ _____    ______ ____
ROOT
ATOM      1  C1  UNL     1     -28.178  -5.165 -26.473  0.00  0.00    +0.000 C 
ATOM      2  N1  UNL     1     -27.606  -6.175 -25.894  0.00  0.00    +0.000 NA
ATOM      3  C2  UNL     1     -28.740  -7.121 -25.662  0.00  0.00    +0.000 C 
ATOM      4  C3  UNL     1     -30.028  -6.322 -25.913  0.00  0.00    +0.000 C 
ATOM      5  N2  UNL     1     -29.521  -5.204 -26.677  0.00  0.00    +0.000 N 
ATOM      6  H6  UNL     1     -30.025  -4.328 -26.618  0.00  0.00    +0.000 HD
ENDROOT
TORSDOF 0
ENDMDL
MODEL 9
REMARK VINA RESULT:    -2.202     23.291     23.845
REMARK INTER + INTRA:          -2.202
REMARK INTER:                  -2.202
REMARK INTRA:                   0.000
REMARK UNBOUND:                 0.000
REMARK  Name = /home/anacleto/Desktop/manuscript_Mpro/naturecomm/supplementary_file_S2/6-chemical-library/molecular_docking/3D_ligand_structure/111.pdb
REMARK  0 active torsions:
REMARK  status: ('A' for Active; 'I' for Inactive)
REMARK                            x       y       z     vdW  Elec       q    Type
REMARK                         _______ _______ _______ _____ _____    ______ ____
ROOT
ATOM      1  C1  UNL     1     -35.380  -1.343 -35.735  0.00  0.00    +0.000 C 
ATOM      2  N1  UNL     1     -36.574  -1.769 -35.460  0.00  0.00    +0.000 NA
ATOM      3  C2  UNL     1     -37.245  -1.785 -36.795  0.00  0.00    +0.000 C 
ATOM      4  C3  UNL     1     -36.329  -1.003 -37.749  0.00  0.00    +0.000 C 
ATOM      5  N2  UNL     1     -35.080  -1.027 -37.022  0.00  0.00    +0.000 N 
ATOM      6  H6  UNL     1     -34.434  -0.262 -37.174  0.00  0.00    +0.000 HD
ENDROOT
TORSDOF 0
ENDMDL
