MODEL 1
REMARK VINA RESULT:    -4.848      0.000      0.000
REMARK INTER + INTRA:          -6.551
REMARK INTER:                  -6.022
REMARK INTRA:                  -0.529
REMARK UNBOUND:                -0.569
REMARK  Name = /home/anacleto/Desktop/manuscript_Mpro/naturecomm/supplementary_file_S2/6-chemical-library/molecular_docking/3D_ligand_structure/776.pdb
REMARK  4 active torsions:
REMARK  status: ('A' for Active; 'I' for Inactive)
REMARK    1  A    between atoms: C3_5  and  C4_6
REMARK    2  A    between atoms: C4_6  and  C5_7
REMARK    3  A    between atoms: N3_9  and  C6_10
REMARK    4  A    between atoms: C6_10  and  C7_11
REMARK                            x       y       z     vdW  Elec       q    Type
REMARK                         _______ _______ _______ _____ _____    ______ ____
ROOT
ATOM      1  C5  UNL     1     -23.214   6.041 -38.975  0.00  0.00    +0.000 C 
ATOM      2  O1  UNL     1     -22.956   6.402 -40.123  0.00  0.00    +0.000 OA
ATOM      3  N3  UNL     1     -24.455   5.588 -38.585  0.00  0.00    +0.000 N 
ATOM      4  H6  UNL     1     -24.605   5.306 -37.625  0.00  0.00    +0.000 HD
ENDROOT
BRANCH   1   5
ATOM      5  C4  UNL     1     -22.168   6.060 -37.865  0.00  0.00    +0.000 C 
BRANCH   5  10
ATOM      6  N1  UNL     1     -20.052   6.749 -39.056  0.00  0.00    +0.000 N 
ATOM      7  C1  UNL     1     -19.235   7.841 -39.093  0.00  0.00    +0.000 A 
ATOM      8  N2  UNL     1     -19.670   8.794 -38.302  0.00  0.00    +0.000 NA
ATOM      9  C2  UNL     1     -20.809   8.297 -37.725  0.00  0.00    +0.000 A 
ATOM     10  C3  UNL     1     -21.070   7.019 -38.171  0.00  0.00    +0.000 A 
ATOM     11  H1  UNL     1     -19.920   5.876 -39.556  0.00  0.00    +0.000 HD
ENDBRANCH   5  10
ENDBRANCH   1   5
BRANCH   3  12
ATOM     12  C6  UNL     1     -25.580   5.515 -39.497  0.00  0.00    +0.000 C 
BRANCH  12  13
ATOM     13  C7  UNL     1     -26.336   4.196 -39.358  0.00  0.00    +0.000 C 
ATOM     14  C8  UNL     1     -25.670   3.185 -38.428  0.00  0.00    +0.000 C 
ATOM     15  C9  UNL     1     -26.784   2.200 -38.089  0.00  0.00    +0.000 C 
ATOM     16  C10 UNL     1     -28.096   2.963 -38.273  0.00  0.00    +0.000 C 
ATOM     17  C11 UNL     1     -27.707   4.372 -38.709  0.00  0.00    +0.000 C 
ENDBRANCH  12  13
ENDBRANCH   3  12
TORSDOF 4
ENDMDL
MODEL 2
REMARK VINA RESULT:    -4.812     25.149     27.036
REMARK INTER + INTRA:          -6.507
REMARK INTER:                  -6.120
REMARK INTRA:                  -0.387
REMARK UNBOUND:                -0.569
REMARK  Name = /home/anacleto/Desktop/manuscript_Mpro/naturecomm/supplementary_file_S2/6-chemical-library/molecular_docking/3D_ligand_structure/776.pdb
REMARK  4 active torsions:
REMARK  status: ('A' for Active; 'I' for Inactive)
REMARK    1  A    between atoms: C3_5  and  C4_6
REMARK    2  A    between atoms: C4_6  and  C5_7
REMARK    3  A    between atoms: N3_9  and  C6_10
REMARK    4  A    between atoms: C6_10  and  C7_11
REMARK                            x       y       z     vdW  Elec       q    Type
REMARK                         _______ _______ _______ _____ _____    ______ ____
ROOT
ATOM      1  C5  UNL     1     -38.061   2.955 -15.396  0.00  0.00    +0.000 C 
ATOM      2  O1  UNL     1     -39.242   2.621 -15.298  0.00  0.00    +0.000 OA
ATOM      3  N3  UNL     1     -37.274   2.644 -16.483  0.00  0.00    +0.000 N 
ATOM      4  H6  UNL     1     -36.309   2.948 -16.504  0.00  0.00    +0.000 HD
ENDROOT
BRANCH   1   5
ATOM      5  C4  UNL     1     -37.354   3.757 -14.309  0.00  0.00    +0.000 C 
BRANCH   5  10
ATOM      6  N1  UNL     1     -37.450   6.031 -15.400  0.00  0.00    +0.000 N 
ATOM      7  C1  UNL     1     -37.961   7.261 -15.106  0.00  0.00    +0.000 A 
ATOM      8  N2  UNL     1     -38.577   7.262 -13.946  0.00  0.00    +0.000 NA
ATOM      9  C2  UNL     1     -38.452   5.983 -13.468  0.00  0.00    +0.000 A 
ATOM     10  C3  UNL     1     -37.747   5.193 -14.350  0.00  0.00    +0.000 A 
ATOM     11  H1  UNL     1     -36.912   5.780 -16.222  0.00  0.00    +0.000 HD
ENDBRANCH   5  10
ENDBRANCH   1   5
BRANCH   3  12
ATOM     12  C6  UNL     1     -37.767   1.873 -17.607  0.00  0.00    +0.000 C 
BRANCH  12  13
ATOM     13  C7  UNL     1     -36.920   0.627 -17.854  0.00  0.00    +0.000 C 
ATOM     14  C8  UNL     1     -35.465   0.919 -18.216  0.00  0.00    +0.000 C 
ATOM     15  C9  UNL     1     -34.744  -0.400 -17.955  0.00  0.00    +0.000 C 
ATOM     16  C10 UNL     1     -35.586  -1.146 -16.921  0.00  0.00    +0.000 C 
ATOM     17  C11 UNL     1     -36.770  -0.237 -16.604  0.00  0.00    +0.000 C 
ENDBRANCH  12  13
ENDBRANCH   3  12
TORSDOF 4
ENDMDL
MODEL 3
REMARK VINA RESULT:    -4.774      1.099      1.711
REMARK INTER + INTRA:          -6.460
REMARK INTER:                  -5.976
REMARK INTRA:                  -0.484
REMARK UNBOUND:                -0.569
REMARK  Name = /home/anacleto/Desktop/manuscript_Mpro/naturecomm/supplementary_file_S2/6-chemical-library/molecular_docking/3D_ligand_structure/776.pdb
REMARK  4 active torsions:
REMARK  status: ('A' for Active; 'I' for Inactive)
REMARK    1  A    between atoms: C3_5  and  C4_6
REMARK    2  A    between atoms: C4_6  and  C5_7
REMARK    3  A    between atoms: N3_9  and  C6_10
REMARK    4  A    between atoms: C6_10  and  C7_11
REMARK                            x       y       z     vdW  Elec       q    Type
REMARK                         _______ _______ _______ _____ _____    ______ ____
ROOT
ATOM      1  C5  UNL     1     -23.424   6.308 -38.313  0.00  0.00    +0.000 C 
ATOM      2  O1  UNL     1     -24.112   7.275 -37.983  0.00  0.00    +0.000 OA
ATOM      3  N3  UNL     1     -23.896   5.273 -39.089  0.00  0.00    +0.000 N 
ATOM      4  H6  UNL     1     -23.281   4.506 -39.326  0.00  0.00    +0.000 HD
ENDROOT
BRANCH   1   5
ATOM      5  C4  UNL     1     -21.966   6.170 -37.888  0.00  0.00    +0.000 C 
BRANCH   5  10
ATOM      6  N1  UNL     1     -21.708   8.611 -37.301  0.00  0.00    +0.000 N 
ATOM      7  C1  UNL     1     -20.820   9.614 -37.560  0.00  0.00    +0.000 A 
ATOM      8  N2  UNL     1     -19.826   9.195 -38.309  0.00  0.00    +0.000 NA
ATOM      9  C2  UNL     1     -20.086   7.871 -38.552  0.00  0.00    +0.000 A 
ATOM     10  C3  UNL     1     -21.258   7.479 -37.941  0.00  0.00    +0.000 A 
ATOM     11  H1  UNL     1     -22.567   8.686 -36.769  0.00  0.00    +0.000 HD
ENDBRANCH   5  10
ENDBRANCH   1   5
BRANCH   3  12
ATOM     12  C6  UNL     1     -25.262   5.221 -39.573  0.00  0.00    +0.000 C 
BRANCH  12  13
ATOM     13  C7  UNL     1     -26.155   4.388 -38.657  0.00  0.00    +0.000 C 
ATOM     14  C8  UNL     1     -27.567   4.161 -39.195  0.00  0.00    +0.000 C 
ATOM     15  C9  UNL     1     -28.085   2.973 -38.391  0.00  0.00    +0.000 C 
ATOM     16  C10 UNL     1     -26.849   2.200 -37.930  0.00  0.00    +0.000 C 
ATOM     17  C11 UNL     1     -25.647   2.959 -38.484  0.00  0.00    +0.000 C 
ENDBRANCH  12  13
ENDBRANCH   3  12
TORSDOF 4
ENDMDL
MODEL 4
REMARK VINA RESULT:    -4.597     16.138     17.122
REMARK INTER + INTRA:          -6.241
REMARK INTER:                  -5.911
REMARK INTRA:                  -0.330
REMARK UNBOUND:                -0.569
REMARK  Name = /home/anacleto/Desktop/manuscript_Mpro/naturecomm/supplementary_file_S2/6-chemical-library/molecular_docking/3D_ligand_structure/776.pdb
REMARK  4 active torsions:
REMARK  status: ('A' for Active; 'I' for Inactive)
REMARK    1  A    between atoms: C3_5  and  C4_6
REMARK    2  A    between atoms: C4_6  and  C5_7
REMARK    3  A    between atoms: N3_9  and  C6_10
REMARK    4  A    between atoms: C6_10  and  C7_11
REMARK                            x       y       z     vdW  Elec       q    Type
REMARK                         _______ _______ _______ _____ _____    ______ ____
ROOT
ATOM      1  C5  UNL     1     -20.977  -5.290 -27.591  0.00  0.00    +0.000 C 
ATOM      2  O1  UNL     1     -21.528  -6.016 -28.419  0.00  0.00    +0.000 OA
ATOM      3  N3  UNL     1     -21.488  -5.050 -26.336  0.00  0.00    +0.000 N 
ATOM      4  H6  UNL     1     -20.988  -4.442 -25.701  0.00  0.00    +0.000 HD
ENDROOT
BRANCH   1   5
ATOM      5  C4  UNL     1     -19.659  -4.581 -27.887  0.00  0.00    +0.000 C 
BRANCH   5  10
ATOM      6  N1  UNL     1     -18.283  -5.922 -26.250  0.00  0.00    +0.000 N 
ATOM      7  C1  UNL     1     -17.419  -5.668 -25.226  0.00  0.00    +0.000 A 
ATOM      8  N2  UNL     1     -17.250  -4.378 -25.048  0.00  0.00    +0.000 NA
ATOM      9  C2  UNL     1     -18.042  -3.774 -25.989  0.00  0.00    +0.000 A 
ATOM     10  C3  UNL     1     -18.706  -4.712 -26.750  0.00  0.00    +0.000 A 
ATOM     11  H1  UNL     1     -18.596  -6.833 -26.566  0.00  0.00    +0.000 HD
ENDBRANCH   5  10
ENDBRANCH   1   5
BRANCH   3  12
ATOM     12  C6  UNL     1     -22.740  -5.623 -25.881  0.00  0.00    +0.000 C 
BRANCH  12  13
ATOM     13  C7  UNL     1     -23.275  -4.906 -24.644  0.00  0.00    +0.000 C 
ATOM     14  C8  UNL     1     -22.193  -4.448 -23.667  0.00  0.00    +0.000 C 
ATOM     15  C9  UNL     1     -22.889  -3.397 -22.807  0.00  0.00    +0.000 C 
ATOM     16  C10 UNL     1     -24.038  -2.849 -23.652  0.00  0.00    +0.000 C 
ATOM     17  C11 UNL     1     -23.974  -3.592 -24.983  0.00  0.00    +0.000 C 
ENDBRANCH  12  13
ENDBRANCH   3  12
TORSDOF 4
ENDMDL
MODEL 5
REMARK VINA RESULT:    -4.396     14.924     16.457
REMARK INTER + INTRA:          -5.993
REMARK INTER:                  -5.466
REMARK INTRA:                  -0.527
REMARK UNBOUND:                -0.569
REMARK  Name = /home/anacleto/Desktop/manuscript_Mpro/naturecomm/supplementary_file_S2/6-chemical-library/molecular_docking/3D_ligand_structure/776.pdb
REMARK  4 active torsions:
REMARK  status: ('A' for Active; 'I' for Inactive)
REMARK    1  A    between atoms: C3_5  and  C4_6
REMARK    2  A    between atoms: C4_6  and  C5_7
REMARK    3  A    between atoms: N3_9  and  C6_10
REMARK    4  A    between atoms: C6_10  and  C7_11
REMARK                            x       y       z     vdW  Elec       q    Type
REMARK                         _______ _______ _______ _____ _____    ______ ____
ROOT
ATOM      1  C5  UNL     1     -37.762  10.906 -35.662  0.00  0.00    +0.000 C 
ATOM      2  O1  UNL     1     -37.144  11.540 -36.518  0.00  0.00    +0.000 OA
ATOM      3  N3  UNL     1     -37.311  10.738 -34.372  0.00  0.00    +0.000 N 
ATOM      4  H6  UNL     1     -37.865  10.205 -33.714  0.00  0.00    +0.000 HD
ENDROOT
BRANCH   1   5
ATOM      5  C4  UNL     1     -39.103  10.241 -35.957  0.00  0.00    +0.000 C 
BRANCH   5  10
ATOM      6  N1  UNL     1     -38.270   9.253 -38.125  0.00  0.00    +0.000 N 
ATOM      7  C1  UNL     1     -38.332   8.049 -38.765  0.00  0.00    +0.000 A 
ATOM      8  N2  UNL     1     -38.996   7.163 -38.059  0.00  0.00    +0.000 NA
ATOM      9  C2  UNL     1     -39.386   7.822 -36.922  0.00  0.00    +0.000 A 
ATOM     10  C3  UNL     1     -38.954   9.130 -36.937  0.00  0.00    +0.000 A 
ATOM     11  H1  UNL     1     -37.837  10.101 -38.472  0.00  0.00    +0.000 HD
ENDBRANCH   5  10
ENDBRANCH   1   5
BRANCH   3  12
ATOM     12  C6  UNL     1     -36.049  11.282 -33.910  0.00  0.00    +0.000 C 
BRANCH  12  13
ATOM     13  C7  UNL     1     -36.108  11.678 -32.437  0.00  0.00    +0.000 C 
ATOM     14  C8  UNL     1     -36.818  13.004 -32.171  0.00  0.00    +0.000 C 
ATOM     15  C9  UNL     1     -37.159  12.952 -30.685  0.00  0.00    +0.000 C 
ATOM     16  C10 UNL     1     -37.227  11.470 -30.316  0.00  0.00    +0.000 C 
ATOM     17  C11 UNL     1     -36.931  10.702 -31.600  0.00  0.00    +0.000 C 
ENDBRANCH  12  13
ENDBRANCH   3  12
TORSDOF 4
ENDMDL
MODEL 6
REMARK VINA RESULT:    -4.377      1.958      6.850
REMARK INTER + INTRA:          -5.970
REMARK INTER:                  -5.645
REMARK INTRA:                  -0.325
REMARK UNBOUND:                -0.569
REMARK  Name = /home/anacleto/Desktop/manuscript_Mpro/naturecomm/supplementary_file_S2/6-chemical-library/molecular_docking/3D_ligand_structure/776.pdb
REMARK  4 active torsions:
REMARK  status: ('A' for Active; 'I' for Inactive)
REMARK    1  A    between atoms: C3_5  and  C4_6
REMARK    2  A    between atoms: C4_6  and  C5_7
REMARK    3  A    between atoms: N3_9  and  C6_10
REMARK    4  A    between atoms: C6_10  and  C7_11
REMARK                            x       y       z     vdW  Elec       q    Type
REMARK                         _______ _______ _______ _____ _____    ______ ____
ROOT
ATOM      1  C5  UNL     1     -24.747   5.565 -39.258  0.00  0.00    +0.000 C 
ATOM      2  O1  UNL     1     -25.562   6.484 -39.340  0.00  0.00    +0.000 OA
ATOM      3  N3  UNL     1     -23.557   5.668 -38.573  0.00  0.00    +0.000 N 
ATOM      4  H6  UNL     1     -22.929   4.875 -38.543  0.00  0.00    +0.000 HD
ENDROOT
BRANCH   1   5
ATOM      5  C4  UNL     1     -24.987   4.210 -39.915  0.00  0.00    +0.000 C 
BRANCH   5  10
ATOM      6  N1  UNL     1     -25.674   2.738 -37.983  0.00  0.00    +0.000 N 
ATOM      7  C1  UNL     1     -26.808   2.111 -37.556  0.00  0.00    +0.000 A 
ATOM      8  N2  UNL     1     -27.818   2.342 -38.363  0.00  0.00    +0.000 NA
ATOM      9  C2  UNL     1     -27.315   3.143 -39.355  0.00  0.00    +0.000 A 
ATOM     10  C3  UNL     1     -25.977   3.402 -39.149  0.00  0.00    +0.000 A 
ATOM     11  H1  UNL     1     -24.758   2.695 -37.548  0.00  0.00    +0.000 HD
ENDBRANCH   5  10
ENDBRANCH   1   5
BRANCH   3  12
ATOM     12  C6  UNL     1     -23.148   6.884 -37.899  0.00  0.00    +0.000 C 
BRANCH  12  13
ATOM     13  C7  UNL     1     -21.635   7.082 -37.957  0.00  0.00    +0.000 C 
ATOM     14  C8  UNL     1     -21.007   6.731 -39.304  0.00  0.00    +0.000 C 
ATOM     15  C9  UNL     1     -19.650   7.427 -39.275  0.00  0.00    +0.000 C 
ATOM     16  C10 UNL     1     -19.790   8.592 -38.296  0.00  0.00    +0.000 C 
ATOM     17  C11 UNL     1     -21.228   8.544 -37.787  0.00  0.00    +0.000 C 
ENDBRANCH  12  13
ENDBRANCH   3  12
TORSDOF 4
ENDMDL
MODEL 7
REMARK VINA RESULT:    -4.317      5.044      7.324
REMARK INTER + INTRA:          -5.896
REMARK INTER:                  -5.349
REMARK INTRA:                  -0.547
REMARK UNBOUND:                -0.569
REMARK  Name = /home/anacleto/Desktop/manuscript_Mpro/naturecomm/supplementary_file_S2/6-chemical-library/molecular_docking/3D_ligand_structure/776.pdb
REMARK  4 active torsions:
REMARK  status: ('A' for Active; 'I' for Inactive)
REMARK    1  A    between atoms: C3_5  and  C4_6
REMARK    2  A    between atoms: C4_6  and  C5_7
REMARK    3  A    between atoms: N3_9  and  C6_10
REMARK    4  A    between atoms: C6_10  and  C7_11
REMARK                            x       y       z     vdW  Elec       q    Type
REMARK                         _______ _______ _______ _____ _____    ______ ____
ROOT
ATOM      1  C5  UNL     1     -25.417  10.201 -37.983  0.00  0.00    +0.000 C 
ATOM      2  O1  UNL     1     -25.071  11.072 -38.780  0.00  0.00    +0.000 OA
ATOM      3  N3  UNL     1     -24.535   9.532 -37.164  0.00  0.00    +0.000 N 
ATOM      4  H6  UNL     1     -24.881   8.824 -36.529  0.00  0.00    +0.000 HD
ENDROOT
BRANCH   1   5
ATOM      5  C4  UNL     1     -26.874   9.778 -37.826  0.00  0.00    +0.000 C 
BRANCH   5  10
ATOM      6  N1  UNL     1     -27.405  12.098 -36.985  0.00  0.00    +0.000 N 
ATOM      7  C1  UNL     1     -28.272  12.666 -36.099  0.00  0.00    +0.000 A 
ATOM      8  N2  UNL     1     -29.046  11.766 -35.537  0.00  0.00    +0.000 NA
ATOM      9  C2  UNL     1     -28.657  10.567 -36.076  0.00  0.00    +0.000 A 
ATOM     10  C3  UNL     1     -27.630  10.741 -36.978  0.00  0.00    +0.000 A 
ATOM     11  H1  UNL     1     -26.692  12.575 -37.526  0.00  0.00    +0.000 HD
ENDBRANCH   5  10
ENDBRANCH   1   5
BRANCH   3  12
ATOM     12  C6  UNL     1     -23.108   9.785 -37.183  0.00  0.00    +0.000 C 
BRANCH  12  13
ATOM     13  C7  UNL     1     -22.366   8.779 -38.060  0.00  0.00    +0.000 C 
ATOM     14  C8  UNL     1     -20.919   8.526 -37.641  0.00  0.00    +0.000 C 
ATOM     15  C9  UNL     1     -20.558   7.211 -38.322  0.00  0.00    +0.000 C 
ATOM     16  C10 UNL     1     -21.878   6.473 -38.548  0.00  0.00    +0.000 C 
ATOM     17  C11 UNL     1     -22.969   7.379 -37.986  0.00  0.00    +0.000 C 
ENDBRANCH  12  13
ENDBRANCH   3  12
TORSDOF 4
ENDMDL
MODEL 8
REMARK VINA RESULT:    -4.282      2.169      3.549
REMARK INTER + INTRA:          -5.853
REMARK INTER:                  -5.292
REMARK INTRA:                  -0.561
REMARK UNBOUND:                -0.569
REMARK  Name = /home/anacleto/Desktop/manuscript_Mpro/naturecomm/supplementary_file_S2/6-chemical-library/molecular_docking/3D_ligand_structure/776.pdb
REMARK  4 active torsions:
REMARK  status: ('A' for Active; 'I' for Inactive)
REMARK    1  A    between atoms: C3_5  and  C4_6
REMARK    2  A    between atoms: C4_6  and  C5_7
REMARK    3  A    between atoms: N3_9  and  C6_10
REMARK    4  A    between atoms: C6_10  and  C7_11
REMARK                            x       y       z     vdW  Elec       q    Type
REMARK                         _______ _______ _______ _____ _____    ______ ____
ROOT
ATOM      1  C5  UNL     1     -20.924   8.114 -38.035  0.00  0.00    +0.000 C 
ATOM      2  O1  UNL     1     -20.134   7.659 -38.862  0.00  0.00    +0.000 OA
ATOM      3  N3  UNL     1     -21.987   7.399 -37.531  0.00  0.00    +0.000 N 
ATOM      4  H6  UNL     1     -22.602   7.830 -36.853  0.00  0.00    +0.000 HD
ENDROOT
BRANCH   1   5
ATOM      5  C4  UNL     1     -20.793   9.530 -37.485  0.00  0.00    +0.000 C 
BRANCH   5  10
ATOM      6  N1  UNL     1     -18.355  10.004 -37.938  0.00  0.00    +0.000 N 
ATOM      7  C1  UNL     1     -17.630  10.864 -38.709  0.00  0.00    +0.000 A 
ATOM      8  N2  UNL     1     -18.409  11.653 -39.413  0.00  0.00    +0.000 NA
ATOM      9  C2  UNL     1     -19.689  11.295 -39.077  0.00  0.00    +0.000 A 
ATOM     10  C3  UNL     1     -19.688  10.272 -38.153  0.00  0.00    +0.000 A 
ATOM     11  H1  UNL     1     -17.989   9.316 -37.290  0.00  0.00    +0.000 HD
ENDBRANCH   5  10
ENDBRANCH   1   5
BRANCH   3  12
ATOM     12  C6  UNL     1     -22.283   6.043 -37.948  0.00  0.00    +0.000 C 
BRANCH  12  13
ATOM     13  C7  UNL     1     -23.511   5.983 -38.853  0.00  0.00    +0.000 C 
ATOM     14  C8  UNL     1     -24.468   4.835 -38.538  0.00  0.00    +0.000 C 
ATOM     15  C9  UNL     1     -25.774   5.244 -39.211  0.00  0.00    +0.000 C 
ATOM     16  C10 UNL     1     -25.739   6.769 -39.316  0.00  0.00    +0.000 C 
ATOM     17  C11 UNL     1     -24.415   7.204 -38.695  0.00  0.00    +0.000 C 
ENDBRANCH  12  13
ENDBRANCH   3  12
TORSDOF 4
ENDMDL
MODEL 9
REMARK VINA RESULT:    -4.162     14.484     16.438
REMARK INTER + INTRA:          -5.705
REMARK INTER:                  -5.136
REMARK INTRA:                  -0.569
REMARK UNBOUND:                -0.569
REMARK  Name = /home/anacleto/Desktop/manuscript_Mpro/naturecomm/supplementary_file_S2/6-chemical-library/molecular_docking/3D_ligand_structure/776.pdb
REMARK  4 active torsions:
REMARK  status: ('A' for Active; 'I' for Inactive)
REMARK    1  A    between atoms: C3_5  and  C4_6
REMARK    2  A    between atoms: C4_6  and  C5_7
REMARK    3  A    between atoms: N3_9  and  C6_10
REMARK    4  A    between atoms: C6_10  and  C7_11
REMARK                            x       y       z     vdW  Elec       q    Type
REMARK                         _______ _______ _______ _____ _____    ______ ____
ROOT
ATOM      1  C5  UNL     1     -23.590  -3.911 -27.613  0.00  0.00    +0.000 C 
ATOM      2  O1  UNL     1     -24.134  -3.896 -28.717  0.00  0.00    +0.000 OA
ATOM      3  N3  UNL     1     -22.231  -3.778 -27.438  0.00  0.00    +0.000 N 
ATOM      4  H6  UNL     1     -21.843  -3.800 -26.503  0.00  0.00    +0.000 HD
ENDROOT
BRANCH   1   5
ATOM      5  C4  UNL     1     -24.383  -4.080 -26.322  0.00  0.00    +0.000 C 
BRANCH   5  10
ATOM      6  N1  UNL     1     -26.578  -3.208 -27.213  0.00  0.00    +0.000 N 
ATOM      7  C1  UNL     1     -27.867  -3.645 -27.299  0.00  0.00    +0.000 A 
ATOM      8  N2  UNL     1     -28.003  -4.847 -26.788  0.00  0.00    +0.000 NA
ATOM      9  C2  UNL     1     -26.753  -5.198 -26.347  0.00  0.00    +0.000 A 
ATOM     10  C3  UNL     1     -25.843  -4.192 -26.592  0.00  0.00    +0.000 A 
ATOM     11  H1  UNL     1     -26.223  -2.307 -27.513  0.00  0.00    +0.000 HD
ENDBRANCH   5  10
ENDBRANCH   1   5
BRANCH   3  12
ATOM     12  C6  UNL     1     -21.312  -3.625 -28.549  0.00  0.00    +0.000 C 
BRANCH  12  13
ATOM     13  C7  UNL     1     -20.077  -4.507 -28.388  0.00  0.00    +0.000 C 
ATOM     14  C8  UNL     1     -19.401  -4.398 -27.022  0.00  0.00    +0.000 C 
ATOM     15  C9  UNL     1     -18.535  -5.650 -26.934  0.00  0.00    +0.000 C 
ATOM     16  C10 UNL     1     -19.179  -6.678 -27.865  0.00  0.00    +0.000 C 
ATOM     17  C11 UNL     1     -20.405  -5.996 -28.463  0.00  0.00    +0.000 C 
ENDBRANCH  12  13
ENDBRANCH   3  12
TORSDOF 4
ENDMDL
