MODEL 1
REMARK VINA RESULT:    -4.900      0.000      0.000
REMARK INTER + INTRA:          -6.431
REMARK INTER:                  -5.928
REMARK INTRA:                  -0.504
REMARK UNBOUND:                -0.672
REMARK  Name = /home/anacleto/Desktop/manuscript_Mpro/naturecomm/supplementary_file_S2/6-chemical-library/molecular_docking/3D_ligand_structure/1002.pdb
REMARK  3 active torsions:
REMARK  status: ('A' for Active; 'I' for Inactive)
REMARK    1  A    between atoms: C6_6  and  C7_7
REMARK    2  A    between atoms: C7_7  and  C8_8
REMARK    3  A    between atoms: C8_8  and  C9_9
REMARK                            x       y       z     vdW  Elec       q    Type
REMARK                         _______ _______ _______ _____ _____    ______ ____
ROOT
ATOM      1  C7  UNL     1      19.969   3.611   9.238  0.00  0.00    +0.000 C 
ENDROOT
BRANCH   1   7
ATOM      2  C1  UNL     1      19.013   5.847   8.552  0.00  0.00    +0.000 A 
ATOM      3  C2  UNL     1      19.113   7.232   8.414  0.00  0.00    +0.000 A 
ATOM      4  C3  UNL     1      20.270   7.893   8.827  0.00  0.00    +0.000 A 
ATOM      5  C4  UNL     1      21.326   7.170   9.375  0.00  0.00    +0.000 A 
ATOM      6  C5  UNL     1      21.228   5.784   9.513  0.00  0.00    +0.000 A 
ATOM      7  C6  UNL     1      20.068   5.111   9.108  0.00  0.00    +0.000 A 
ENDBRANCH   1   7
BRANCH   1   8
ATOM      8  C8  UNL     1      18.732   3.194  10.039  0.00  0.00    +0.000 C 
BRANCH   8   9
ATOM      9  C9  UNL     1      17.761   2.407   9.194  0.00  0.00    +0.000 A 
ATOM     10  C10 UNL     1      17.817   1.007   9.165  0.00  0.00    +0.000 A 
ATOM     11  C11 UNL     1      16.905   0.279   8.399  0.00  0.00    +0.000 A 
ATOM     12  C12 UNL     1      15.929   0.943   7.658  0.00  0.00    +0.000 A 
ATOM     13  C13 UNL     1      15.861   2.335   7.684  0.00  0.00    +0.000 A 
ATOM     14  C14 UNL     1      16.772   3.065   8.450  0.00  0.00    +0.000 A 
ENDBRANCH   8   9
ENDBRANCH   1   8
TORSDOF 3
ENDMDL
MODEL 2
REMARK VINA RESULT:    -4.895      0.066      5.911
REMARK INTER + INTRA:          -6.426
REMARK INTER:                  -5.939
REMARK INTRA:                  -0.487
REMARK UNBOUND:                -0.672
REMARK  Name = /home/anacleto/Desktop/manuscript_Mpro/naturecomm/supplementary_file_S2/6-chemical-library/molecular_docking/3D_ligand_structure/1002.pdb
REMARK  3 active torsions:
REMARK  status: ('A' for Active; 'I' for Inactive)
REMARK    1  A    between atoms: C6_6  and  C7_7
REMARK    2  A    between atoms: C7_7  and  C8_8
REMARK    3  A    between atoms: C8_8  and  C9_9
REMARK                            x       y       z     vdW  Elec       q    Type
REMARK                         _______ _______ _______ _____ _____    ______ ____
ROOT
ATOM      1  C7  UNL     1      18.797   3.197  10.076  0.00  0.00    +0.000 C 
ENDROOT
BRANCH   1   7
ATOM      2  C1  UNL     1      17.884   1.016   9.186  0.00  0.00    +0.000 A 
ATOM      3  C2  UNL     1      16.989   0.294   8.394  0.00  0.00    +0.000 A 
ATOM      4  C3  UNL     1      16.021   0.964   7.646  0.00  0.00    +0.000 A 
ATOM      5  C4  UNL     1      15.950   2.354   7.687  0.00  0.00    +0.000 A 
ATOM      6  C5  UNL     1      16.844   3.078   8.477  0.00  0.00    +0.000 A 
ATOM      7  C6  UNL     1      17.816   2.415   9.238  0.00  0.00    +0.000 A 
ENDBRANCH   1   7
BRANCH   1   8
ATOM      8  C8  UNL     1      20.033   3.602   9.268  0.00  0.00    +0.000 C 
BRANCH   8   9
ATOM      9  C9  UNL     1      20.123   5.098   9.102  0.00  0.00    +0.000 A 
ATOM     10  C10 UNL     1      19.045   5.820   8.571  0.00  0.00    +0.000 A 
ATOM     11  C11 UNL     1      19.122   7.207   8.436  0.00  0.00    +0.000 A 
ATOM     12  C12 UNL     1      20.274   7.885   8.834  0.00  0.00    +0.000 A 
ATOM     13  C13 UNL     1      21.348   7.177   9.368  0.00  0.00    +0.000 A 
ATOM     14  C14 UNL     1      21.274   5.790   9.504  0.00  0.00    +0.000 A 
ENDBRANCH   8   9
ENDBRANCH   1   8
TORSDOF 3
ENDMDL
MODEL 3
REMARK VINA RESULT:    -4.791      1.817      2.456
REMARK INTER + INTRA:          -6.303
REMARK INTER:                  -5.834
REMARK INTRA:                  -0.469
REMARK UNBOUND:                -0.672
REMARK  Name = /home/anacleto/Desktop/manuscript_Mpro/naturecomm/supplementary_file_S2/6-chemical-library/molecular_docking/3D_ligand_structure/1002.pdb
REMARK  3 active torsions:
REMARK  status: ('A' for Active; 'I' for Inactive)
REMARK    1  A    between atoms: C6_6  and  C7_7
REMARK    2  A    between atoms: C7_7  and  C8_8
REMARK    3  A    between atoms: C8_8  and  C9_9
REMARK                            x       y       z     vdW  Elec       q    Type
REMARK                         _______ _______ _______ _____ _____    ______ ____
ROOT
ATOM      1  C7  UNL     1      18.051   3.707   9.762  0.00  0.00    +0.000 C 
ENDROOT
BRANCH   1   7
ATOM      2  C1  UNL     1      18.977   5.823  10.786  0.00  0.00    +0.000 A 
ATOM      3  C2  UNL     1      19.528   7.100  10.672  0.00  0.00    +0.000 A 
ATOM      4  C3  UNL     1      19.771   7.646   9.412  0.00  0.00    +0.000 A 
ATOM      5  C4  UNL     1      19.461   6.917   8.266  0.00  0.00    +0.000 A 
ATOM      6  C5  UNL     1      18.908   5.640   8.378  0.00  0.00    +0.000 A 
ATOM      7  C6  UNL     1      18.667   5.079   9.639  0.00  0.00    +0.000 A 
ENDBRANCH   1   7
BRANCH   1   8
ATOM      8  C8  UNL     1      17.199   3.360   8.538  0.00  0.00    +0.000 C 
BRANCH   8   9
ATOM      9  C9  UNL     1      15.891   2.722   8.934  0.00  0.00    +0.000 A 
ATOM     10  C10 UNL     1      15.338   2.962  10.200  0.00  0.00    +0.000 A 
ATOM     11  C11 UNL     1      14.117   2.388  10.558  0.00  0.00    +0.000 A 
ATOM     12  C12 UNL     1      13.437   1.572   9.655  0.00  0.00    +0.000 A 
ATOM     13  C13 UNL     1      13.975   1.332   8.392  0.00  0.00    +0.000 A 
ATOM     14  C14 UNL     1      15.196   1.905   8.032  0.00  0.00    +0.000 A 
ENDBRANCH   8   9
ENDBRANCH   1   8
TORSDOF 3
ENDMDL
MODEL 4
REMARK VINA RESULT:    -4.697      2.978      4.494
REMARK INTER + INTRA:          -6.193
REMARK INTER:                  -5.583
REMARK INTRA:                  -0.610
REMARK UNBOUND:                -0.672
REMARK  Name = /home/anacleto/Desktop/manuscript_Mpro/naturecomm/supplementary_file_S2/6-chemical-library/molecular_docking/3D_ligand_structure/1002.pdb
REMARK  3 active torsions:
REMARK  status: ('A' for Active; 'I' for Inactive)
REMARK    1  A    between atoms: C6_6  and  C7_7
REMARK    2  A    between atoms: C7_7  and  C8_8
REMARK    3  A    between atoms: C8_8  and  C9_9
REMARK                            x       y       z     vdW  Elec       q    Type
REMARK                         _______ _______ _______ _____ _____    ______ ____
ROOT
ATOM      1  C7  UNL     1      20.595   3.638   9.187  0.00  0.00    +0.000 C 
ENDROOT
BRANCH   1   7
ATOM      2  C1  UNL     1      19.175   5.629   8.552  0.00  0.00    +0.000 A 
ATOM      3  C2  UNL     1      18.995   7.004   8.391  0.00  0.00    +0.000 A 
ATOM      4  C3  UNL     1      20.028   7.886   8.706  0.00  0.00    +0.000 A 
ATOM      5  C4  UNL     1      21.242   7.394   9.179  0.00  0.00    +0.000 A 
ATOM      6  C5  UNL     1      21.425   6.020   9.340  0.00  0.00    +0.000 A 
ATOM      7  C6  UNL     1      20.391   5.125   9.034  0.00  0.00    +0.000 A 
ENDBRANCH   1   7
BRANCH   1   8
ATOM      8  C8  UNL     1      22.071   3.290   9.399  0.00  0.00    +0.000 C 
BRANCH   8   9
ATOM      9  C9  UNL     1      22.690   2.711   8.151  0.00  0.00    +0.000 A 
ATOM     10  C10 UNL     1      22.643   1.330   7.910  0.00  0.00    +0.000 A 
ATOM     11  C11 UNL     1      23.198   0.798   6.745  0.00  0.00    +0.000 A 
ATOM     12  C12 UNL     1      23.801   1.638   5.811  0.00  0.00    +0.000 A 
ATOM     13  C13 UNL     1      23.847   3.012   6.038  0.00  0.00    +0.000 A 
ATOM     14  C14 UNL     1      23.293   3.548   7.202  0.00  0.00    +0.000 A 
ENDBRANCH   8   9
ENDBRANCH   1   8
TORSDOF 3
ENDMDL
MODEL 5
REMARK VINA RESULT:    -4.687      1.591      6.271
REMARK INTER + INTRA:          -6.181
REMARK INTER:                  -5.769
REMARK INTRA:                  -0.412
REMARK UNBOUND:                -0.672
REMARK  Name = /home/anacleto/Desktop/manuscript_Mpro/naturecomm/supplementary_file_S2/6-chemical-library/molecular_docking/3D_ligand_structure/1002.pdb
REMARK  3 active torsions:
REMARK  status: ('A' for Active; 'I' for Inactive)
REMARK    1  A    between atoms: C6_6  and  C7_7
REMARK    2  A    between atoms: C7_7  and  C8_8
REMARK    3  A    between atoms: C8_8  and  C9_9
REMARK                            x       y       z     vdW  Elec       q    Type
REMARK                         _______ _______ _______ _____ _____    ______ ____
ROOT
ATOM      1  C7  UNL     1      17.172   3.395   9.909  0.00  0.00    +0.000 C 
ENDROOT
BRANCH   1   7
ATOM      2  C1  UNL     1      14.847   2.406   9.912  0.00  0.00    +0.000 A 
ATOM      3  C2  UNL     1      13.867   1.578   9.362  0.00  0.00    +0.000 A 
ATOM      4  C3  UNL     1      14.135   0.854   8.201  0.00  0.00    +0.000 A 
ATOM      5  C4  UNL     1      15.384   0.954   7.592  0.00  0.00    +0.000 A 
ATOM      6  C5  UNL     1      16.366   1.780   8.140  0.00  0.00    +0.000 A 
ATOM      7  C6  UNL     1      16.105   2.518   9.303  0.00  0.00    +0.000 A 
ENDBRANCH   1   7
BRANCH   1   8
ATOM      8  C8  UNL     1      18.185   3.859   8.858  0.00  0.00    +0.000 C 
BRANCH   8   9
ATOM      9  C9  UNL     1      18.769   5.206   9.206  0.00  0.00    +0.000 A 
ATOM     10  C10 UNL     1      19.116   6.112   8.194  0.00  0.00    +0.000 A 
ATOM     11  C11 UNL     1      19.637   7.366   8.517  0.00  0.00    +0.000 A 
ATOM     12  C12 UNL     1      19.815   7.725   9.852  0.00  0.00    +0.000 A 
ATOM     13  C13 UNL     1      19.468   6.834  10.865  0.00  0.00    +0.000 A 
ATOM     14  C14 UNL     1      18.946   5.580  10.545  0.00  0.00    +0.000 A 
ENDBRANCH   8   9
ENDBRANCH   1   8
TORSDOF 3
ENDMDL
MODEL 6
REMARK VINA RESULT:    -4.532     13.441     15.120
REMARK INTER + INTRA:          -5.998
REMARK INTER:                  -5.509
REMARK INTRA:                  -0.489
REMARK UNBOUND:                -0.672
REMARK  Name = /home/anacleto/Desktop/manuscript_Mpro/naturecomm/supplementary_file_S2/6-chemical-library/molecular_docking/3D_ligand_structure/1002.pdb
REMARK  3 active torsions:
REMARK  status: ('A' for Active; 'I' for Inactive)
REMARK    1  A    between atoms: C6_6  and  C7_7
REMARK    2  A    between atoms: C7_7  and  C8_8
REMARK    3  A    between atoms: C8_8  and  C9_9
REMARK                            x       y       z     vdW  Elec       q    Type
REMARK                         _______ _______ _______ _____ _____    ______ ____
ROOT
ATOM      1  C7  UNL     1      15.335  12.330  -2.450  0.00  0.00    +0.000 C 
ENDROOT
BRANCH   1   7
ATOM      2  C1  UNL     1      17.570  11.560  -1.557  0.00  0.00    +0.000 A 
ATOM      3  C2  UNL     1      18.763  11.796  -0.873  0.00  0.00    +0.000 A 
ATOM      4  C3  UNL     1      19.030  13.061  -0.351  0.00  0.00    +0.000 A 
ATOM      5  C4  UNL     1      18.104  14.089  -0.511  0.00  0.00    +0.000 A 
ATOM      6  C5  UNL     1      16.910  13.856  -1.194  0.00  0.00    +0.000 A 
ATOM      7  C6  UNL     1      16.635  12.590  -1.729  0.00  0.00    +0.000 A 
ENDBRANCH   1   7
BRANCH   1   8
ATOM      8  C8  UNL     1      15.332  10.959  -3.131  0.00  0.00    +0.000 C 
BRANCH   8   9
ATOM      9  C9  UNL     1      14.925  11.058  -4.581  0.00  0.00    +0.000 A 
ATOM     10  C10 UNL     1      13.649  10.649  -4.990  0.00  0.00    +0.000 A 
ATOM     11  C11 UNL     1      13.267  10.761  -6.328  0.00  0.00    +0.000 A 
ATOM     12  C12 UNL     1      14.154  11.284  -7.266  0.00  0.00    +0.000 A 
ATOM     13  C13 UNL     1      15.423  11.700  -6.868  0.00  0.00    +0.000 A 
ATOM     14  C14 UNL     1      15.808  11.590  -5.531  0.00  0.00    +0.000 A 
ENDBRANCH   8   9
ENDBRANCH   1   8
TORSDOF 3
ENDMDL
MODEL 7
REMARK VINA RESULT:    -4.517     13.456     15.818
REMARK INTER + INTRA:          -5.981
REMARK INTER:                  -5.491
REMARK INTRA:                  -0.490
REMARK UNBOUND:                -0.672
REMARK  Name = /home/anacleto/Desktop/manuscript_Mpro/naturecomm/supplementary_file_S2/6-chemical-library/molecular_docking/3D_ligand_structure/1002.pdb
REMARK  3 active torsions:
REMARK  status: ('A' for Active; 'I' for Inactive)
REMARK    1  A    between atoms: C6_6  and  C7_7
REMARK    2  A    between atoms: C7_7  and  C8_8
REMARK    3  A    between atoms: C8_8  and  C9_9
REMARK                            x       y       z     vdW  Elec       q    Type
REMARK                         _______ _______ _______ _____ _____    ______ ____
ROOT
ATOM      1  C7  UNL     1      15.370  10.953  -3.135  0.00  0.00    +0.000 C 
ENDROOT
BRANCH   1   7
ATOM      2  C1  UNL     1      15.909  11.550  -5.531  0.00  0.00    +0.000 A 
ATOM      3  C2  UNL     1      15.548  11.676  -6.873  0.00  0.00    +0.000 A 
ATOM      4  C3  UNL     1      14.263  11.326  -7.286  0.00  0.00    +0.000 A 
ATOM      5  C4  UNL     1      13.339  10.853  -6.358  0.00  0.00    +0.000 A 
ATOM      6  C5  UNL     1      13.697  10.727  -5.015  0.00  0.00    +0.000 A 
ATOM      7  C6  UNL     1      14.988  11.069  -4.590  0.00  0.00    +0.000 A 
ENDBRANCH   1   7
BRANCH   1   8
ATOM      8  C8  UNL     1      15.378  12.319  -2.443  0.00  0.00    +0.000 C 
BRANCH   8   9
ATOM      9  C9  UNL     1      16.695  12.589  -1.759  0.00  0.00    +0.000 A 
ATOM     10  C10 UNL     1      17.063  13.898  -1.418  0.00  0.00    +0.000 A 
ATOM     11  C11 UNL     1      18.273  14.144  -0.767  0.00  0.00    +0.000 A 
ATOM     12  C12 UNL     1      19.123  13.086  -0.449  0.00  0.00    +0.000 A 
ATOM     13  C13 UNL     1      18.764  11.781  -0.779  0.00  0.00    +0.000 A 
ATOM     14  C14 UNL     1      17.555  11.532  -1.429  0.00  0.00    +0.000 A 
ENDBRANCH   8   9
ENDBRANCH   1   8
TORSDOF 3
ENDMDL
MODEL 8
REMARK VINA RESULT:    -4.474     16.402     18.125
REMARK INTER + INTRA:          -5.930
REMARK INTER:                  -5.258
REMARK INTRA:                  -0.672
REMARK UNBOUND:                -0.672
REMARK  Name = /home/anacleto/Desktop/manuscript_Mpro/naturecomm/supplementary_file_S2/6-chemical-library/molecular_docking/3D_ligand_structure/1002.pdb
REMARK  3 active torsions:
REMARK  status: ('A' for Active; 'I' for Inactive)
REMARK    1  A    between atoms: C6_6  and  C7_7
REMARK    2  A    between atoms: C7_7  and  C8_8
REMARK    3  A    between atoms: C8_8  and  C9_9
REMARK                            x       y       z     vdW  Elec       q    Type
REMARK                         _______ _______ _______ _____ _____    ______ ____
ROOT
ATOM      1  C7  UNL     1      16.472  12.596  -7.494  0.00  0.00    +0.000 C 
ENDROOT
BRANCH   1   7
ATOM      2  C1  UNL     1      15.633  11.730  -5.274  0.00  0.00    +0.000 A 
ATOM      3  C2  UNL     1      14.686  11.058  -4.499  0.00  0.00    +0.000 A 
ATOM      4  C3  UNL     1      13.537  10.539  -5.096  0.00  0.00    +0.000 A 
ATOM      5  C4  UNL     1      13.337  10.688  -6.466  0.00  0.00    +0.000 A 
ATOM      6  C5  UNL     1      14.283  11.358  -7.243  0.00  0.00    +0.000 A 
ATOM      7  C6  UNL     1      15.438  11.890  -6.652  0.00  0.00    +0.000 A 
ENDBRANCH   1   7
BRANCH   1   8
ATOM      8  C8  UNL     1      17.894  12.276  -7.028  0.00  0.00    +0.000 C 
BRANCH   8   9
ATOM      9  C9  UNL     1      18.456  11.071  -7.741  0.00  0.00    +0.000 A 
ATOM     10  C10 UNL     1      18.788  11.142  -9.101  0.00  0.00    +0.000 A 
ATOM     11  C11 UNL     1      19.327  10.033  -9.755  0.00  0.00    +0.000 A 
ATOM     12  C12 UNL     1      19.541   8.846  -9.057  0.00  0.00    +0.000 A 
ATOM     13  C13 UNL     1      19.219   8.767  -7.704  0.00  0.00    +0.000 A 
ATOM     14  C14 UNL     1      18.681   9.874  -7.047  0.00  0.00    +0.000 A 
ENDBRANCH   8   9
ENDBRANCH   1   8
TORSDOF 3
ENDMDL
MODEL 9
REMARK VINA RESULT:    -4.389     13.131     15.407
REMARK INTER + INTRA:          -5.830
REMARK INTER:                  -5.226
REMARK INTRA:                  -0.604
REMARK UNBOUND:                -0.672
REMARK  Name = /home/anacleto/Desktop/manuscript_Mpro/naturecomm/supplementary_file_S2/6-chemical-library/molecular_docking/3D_ligand_structure/1002.pdb
REMARK  3 active torsions:
REMARK  status: ('A' for Active; 'I' for Inactive)
REMARK    1  A    between atoms: C6_6  and  C7_7
REMARK    2  A    between atoms: C7_7  and  C8_8
REMARK    3  A    between atoms: C8_8  and  C9_9
REMARK                            x       y       z     vdW  Elec       q    Type
REMARK                         _______ _______ _______ _____ _____    ______ ____
ROOT
ATOM      1  C7  UNL     1      16.944  10.408  -3.527  0.00  0.00    +0.000 C 
ENDROOT
BRANCH   1   7
ATOM      2  C1  UNL     1      14.663  11.138  -4.332  0.00  0.00    +0.000 A 
ATOM      3  C2  UNL     1      13.812  11.627  -5.324  0.00  0.00    +0.000 A 
ATOM      4  C3  UNL     1      14.317  11.934  -6.587  0.00  0.00    +0.000 A 
ATOM      5  C4  UNL     1      15.670  11.751  -6.859  0.00  0.00    +0.000 A 
ATOM      6  C5  UNL     1      16.523  11.262  -5.868  0.00  0.00    +0.000 A 
ATOM      7  C6  UNL     1      16.028  10.957  -4.593  0.00  0.00    +0.000 A 
ENDBRANCH   1   7
BRANCH   1   8
ATOM      8  C8  UNL     1      16.416  10.704  -2.122  0.00  0.00    +0.000 C 
BRANCH   8   9
ATOM      9  C9  UNL     1      17.155  11.854  -1.481  0.00  0.00    +0.000 A 
ATOM     10  C10 UNL     1      18.492  11.707  -1.087  0.00  0.00    +0.000 A 
ATOM     11  C11 UNL     1      19.180  12.777  -0.513  0.00  0.00    +0.000 A 
ATOM     12  C12 UNL     1      18.541  14.002  -0.330  0.00  0.00    +0.000 A 
ATOM     13  C13 UNL     1      17.214  14.159  -0.724  0.00  0.00    +0.000 A 
ATOM     14  C14 UNL     1      16.523  13.091  -1.299  0.00  0.00    +0.000 A 
ENDBRANCH   8   9
ENDBRANCH   1   8
TORSDOF 3
ENDMDL
