MODEL 1
REMARK VINA RESULT:    -4.769      0.000      0.000
REMARK INTER + INTRA:          -7.256
REMARK INTER:                  -6.729
REMARK INTRA:                  -0.527
REMARK UNBOUND:                -0.814
REMARK  Name = /home/anacleto/Desktop/manuscript_Mpro/naturecomm/supplementary_file_S2/6-chemical-library/molecular_docking/3D_ligand_structure/455.pdb
REMARK  6 active torsions:
REMARK  status: ('A' for Active; 'I' for Inactive)
REMARK    1  A    between atoms: C4_5  and  C5_6
REMARK    2  A    between atoms: N1_8  and  C6_9
REMARK    3  A    between atoms: C6_9  and  C7_10
REMARK    4  A    between atoms: N2_12  and  C8_13
REMARK    5  A    between atoms: C8_13  and  C9_14
REMARK    6  A    between atoms: C9_14  and  N3_15
REMARK                            x       y       z     vdW  Elec       q    Type
REMARK                         _______ _______ _______ _____ _____    ______ ____
ROOT
ATOM      1  C7  UNL     1     -23.258   6.385 -38.577  0.00  0.00    +0.000 C 
ATOM      2  O3  UNL     1     -24.163   6.966 -37.983  0.00  0.00    +0.000 OA
ATOM      3  N2  UNL     1     -23.393   5.876 -39.849  0.00  0.00    +0.000 N 
ATOM      4  H7  UNL     1     -22.706   5.188 -40.152  0.00  0.00    +0.000 HD
ENDROOT
BRANCH   1   5
ATOM      5  C6  UNL     1     -21.922   6.065 -37.895  0.00  0.00    +0.000 C 
BRANCH   5   8
ATOM      6  C5  UNL     1     -20.633   8.177 -37.717  0.00  0.00    +0.000 C 
ATOM      7  O2  UNL     1     -21.333   8.534 -36.769  0.00  0.00    +0.000 OA
ATOM      8  N1  UNL     1     -20.836   6.943 -38.301  0.00  0.00    +0.000 N 
ATOM      9  H4  UNL     1     -20.166   6.585 -38.965  0.00  0.00    +0.000 HD
BRANCH   6  14
ATOM     10  O1  UNL     1     -18.511   8.276 -38.867  0.00  0.00    +0.000 OA
ATOM     11  C1  UNL     1     -17.604   9.188 -39.290  0.00  0.00    +0.000 A 
ATOM     12  C2  UNL     1     -18.017  10.459 -38.972  0.00  0.00    +0.000 A 
ATOM     13  C3  UNL     1     -19.259  10.314 -38.304  0.00  0.00    +0.000 A 
ATOM     14  C4  UNL     1     -19.535   8.955 -38.256  0.00  0.00    +0.000 A 
ENDBRANCH   6  14
ENDBRANCH   5   8
ENDBRANCH   1   5
BRANCH   3  15
ATOM     15  C8  UNL     1     -24.626   5.997 -40.604  0.00  0.00    +0.000 C 
BRANCH  15  16
ATOM     16  C9  UNL     1     -25.363   4.651 -40.747  0.00  0.00    +0.000 C 
BRANCH  16  17
ATOM     17  N3  UNL     1     -26.138   4.264 -39.553  0.00  0.00    +0.000 NA
ATOM     18  C10 UNL     1     -27.593   4.207 -39.813  0.00  0.00    +0.000 C 
ATOM     19  C11 UNL     1     -28.364   3.719 -38.575  0.00  0.00    +0.000 C 
ATOM     20  O4  UNL     1     -27.912   2.426 -38.156  0.00  0.00    +0.000 OA
ATOM     21  C12 UNL     1     -26.510   2.477 -37.852  0.00  0.00    +0.000 C 
ATOM     22  C13 UNL     1     -25.695   2.935 -39.070  0.00  0.00    +0.000 C 
ENDBRANCH  16  17
ENDBRANCH  15  16
ENDBRANCH   3  15
TORSDOF 6
ENDMDL
MODEL 2
REMARK VINA RESULT:    -4.743      1.642      2.138
REMARK INTER + INTRA:          -7.221
REMARK INTER:                  -6.835
REMARK INTRA:                  -0.386
REMARK UNBOUND:                -0.814
REMARK  Name = /home/anacleto/Desktop/manuscript_Mpro/naturecomm/supplementary_file_S2/6-chemical-library/molecular_docking/3D_ligand_structure/455.pdb
REMARK  6 active torsions:
REMARK  status: ('A' for Active; 'I' for Inactive)
REMARK    1  A    between atoms: C4_5  and  C5_6
REMARK    2  A    between atoms: N1_8  and  C6_9
REMARK    3  A    between atoms: C6_9  and  C7_10
REMARK    4  A    between atoms: N2_12  and  C8_13
REMARK    5  A    between atoms: C8_13  and  C9_14
REMARK    6  A    between atoms: C9_14  and  N3_15
REMARK                            x       y       z     vdW  Elec       q    Type
REMARK                         _______ _______ _______ _____ _____    ______ ____
ROOT
ATOM      1  C7  UNL     1     -23.662   5.748 -38.463  0.00  0.00    +0.000 C 
ATOM      2  O3  UNL     1     -23.920   6.646 -39.262  0.00  0.00    +0.000 OA
ATOM      3  N2  UNL     1     -24.519   4.704 -38.197  0.00  0.00    +0.000 N 
ATOM      4  H7  UNL     1     -24.355   4.170 -37.345  0.00  0.00    +0.000 HD
ENDROOT
BRANCH   1   5
ATOM      5  C6  UNL     1     -22.401   5.782 -37.592  0.00  0.00    +0.000 C 
BRANCH   5   8
ATOM      6  C5  UNL     1     -20.784   7.636 -37.909  0.00  0.00    +0.000 C 
ATOM      7  O2  UNL     1     -21.287   8.248 -36.967  0.00  0.00    +0.000 OA
ATOM      8  N1  UNL     1     -21.253   6.384 -38.252  0.00  0.00    +0.000 N 
ATOM      9  H4  UNL     1     -20.742   5.819 -38.913  0.00  0.00    +0.000 HD
BRANCH   6  14
ATOM     10  O1  UNL     1     -19.303   7.409 -39.804  0.00  0.00    +0.000 OA
ATOM     11  C1  UNL     1     -18.239   8.030 -40.367  0.00  0.00    +0.000 A 
ATOM     12  C2  UNL     1     -17.890   9.141 -39.639  0.00  0.00    +0.000 A 
ATOM     13  C3  UNL     1     -18.800   9.201 -38.554  0.00  0.00    +0.000 A 
ATOM     14  C4  UNL     1     -19.658   8.119 -38.685  0.00  0.00    +0.000 A 
ENDBRANCH   6  14
ENDBRANCH   5   8
ENDBRANCH   1   5
BRANCH   3  15
ATOM     15  C8  UNL     1     -25.806   4.572 -38.855  0.00  0.00    +0.000 C 
BRANCH  15  16
ATOM     16  C9  UNL     1     -26.723   3.549 -38.155  0.00  0.00    +0.000 C 
BRANCH  16  17
ATOM     17  N3  UNL     1     -28.146   3.669 -38.527  0.00  0.00    +0.000 NA
ATOM     18  C10 UNL     1     -28.683   5.027 -38.289  0.00  0.00    +0.000 C 
ATOM     19  C11 UNL     1     -30.141   5.143 -38.765  0.00  0.00    +0.000 C 
ATOM     20  O4  UNL     1     -30.260   4.828 -40.158  0.00  0.00    +0.000 OA
ATOM     21  C12 UNL     1     -29.789   3.494 -40.396  0.00  0.00    +0.000 C 
ATOM     22  C13 UNL     1     -28.324   3.337 -39.960  0.00  0.00    +0.000 C 
ENDBRANCH  16  17
ENDBRANCH  15  16
ENDBRANCH   3  15
TORSDOF 6
ENDMDL
MODEL 3
REMARK VINA RESULT:    -4.686      2.274      9.149
REMARK INTER + INTRA:          -7.144
REMARK INTER:                  -6.765
REMARK INTRA:                  -0.380
REMARK UNBOUND:                -0.814
REMARK  Name = /home/anacleto/Desktop/manuscript_Mpro/naturecomm/supplementary_file_S2/6-chemical-library/molecular_docking/3D_ligand_structure/455.pdb
REMARK  6 active torsions:
REMARK  status: ('A' for Active; 'I' for Inactive)
REMARK    1  A    between atoms: C4_5  and  C5_6
REMARK    2  A    between atoms: N1_8  and  C6_9
REMARK    3  A    between atoms: C6_9  and  C7_10
REMARK    4  A    between atoms: N2_12  and  C8_13
REMARK    5  A    between atoms: C8_13  and  C9_14
REMARK    6  A    between atoms: C9_14  and  N3_15
REMARK                            x       y       z     vdW  Elec       q    Type
REMARK                         _______ _______ _______ _____ _____    ______ ____
ROOT
ATOM      1  C7  UNL     1     -25.048   4.523 -38.793  0.00  0.00    +0.000 C 
ATOM      2  O3  UNL     1     -25.503   5.232 -39.688  0.00  0.00    +0.000 OA
ATOM      3  N2  UNL     1     -24.058   4.936 -37.931  0.00  0.00    +0.000 N 
ATOM      4  H7  UNL     1     -23.558   4.215 -37.412  0.00  0.00    +0.000 HD
ENDROOT
BRANCH   1   5
ATOM      5  C6  UNL     1     -25.463   3.055 -38.639  0.00  0.00    +0.000 C 
BRANCH   5   8
ATOM      6  C5  UNL     1     -27.759   2.365 -39.277  0.00  0.00    +0.000 C 
ATOM      7  O2  UNL     1     -28.151   2.575 -38.129  0.00  0.00    +0.000 OA
ATOM      8  N1  UNL     1     -26.447   2.622 -39.619  0.00  0.00    +0.000 N 
ATOM      9  H4  UNL     1     -26.167   2.604 -40.588  0.00  0.00    +0.000 HD
BRANCH   6  14
ATOM     10  O1  UNL     1     -28.796   2.739 -41.426  0.00  0.00    +0.000 OA
ATOM     11  C1  UNL     1     -29.617   2.113 -42.303  0.00  0.00    +0.000 A 
ATOM     12  C2  UNL     1     -29.972   0.874 -41.828  0.00  0.00    +0.000 A 
ATOM     13  C3  UNL     1     -29.327   0.734 -40.573  0.00  0.00    +0.000 A 
ATOM     14  C4  UNL     1     -28.610   1.902 -40.355  0.00  0.00    +0.000 A 
ENDBRANCH   6  14
ENDBRANCH   5   8
ENDBRANCH   1   5
BRANCH   3  15
ATOM     15  C8  UNL     1     -23.473   6.263 -38.002  0.00  0.00    +0.000 C 
BRANCH  15  16
ATOM     16  C9  UNL     1     -21.944   6.222 -38.192  0.00  0.00    +0.000 C 
BRANCH  16  17
ATOM     17  N3  UNL     1     -21.252   7.442 -37.733  0.00  0.00    +0.000 NA
ATOM     18  C10 UNL     1     -20.168   7.859 -38.649  0.00  0.00    +0.000 C 
ATOM     19  C11 UNL     1     -19.524   9.178 -38.189  0.00  0.00    +0.000 C 
ATOM     20  O4  UNL     1     -20.494  10.228 -38.100  0.00  0.00    +0.000 OA
ATOM     21  C12 UNL     1     -21.528   9.858 -37.176  0.00  0.00    +0.000 C 
ATOM     22  C13 UNL     1     -22.219   8.557 -37.610  0.00  0.00    +0.000 C 
ENDBRANCH  16  17
ENDBRANCH  15  16
ENDBRANCH   3  15
TORSDOF 6
ENDMDL
MODEL 4
REMARK VINA RESULT:    -4.683      1.905      2.684
REMARK INTER + INTRA:          -7.140
REMARK INTER:                  -6.692
REMARK INTRA:                  -0.449
REMARK UNBOUND:                -0.814
REMARK  Name = /home/anacleto/Desktop/manuscript_Mpro/naturecomm/supplementary_file_S2/6-chemical-library/molecular_docking/3D_ligand_structure/455.pdb
REMARK  6 active torsions:
REMARK  status: ('A' for Active; 'I' for Inactive)
REMARK    1  A    between atoms: C4_5  and  C5_6
REMARK    2  A    between atoms: N1_8  and  C6_9
REMARK    3  A    between atoms: C6_9  and  C7_10
REMARK    4  A    between atoms: N2_12  and  C8_13
REMARK    5  A    between atoms: C8_13  and  C9_14
REMARK    6  A    between atoms: C9_14  and  N3_15
REMARK                            x       y       z     vdW  Elec       q    Type
REMARK                         _______ _______ _______ _____ _____    ______ ____
ROOT
ATOM      1  C7  UNL     1     -24.448   4.787 -38.688  0.00  0.00    +0.000 C 
ATOM      2  O3  UNL     1     -24.759   5.021 -39.854  0.00  0.00    +0.000 OA
ATOM      3  N2  UNL     1     -24.817   3.640 -38.022  0.00  0.00    +0.000 N 
ATOM      4  H7  UNL     1     -24.756   3.650 -37.005  0.00  0.00    +0.000 HD
ENDROOT
BRANCH   1   5
ATOM      5  C6  UNL     1     -23.717   5.824 -37.826  0.00  0.00    +0.000 C 
BRANCH   5   8
ATOM      6  C5  UNL     1     -21.855   7.400 -38.274  0.00  0.00    +0.000 C 
ATOM      7  O2  UNL     1     -22.508   8.324 -37.788  0.00  0.00    +0.000 OA
ATOM      8  N1  UNL     1     -22.370   6.120 -38.288  0.00  0.00    +0.000 N 
ATOM      9  H4  UNL     1     -21.778   5.342 -38.536  0.00  0.00    +0.000 HD
BRANCH   6  14
ATOM     10  O1  UNL     1     -19.700   8.491 -38.236  0.00  0.00    +0.000 OA
ATOM     11  C1  UNL     1     -18.509   8.454 -38.880  0.00  0.00    +0.000 A 
ATOM     12  C2  UNL     1     -18.523   7.493 -39.861  0.00  0.00    +0.000 A 
ATOM     13  C3  UNL     1     -19.812   6.905 -39.817  0.00  0.00    +0.000 A 
ATOM     14  C4  UNL     1     -20.513   7.543 -38.805  0.00  0.00    +0.000 A 
ENDBRANCH   6  14
ENDBRANCH   5   8
ENDBRANCH   1   5
BRANCH   3  15
ATOM     15  C8  UNL     1     -25.602   2.597 -38.654  0.00  0.00    +0.000 C 
BRANCH  15  16
ATOM     16  C9  UNL     1     -26.898   2.285 -37.881  0.00  0.00    +0.000 C 
BRANCH  16  17
ATOM     17  N3  UNL     1     -28.125   2.747 -38.558  0.00  0.00    +0.000 NA
ATOM     18  C10 UNL     1     -28.299   4.213 -38.480  0.00  0.00    +0.000 C 
ATOM     19  C11 UNL     1     -29.539   4.672 -39.267  0.00  0.00    +0.000 C 
ATOM     20  O4  UNL     1     -29.456   4.281 -40.643  0.00  0.00    +0.000 OA
ATOM     21  C12 UNL     1     -29.337   2.855 -40.736  0.00  0.00    +0.000 C 
ATOM     22  C13 UNL     1     -28.095   2.352 -39.986  0.00  0.00    +0.000 C 
ENDBRANCH  16  17
ENDBRANCH  15  16
ENDBRANCH   3  15
TORSDOF 6
ENDMDL
MODEL 5
REMARK VINA RESULT:    -4.662      3.355      4.180
REMARK INTER + INTRA:          -7.112
REMARK INTER:                  -6.487
REMARK INTRA:                  -0.625
REMARK UNBOUND:                -0.814
REMARK  Name = /home/anacleto/Desktop/manuscript_Mpro/naturecomm/supplementary_file_S2/6-chemical-library/molecular_docking/3D_ligand_structure/455.pdb
REMARK  6 active torsions:
REMARK  status: ('A' for Active; 'I' for Inactive)
REMARK    1  A    between atoms: C4_5  and  C5_6
REMARK    2  A    between atoms: N1_8  and  C6_9
REMARK    3  A    between atoms: C6_9  and  C7_10
REMARK    4  A    between atoms: N2_12  and  C8_13
REMARK    5  A    between atoms: C8_13  and  C9_14
REMARK    6  A    between atoms: C9_14  and  N3_15
REMARK                            x       y       z     vdW  Elec       q    Type
REMARK                         _______ _______ _______ _____ _____    ______ ____
ROOT
ATOM      1  C7  UNL     1     -27.814   9.763 -37.538  0.00  0.00    +0.000 C 
ATOM      2  O3  UNL     1     -28.642   9.878 -36.637  0.00  0.00    +0.000 OA
ATOM      3  N2  UNL     1     -27.736   8.660 -38.357  0.00  0.00    +0.000 N 
ATOM      4  H7  UNL     1     -26.871   8.527 -38.881  0.00  0.00    +0.000 HD
ENDROOT
BRANCH   1   5
ATOM      5  C6  UNL     1     -26.703  10.800 -37.748  0.00  0.00    +0.000 C 
BRANCH   5   8
ATOM      6  C5  UNL     1     -24.535   9.713 -38.271  0.00  0.00    +0.000 C 
ATOM      7  O2  UNL     1     -24.853   9.628 -39.457  0.00  0.00    +0.000 OA
ATOM      8  N1  UNL     1     -25.383  10.323 -37.368  0.00  0.00    +0.000 N 
ATOM      9  H4  UNL     1     -25.057  10.535 -36.437  0.00  0.00    +0.000 HD
BRANCH   6  14
ATOM     10  O1  UNL     1     -22.770   8.066 -38.203  0.00  0.00    +0.000 OA
ATOM     11  C1  UNL     1     -21.594   7.832 -37.572  0.00  0.00    +0.000 A 
ATOM     12  C2  UNL     1     -21.310   8.851 -36.695  0.00  0.00    +0.000 A 
ATOM     13  C3  UNL     1     -22.386   9.768 -36.795  0.00  0.00    +0.000 A 
ATOM     14  C4  UNL     1     -23.269   9.254 -37.733  0.00  0.00    +0.000 A 
ENDBRANCH   6  14
ENDBRANCH   5   8
ENDBRANCH   1   5
BRANCH   3  15
ATOM     15  C8  UNL     1     -28.643   7.535 -38.230  0.00  0.00    +0.000 C 
BRANCH  15  16
ATOM     16  C9  UNL     1     -28.360   6.429 -39.265  0.00  0.00    +0.000 C 
BRANCH  16  17
ATOM     17  N3  UNL     1     -27.827   5.184 -38.679  0.00  0.00    +0.000 NA
ATOM     18  C10 UNL     1     -28.549   3.981 -39.149  0.00  0.00    +0.000 C 
ATOM     19  C11 UNL     1     -27.916   2.695 -38.589  0.00  0.00    +0.000 C 
ATOM     20  O4  UNL     1     -26.536   2.590 -38.959  0.00  0.00    +0.000 OA
ATOM     21  C12 UNL     1     -25.813   3.727 -38.466  0.00  0.00    +0.000 C 
ATOM     22  C13 UNL     1     -26.393   5.036 -39.022  0.00  0.00    +0.000 C 
ENDBRANCH  16  17
ENDBRANCH  15  16
ENDBRANCH   3  15
TORSDOF 6
ENDMDL
MODEL 6
REMARK VINA RESULT:    -4.538      2.904      8.397
REMARK INTER + INTRA:          -6.944
REMARK INTER:                  -6.488
REMARK INTRA:                  -0.456
REMARK UNBOUND:                -0.814
REMARK  Name = /home/anacleto/Desktop/manuscript_Mpro/naturecomm/supplementary_file_S2/6-chemical-library/molecular_docking/3D_ligand_structure/455.pdb
REMARK  6 active torsions:
REMARK  status: ('A' for Active; 'I' for Inactive)
REMARK    1  A    between atoms: C4_5  and  C5_6
REMARK    2  A    between atoms: N1_8  and  C6_9
REMARK    3  A    between atoms: C6_9  and  C7_10
REMARK    4  A    between atoms: N2_12  and  C8_13
REMARK    5  A    between atoms: C8_13  and  C9_14
REMARK    6  A    between atoms: C9_14  and  N3_15
REMARK                            x       y       z     vdW  Elec       q    Type
REMARK                         _______ _______ _______ _____ _____    ______ ____
ROOT
ATOM      1  C7  UNL     1     -27.657   8.893 -37.910  0.00  0.00    +0.000 C 
ATOM      2  O3  UNL     1     -27.772   9.848 -37.144  0.00  0.00    +0.000 OA
ATOM      3  N2  UNL     1     -26.506   8.623 -38.614  0.00  0.00    +0.000 N 
ATOM      4  H7  UNL     1     -26.583   7.994 -39.413  0.00  0.00    +0.000 HD
ENDROOT
BRANCH   1   5
ATOM      5  C6  UNL     1     -28.844   7.981 -38.244  0.00  0.00    +0.000 C 
BRANCH   5   8
ATOM      6  C5  UNL     1     -29.234   5.533 -38.313  0.00  0.00    +0.000 C 
ATOM      7  O2  UNL     1     -30.334   5.683 -37.782  0.00  0.00    +0.000 OA
ATOM      8  N1  UNL     1     -28.454   6.630 -38.615  0.00  0.00    +0.000 N 
ATOM      9  H4  UNL     1     -27.633   6.520 -39.191  0.00  0.00    +0.000 HD
BRANCH   6  14
ATOM     10  O1  UNL     1     -29.207   3.660 -39.839  0.00  0.00    +0.000 OA
ATOM     11  C1  UNL     1     -28.565   2.482 -40.022  0.00  0.00    +0.000 A 
ATOM     12  C2  UNL     1     -27.632   2.286 -39.034  0.00  0.00    +0.000 A 
ATOM     13  C3  UNL     1     -27.711   3.420 -38.187  0.00  0.00    +0.000 A 
ATOM     14  C4  UNL     1     -28.692   4.248 -38.711  0.00  0.00    +0.000 A 
ENDBRANCH   6  14
ENDBRANCH   5   8
ENDBRANCH   1   5
BRANCH   3  15
ATOM     15  C8  UNL     1     -25.317   9.446 -38.500  0.00  0.00    +0.000 C 
BRANCH  15  16
ATOM     16  C9  UNL     1     -24.280   8.851 -37.527  0.00  0.00    +0.000 C 
BRANCH  16  17
ATOM     17  N3  UNL     1     -22.976   8.554 -38.152  0.00  0.00    +0.000 NA
ATOM     18  C10 UNL     1     -21.835   9.018 -37.333  0.00  0.00    +0.000 C 
ATOM     19  C11 UNL     1     -20.492   8.618 -37.968  0.00  0.00    +0.000 C 
ATOM     20  O4  UNL     1     -20.400   7.199 -38.140  0.00  0.00    +0.000 OA
ATOM     21  C12 UNL     1     -21.474   6.740 -38.974  0.00  0.00    +0.000 C 
ATOM     22  C13 UNL     1     -22.839   7.094 -38.366  0.00  0.00    +0.000 C 
ENDBRANCH  16  17
ENDBRANCH  15  16
ENDBRANCH   3  15
TORSDOF 6
ENDMDL
MODEL 7
REMARK VINA RESULT:    -4.537      1.755      8.644
REMARK INTER + INTRA:          -6.942
REMARK INTER:                  -6.518
REMARK INTRA:                  -0.424
REMARK UNBOUND:                -0.814
REMARK  Name = /home/anacleto/Desktop/manuscript_Mpro/naturecomm/supplementary_file_S2/6-chemical-library/molecular_docking/3D_ligand_structure/455.pdb
REMARK  6 active torsions:
REMARK  status: ('A' for Active; 'I' for Inactive)
REMARK    1  A    between atoms: C4_5  and  C5_6
REMARK    2  A    between atoms: N1_8  and  C6_9
REMARK    3  A    between atoms: C6_9  and  C7_10
REMARK    4  A    between atoms: N2_12  and  C8_13
REMARK    5  A    between atoms: C8_13  and  C9_14
REMARK    6  A    between atoms: C9_14  and  N3_15
REMARK                            x       y       z     vdW  Elec       q    Type
REMARK                         _______ _______ _______ _____ _____    ______ ____
ROOT
ATOM      1  C7  UNL     1     -23.018   7.394 -37.869  0.00  0.00    +0.000 C 
ATOM      2  O3  UNL     1     -24.081   7.923 -38.185  0.00  0.00    +0.000 OA
ATOM      3  N2  UNL     1     -21.907   8.104 -37.474  0.00  0.00    +0.000 N 
ATOM      4  H7  UNL     1     -21.010   7.620 -37.496  0.00  0.00    +0.000 HD
ENDROOT
BRANCH   1   5
ATOM      5  C6  UNL     1     -22.798   5.882 -38.009  0.00  0.00    +0.000 C 
BRANCH   5   8
ATOM      6  C5  UNL     1     -24.740   4.663 -38.954  0.00  0.00    +0.000 C 
ATOM      7  O2  UNL     1     -24.322   4.861 -40.095  0.00  0.00    +0.000 OA
ATOM      8  N1  UNL     1     -24.016   5.101 -37.864  0.00  0.00    +0.000 N 
ATOM      9  H4  UNL     1     -24.273   4.801 -36.936  0.00  0.00    +0.000 HD
BRANCH   6  14
ATOM     10  O1  UNL     1     -27.141   4.617 -38.690  0.00  0.00    +0.000 OA
ATOM     11  C1  UNL     1     -28.132   3.750 -38.373  0.00  0.00    +0.000 A 
ATOM     12  C2  UNL     1     -27.616   2.500 -38.129  0.00  0.00    +0.000 A 
ATOM     13  C3  UNL     1     -26.214   2.612 -38.303  0.00  0.00    +0.000 A 
ATOM     14  C4  UNL     1     -25.954   3.930 -38.648  0.00  0.00    +0.000 A 
ENDBRANCH   6  14
ENDBRANCH   5   8
ENDBRANCH   1   5
BRANCH   3  15
ATOM     15  C8  UNL     1     -21.905   9.553 -37.387  0.00  0.00    +0.000 C 
BRANCH  15  16
ATOM     16  C9  UNL     1     -21.182  10.214 -38.577  0.00  0.00    +0.000 C 
BRANCH  16  17
ATOM     17  N3  UNL     1     -19.730   9.958 -38.611  0.00  0.00    +0.000 NA
ATOM     18  C10 UNL     1     -19.325   9.134 -39.770  0.00  0.00    +0.000 C 
ATOM     19  C11 UNL     1     -17.798   8.958 -39.825  0.00  0.00    +0.000 C 
ATOM     20  O4  UNL     1     -17.129  10.223 -39.892  0.00  0.00    +0.000 OA
ATOM     21  C12 UNL     1     -17.474  11.016 -38.747  0.00  0.00    +0.000 C 
ATOM     22  C13 UNL     1     -18.991  11.241 -38.665  0.00  0.00    +0.000 C 
ENDBRANCH  16  17
ENDBRANCH  15  16
ENDBRANCH   3  15
TORSDOF 6
ENDMDL
MODEL 8
REMARK VINA RESULT:    -4.424      2.039      7.919
REMARK INTER + INTRA:          -6.790
REMARK INTER:                  -6.183
REMARK INTRA:                  -0.608
REMARK UNBOUND:                -0.814
REMARK  Name = /home/anacleto/Desktop/manuscript_Mpro/naturecomm/supplementary_file_S2/6-chemical-library/molecular_docking/3D_ligand_structure/455.pdb
REMARK  6 active torsions:
REMARK  status: ('A' for Active; 'I' for Inactive)
REMARK    1  A    between atoms: C4_5  and  C5_6
REMARK    2  A    between atoms: N1_8  and  C6_9
REMARK    3  A    between atoms: C6_9  and  C7_10
REMARK    4  A    between atoms: N2_12  and  C8_13
REMARK    5  A    between atoms: C8_13  and  C9_14
REMARK    6  A    between atoms: C9_14  and  N3_15
REMARK                            x       y       z     vdW  Elec       q    Type
REMARK                         _______ _______ _______ _____ _____    ______ ____
ROOT
ATOM      1  C7  UNL     1     -25.259   8.687 -39.438  0.00  0.00    +0.000 C 
ATOM      2  O3  UNL     1     -25.962   9.680 -39.607  0.00  0.00    +0.000 OA
ATOM      3  N2  UNL     1     -24.299   8.596 -38.455  0.00  0.00    +0.000 N 
ATOM      4  H7  UNL     1     -23.593   7.869 -38.557  0.00  0.00    +0.000 HD
ENDROOT
BRANCH   1   5
ATOM      5  C6  UNL     1     -25.306   7.494 -40.401  0.00  0.00    +0.000 C 
BRANCH   5   8
ATOM      6  C5  UNL     1     -25.265   5.293 -39.257  0.00  0.00    +0.000 C 
ATOM      7  O2  UNL     1     -24.044   5.378 -39.117  0.00  0.00    +0.000 OA
ATOM      8  N1  UNL     1     -25.969   6.324 -39.846  0.00  0.00    +0.000 N 
ATOM      9  H4  UNL     1     -26.977   6.326 -39.816  0.00  0.00    +0.000 HD
BRANCH   6  14
ATOM     10  O1  UNL     1     -27.425   4.329 -38.768  0.00  0.00    +0.000 OA
ATOM     11  C1  UNL     1     -27.963   3.178 -38.298  0.00  0.00    +0.000 A 
ATOM     12  C2  UNL     1     -26.975   2.268 -38.011  0.00  0.00    +0.000 A 
ATOM     13  C3  UNL     1     -25.749   2.907 -38.324  0.00  0.00    +0.000 A 
ATOM     14  C4  UNL     1     -26.062   4.176 -38.787  0.00  0.00    +0.000 A 
ENDBRANCH   6  14
ENDBRANCH   5   8
ENDBRANCH   1   5
BRANCH   3  15
ATOM     15  C8  UNL     1     -24.046   9.676 -37.519  0.00  0.00    +0.000 C 
BRANCH  15  16
ATOM     16  C9  UNL     1     -22.621   9.627 -36.934  0.00  0.00    +0.000 C 
BRANCH  16  17
ATOM     17  N3  UNL     1     -21.581   9.284 -37.923  0.00  0.00    +0.000 NA
ATOM     18  C10 UNL     1     -20.463  10.253 -37.931  0.00  0.00    +0.000 C 
ATOM     19  C11 UNL     1     -19.356   9.823 -38.909  0.00  0.00    +0.000 C 
ATOM     20  O4  UNL     1     -18.849   8.524 -38.581  0.00  0.00    +0.000 OA
ATOM     21  C12 UNL     1     -19.914   7.563 -38.618  0.00  0.00    +0.000 C 
ATOM     22  C13 UNL     1     -21.033   7.938 -37.635  0.00  0.00    +0.000 C 
ENDBRANCH  16  17
ENDBRANCH  15  16
ENDBRANCH   3  15
TORSDOF 6
ENDMDL
MODEL 9
REMARK VINA RESULT:    -4.241     14.995     16.591
REMARK INTER + INTRA:          -6.543
REMARK INTER:                  -5.729
REMARK INTRA:                  -0.814
REMARK UNBOUND:                -0.814
REMARK  Name = /home/anacleto/Desktop/manuscript_Mpro/naturecomm/supplementary_file_S2/6-chemical-library/molecular_docking/3D_ligand_structure/455.pdb
REMARK  6 active torsions:
REMARK  status: ('A' for Active; 'I' for Inactive)
REMARK    1  A    between atoms: C4_5  and  C5_6
REMARK    2  A    between atoms: N1_8  and  C6_9
REMARK    3  A    between atoms: C6_9  and  C7_10
REMARK    4  A    between atoms: N2_12  and  C8_13
REMARK    5  A    between atoms: C8_13  and  C9_14
REMARK    6  A    between atoms: C9_14  and  N3_15
REMARK                            x       y       z     vdW  Elec       q    Type
REMARK                         _______ _______ _______ _____ _____    ______ ____
ROOT
ATOM      1  C7  UNL     1     -24.819  -5.489 -29.300  0.00  0.00    +0.000 C 
ATOM      2  O3  UNL     1     -25.370  -6.576 -29.139  0.00  0.00    +0.000 OA
ATOM      3  N2  UNL     1     -25.327  -4.305 -28.816  0.00  0.00    +0.000 N 
ATOM      4  H7  UNL     1     -24.965  -3.441 -29.218  0.00  0.00    +0.000 HD
ENDROOT
BRANCH   1   5
ATOM      5  C6  UNL     1     -23.567  -5.342 -30.173  0.00  0.00    +0.000 C 
BRANCH   5   8
ATOM      6  C5  UNL     1     -21.771  -4.508 -28.678  0.00  0.00    +0.000 C 
ATOM      7  O2  UNL     1     -22.370  -3.441 -28.538  0.00  0.00    +0.000 OA
ATOM      8  N1  UNL     1     -22.323  -5.518 -29.440  0.00  0.00    +0.000 N 
ATOM      9  H4  UNL     1     -21.915  -6.440 -29.423  0.00  0.00    +0.000 HD
BRANCH   6  14
ATOM     10  O1  UNL     1     -20.084  -6.126 -28.069  0.00  0.00    +0.000 OA
ATOM     11  C1  UNL     1     -18.896  -6.190 -27.421  0.00  0.00    +0.000 A 
ATOM     12  C2  UNL     1     -18.529  -4.946 -26.967  0.00  0.00    +0.000 A 
ATOM     13  C3  UNL     1     -19.564  -4.062 -27.362  0.00  0.00    +0.000 A 
ATOM     14  C4  UNL     1     -20.507  -4.821 -28.039  0.00  0.00    +0.000 A 
ENDBRANCH   6  14
ENDBRANCH   5   8
ENDBRANCH   1   5
BRANCH   3  15
ATOM     15  C8  UNL     1     -26.563  -4.245 -28.057  0.00  0.00    +0.000 C 
BRANCH  15  16
ATOM     16  C9  UNL     1     -26.352  -3.697 -26.632  0.00  0.00    +0.000 C 
BRANCH  16  17
ATOM     17  N3  UNL     1     -25.225  -4.319 -25.912  0.00  0.00    +0.000 NA
ATOM     18  C10 UNL     1     -24.533  -3.371 -25.012  0.00  0.00    +0.000 C 
ATOM     19  C11 UNL     1     -23.419  -4.070 -24.213  0.00  0.00    +0.000 C 
ATOM     20  O4  UNL     1     -23.938  -5.159 -23.439  0.00  0.00    +0.000 OA
ATOM     21  C12 UNL     1     -24.570  -6.112 -24.305  0.00  0.00    +0.000 C 
ATOM     22  C13 UNL     1     -25.709  -5.464 -25.106  0.00  0.00    +0.000 C 
ENDBRANCH  16  17
ENDBRANCH  15  16
ENDBRANCH   3  15
TORSDOF 6
ENDMDL
