MODEL 1
REMARK VINA RESULT:    -5.540      0.000      0.000
REMARK INTER + INTRA:          -7.671
REMARK INTER:                  -7.241
REMARK INTRA:                  -0.430
REMARK UNBOUND:                -0.512
REMARK  Name = /home/anacleto/Desktop/manuscript_Mpro/naturecomm/supplementary_file_S2/6-chemical-library/molecular_docking/3D_ligand_structure/505.pdb
REMARK  5 active torsions:
REMARK  status: ('A' for Active; 'I' for Inactive)
REMARK    1  A    between atoms: N1_5  and  C5_9
REMARK    2  A    between atoms: C5_9  and  C6_10
REMARK    3  A    between atoms: C6_10  and  O4_12
REMARK    4  A    between atoms: O4_12  and  C7_13
REMARK    5  A    between atoms: C7_13  and  C8_14
REMARK                            x       y       z     vdW  Elec       q    Type
REMARK                         _______ _______ _______ _____ _____    ______ ____
ROOT
ATOM      1  C5  UNL     1     -22.907   7.391 -38.401  0.00  0.00    +0.000 C 
ENDROOT
BRANCH   1   6
ATOM      2  O1  UNL     1     -17.715   9.042 -38.797  0.00  0.00    +0.000 OA
ATOM      3  C1  UNL     1     -18.872   8.656 -38.693  0.00  0.00    +0.000 A 
ATOM      4  C2  UNL     1     -19.409   7.620 -39.591  0.00  0.00    +0.000 A 
ATOM      5  C3  UNL     1     -20.681   7.242 -39.450  0.00  0.00    +0.000 A 
ATOM      6  N1  UNL     1     -21.499   7.789 -38.484  0.00  0.00    +0.000 N 
ATOM      7  C4  UNL     1     -21.052   8.775 -37.614  0.00  0.00    +0.000 A 
ATOM      8  O2  UNL     1     -21.757   9.303 -36.756  0.00  0.00    +0.000 OA
ATOM      9  N2  UNL     1     -19.742   9.145 -37.761  0.00  0.00    +0.000 N 
ATOM     10  H3  UNL     1     -19.403   9.864 -37.144  0.00  0.00    +0.000 HD
ENDBRANCH   1   6
BRANCH   1  11
ATOM     11  C6  UNL     1     -23.140   5.902 -38.155  0.00  0.00    +0.000 C 
ATOM     12  O3  UNL     1     -22.651   5.304 -37.203  0.00  0.00    +0.000 OA
BRANCH  11  13
ATOM     13  O4  UNL     1     -23.895   5.327 -39.129  0.00  0.00    +0.000 OA
BRANCH  13  14
ATOM     14  C7  UNL     1     -25.235   5.815 -39.260  0.00  0.00    +0.000 C 
BRANCH  14  15
ATOM     15  C8  UNL     1     -26.199   4.715 -38.904  0.00  0.00    +0.000 A 
ATOM     16  C9  UNL     1     -27.579   4.960 -38.866  0.00  0.00    +0.000 A 
ATOM     17  C10 UNL     1     -28.469   3.945 -38.514  0.00  0.00    +0.000 A 
ATOM     18  C11 UNL     1     -27.988   2.678 -38.190  0.00  0.00    +0.000 A 
ATOM     19  C12 UNL     1     -26.618   2.426 -38.211  0.00  0.00    +0.000 A 
ATOM     20  C13 UNL     1     -25.727   3.440 -38.563  0.00  0.00    +0.000 A 
ENDBRANCH  14  15
ENDBRANCH  13  14
ENDBRANCH  11  13
ENDBRANCH   1  11
TORSDOF 5
ENDMDL
MODEL 2
REMARK VINA RESULT:    -5.367      2.961      5.098
REMARK INTER + INTRA:          -7.448
REMARK INTER:                  -6.035
REMARK INTRA:                  -1.413
REMARK UNBOUND:                -0.512
REMARK  Name = /home/anacleto/Desktop/manuscript_Mpro/naturecomm/supplementary_file_S2/6-chemical-library/molecular_docking/3D_ligand_structure/505.pdb
REMARK  5 active torsions:
REMARK  status: ('A' for Active; 'I' for Inactive)
REMARK    1  A    between atoms: N1_5  and  C5_9
REMARK    2  A    between atoms: C5_9  and  C6_10
REMARK    3  A    between atoms: C6_10  and  O4_12
REMARK    4  A    between atoms: O4_12  and  C7_13
REMARK    5  A    between atoms: C7_13  and  C8_14
REMARK                            x       y       z     vdW  Elec       q    Type
REMARK                         _______ _______ _______ _____ _____    ______ ____
ROOT
ATOM      1  C5  UNL     1     -21.349  10.698 -38.520  0.00  0.00    +0.000 C 
ENDROOT
BRANCH   1   6
ATOM      2  O1  UNL     1     -26.336   8.477 -38.348  0.00  0.00    +0.000 OA
ATOM      3  C1  UNL     1     -25.228   8.995 -38.383  0.00  0.00    +0.000 A 
ATOM      4  C2  UNL     1     -24.634   9.430 -39.659  0.00  0.00    +0.000 A 
ATOM      5  C3  UNL     1     -23.417   9.976 -39.651  0.00  0.00    +0.000 A 
ATOM      6  N1  UNL     1     -22.707  10.151 -38.481  0.00  0.00    +0.000 N 
ATOM      7  C4  UNL     1     -23.211   9.754 -37.248  0.00  0.00    +0.000 A 
ATOM      8  O2  UNL     1     -22.600   9.872 -36.189  0.00  0.00    +0.000 OA
ATOM      9  N2  UNL     1     -24.466   9.206 -37.271  0.00  0.00    +0.000 N 
ATOM     10  H3  UNL     1     -24.844   8.906 -36.387  0.00  0.00    +0.000 HD
ENDBRANCH   1   6
BRANCH   1  11
ATOM     11  C6  UNL     1     -20.278   9.724 -39.007  0.00  0.00    +0.000 C 
ATOM     12  O3  UNL     1     -19.635   9.906 -40.035  0.00  0.00    +0.000 OA
BRANCH  11  13
ATOM     13  O4  UNL     1     -20.168   8.631 -38.205  0.00  0.00    +0.000 OA
BRANCH  13  14
ATOM     14  C7  UNL     1     -20.040   7.369 -38.870  0.00  0.00    +0.000 C 
BRANCH  14  15
ATOM     15  C8  UNL     1     -21.397   6.725 -38.975  0.00  0.00    +0.000 A 
ATOM     16  C9  UNL     1     -22.051   6.637 -40.212  0.00  0.00    +0.000 A 
ATOM     17  C10 UNL     1     -23.318   6.059 -40.302  0.00  0.00    +0.000 A 
ATOM     18  C11 UNL     1     -23.947   5.574 -39.158  0.00  0.00    +0.000 A 
ATOM     19  C12 UNL     1     -23.312   5.670 -37.921  0.00  0.00    +0.000 A 
ATOM     20  C13 UNL     1     -22.045   6.246 -37.828  0.00  0.00    +0.000 A 
ENDBRANCH  14  15
ENDBRANCH  13  14
ENDBRANCH  11  13
ENDBRANCH   1  11
TORSDOF 5
ENDMDL
MODEL 3
REMARK VINA RESULT:    -5.130      1.683      2.379
REMARK INTER + INTRA:          -7.141
REMARK INTER:                  -6.465
REMARK INTRA:                  -0.677
REMARK UNBOUND:                -0.512
REMARK  Name = /home/anacleto/Desktop/manuscript_Mpro/naturecomm/supplementary_file_S2/6-chemical-library/molecular_docking/3D_ligand_structure/505.pdb
REMARK  5 active torsions:
REMARK  status: ('A' for Active; 'I' for Inactive)
REMARK    1  A    between atoms: N1_5  and  C5_9
REMARK    2  A    between atoms: C5_9  and  C6_10
REMARK    3  A    between atoms: C6_10  and  O4_12
REMARK    4  A    between atoms: O4_12  and  C7_13
REMARK    5  A    between atoms: C7_13  and  C8_14
REMARK                            x       y       z     vdW  Elec       q    Type
REMARK                         _______ _______ _______ _____ _____    ______ ____
ROOT
ATOM      1  C5  UNL     1     -24.504   7.491 -38.233  0.00  0.00    +0.000 C 
ENDROOT
BRANCH   1   6
ATOM      2  O1  UNL     1     -19.093   7.345 -38.968  0.00  0.00    +0.000 OA
ATOM      3  C1  UNL     1     -20.308   7.367 -38.824  0.00  0.00    +0.000 A 
ATOM      4  C2  UNL     1     -21.102   8.528 -39.260  0.00  0.00    +0.000 A 
ATOM      5  C3  UNL     1     -22.423   8.515 -39.068  0.00  0.00    +0.000 A 
ATOM      6  N1  UNL     1     -23.061   7.442 -38.482  0.00  0.00    +0.000 N 
ATOM      7  C4  UNL     1     -22.365   6.323 -38.042  0.00  0.00    +0.000 A 
ATOM      8  O2  UNL     1     -22.895   5.359 -37.494  0.00  0.00    +0.000 OA
ATOM      9  N2  UNL     1     -21.013   6.345 -38.256  0.00  0.00    +0.000 N 
ATOM     10  H3  UNL     1     -20.491   5.545 -37.937  0.00  0.00    +0.000 HD
ENDBRANCH   1   6
BRANCH   1  11
ATOM     11  C6  UNL     1     -25.373   7.456 -39.488  0.00  0.00    +0.000 C 
ATOM     12  O3  UNL     1     -26.223   8.306 -39.729  0.00  0.00    +0.000 OA
BRANCH  11  13
ATOM     13  O4  UNL     1     -25.127   6.362 -40.259  0.00  0.00    +0.000 OA
BRANCH  13  14
ATOM     14  C7  UNL     1     -26.273   5.612 -40.676  0.00  0.00    +0.000 C 
BRANCH  14  15
ATOM     15  C8  UNL     1     -26.483   4.462 -39.727  0.00  0.00    +0.000 A 
ATOM     16  C9  UNL     1     -27.759   4.180 -39.220  0.00  0.00    +0.000 A 
ATOM     17  C10 UNL     1     -27.947   3.127 -38.324  0.00  0.00    +0.000 A 
ATOM     18  C11 UNL     1     -26.861   2.353 -37.919  0.00  0.00    +0.000 A 
ATOM     19  C12 UNL     1     -25.587   2.633 -38.406  0.00  0.00    +0.000 A 
ATOM     20  C13 UNL     1     -25.396   3.685 -39.303  0.00  0.00    +0.000 A 
ENDBRANCH  14  15
ENDBRANCH  13  14
ENDBRANCH  11  13
ENDBRANCH   1  11
TORSDOF 5
ENDMDL
MODEL 4
REMARK VINA RESULT:    -5.128      1.333      2.210
REMARK INTER + INTRA:          -7.138
REMARK INTER:                  -6.770
REMARK INTRA:                  -0.368
REMARK UNBOUND:                -0.512
REMARK  Name = /home/anacleto/Desktop/manuscript_Mpro/naturecomm/supplementary_file_S2/6-chemical-library/molecular_docking/3D_ligand_structure/505.pdb
REMARK  5 active torsions:
REMARK  status: ('A' for Active; 'I' for Inactive)
REMARK    1  A    between atoms: N1_5  and  C5_9
REMARK    2  A    between atoms: C5_9  and  C6_10
REMARK    3  A    between atoms: C6_10  and  O4_12
REMARK    4  A    between atoms: O4_12  and  C7_13
REMARK    5  A    between atoms: C7_13  and  C8_14
REMARK                            x       y       z     vdW  Elec       q    Type
REMARK                         _______ _______ _______ _____ _____    ______ ____
ROOT
ATOM      1  C5  UNL     1     -21.716   6.357 -38.376  0.00  0.00    +0.000 C 
ENDROOT
BRANCH   1   6
ATOM      2  O1  UNL     1     -18.605  10.847 -38.300  0.00  0.00    +0.000 OA
ATOM      3  C1  UNL     1     -19.313   9.849 -38.336  0.00  0.00    +0.000 A 
ATOM      4  C2  UNL     1     -20.588   9.797 -37.602  0.00  0.00    +0.000 A 
ATOM      5  C3  UNL     1     -21.319   8.681 -37.657  0.00  0.00    +0.000 A 
ATOM      6  N1  UNL     1     -20.915   7.584 -38.389  0.00  0.00    +0.000 N 
ATOM      7  C4  UNL     1     -19.719   7.570 -39.096  0.00  0.00    +0.000 A 
ATOM      8  O2  UNL     1     -19.315   6.605 -39.739  0.00  0.00    +0.000 OA
ATOM      9  N2  UNL     1     -18.986   8.726 -39.039  0.00  0.00    +0.000 N 
ATOM     10  H3  UNL     1     -18.112   8.731 -39.540  0.00  0.00    +0.000 HD
ENDBRANCH   1   6
BRANCH   1  11
ATOM     11  C6  UNL     1     -22.901   6.353 -39.339  0.00  0.00    +0.000 C 
ATOM     12  O3  UNL     1     -22.996   7.141 -40.274  0.00  0.00    +0.000 OA
BRANCH  11  13
ATOM     13  O4  UNL     1     -23.838   5.425 -39.006  0.00  0.00    +0.000 OA
BRANCH  13  14
ATOM     14  C7  UNL     1     -25.204   5.806 -39.205  0.00  0.00    +0.000 C 
BRANCH  14  15
ATOM     15  C8  UNL     1     -26.097   4.648 -38.850  0.00  0.00    +0.000 A 
ATOM     16  C9  UNL     1     -25.549   3.408 -38.491  0.00  0.00    +0.000 A 
ATOM     17  C10 UNL     1     -26.380   2.330 -38.184  0.00  0.00    +0.000 A 
ATOM     18  C11 UNL     1     -27.764   2.478 -38.240  0.00  0.00    +0.000 A 
ATOM     19  C12 UNL     1     -28.319   3.701 -38.608  0.00  0.00    +0.000 A 
ATOM     20  C13 UNL     1     -27.491   4.781 -38.916  0.00  0.00    +0.000 A 
ENDBRANCH  14  15
ENDBRANCH  13  14
ENDBRANCH  11  13
ENDBRANCH   1  11
TORSDOF 5
ENDMDL
MODEL 5
REMARK VINA RESULT:    -5.063      2.714      7.618
REMARK INTER + INTRA:          -7.055
REMARK INTER:                  -6.550
REMARK INTRA:                  -0.504
REMARK UNBOUND:                -0.512
REMARK  Name = /home/anacleto/Desktop/manuscript_Mpro/naturecomm/supplementary_file_S2/6-chemical-library/molecular_docking/3D_ligand_structure/505.pdb
REMARK  5 active torsions:
REMARK  status: ('A' for Active; 'I' for Inactive)
REMARK    1  A    between atoms: N1_5  and  C5_9
REMARK    2  A    between atoms: C5_9  and  C6_10
REMARK    3  A    between atoms: C6_10  and  O4_12
REMARK    4  A    between atoms: O4_12  and  C7_13
REMARK    5  A    between atoms: C7_13  and  C8_14
REMARK                            x       y       z     vdW  Elec       q    Type
REMARK                         _______ _______ _______ _____ _____    ______ ____
ROOT
ATOM      1  C5  UNL     1     -24.806   6.298 -39.912  0.00  0.00    +0.000 C 
ENDROOT
BRANCH   1   6
ATOM      2  O1  UNL     1     -27.824   2.101 -38.147  0.00  0.00    +0.000 OA
ATOM      3  C1  UNL     1     -27.156   3.038 -38.564  0.00  0.00    +0.000 A 
ATOM      4  C2  UNL     1     -25.765   2.839 -39.008  0.00  0.00    +0.000 A 
ATOM      5  C3  UNL     1     -25.070   3.893 -39.440  0.00  0.00    +0.000 A 
ATOM      6  N1  UNL     1     -25.621   5.157 -39.489  0.00  0.00    +0.000 N 
ATOM      7  C4  UNL     1     -26.924   5.408 -39.077  0.00  0.00    +0.000 A 
ATOM      8  O2  UNL     1     -27.441   6.522 -39.084  0.00  0.00    +0.000 OA
ATOM      9  N2  UNL     1     -27.629   4.315 -38.647  0.00  0.00    +0.000 N 
ATOM     10  H3  UNL     1     -28.573   4.480 -38.338  0.00  0.00    +0.000 HD
ENDBRANCH   1   6
BRANCH   1  11
ATOM     11  C6  UNL     1     -23.798   6.786 -38.874  0.00  0.00    +0.000 C 
ATOM     12  O3  UNL     1     -24.120   7.471 -37.909  0.00  0.00    +0.000 OA
BRANCH  11  13
ATOM     13  O4  UNL     1     -22.523   6.419 -39.175  0.00  0.00    +0.000 OA
BRANCH  13  14
ATOM     14  C7  UNL     1     -21.589   6.428 -38.089  0.00  0.00    +0.000 C 
BRANCH  14  15
ATOM     15  C8  UNL     1     -20.602   7.545 -38.296  0.00  0.00    +0.000 A 
ATOM     16  C9  UNL     1     -19.435   7.336 -39.045  0.00  0.00    +0.000 A 
ATOM     17  C10 UNL     1     -18.511   8.367 -39.217  0.00  0.00    +0.000 A 
ATOM     18  C11 UNL     1     -18.738   9.612 -38.635  0.00  0.00    +0.000 A 
ATOM     19  C12 UNL     1     -19.887   9.827 -37.877  0.00  0.00    +0.000 A 
ATOM     20  C13 UNL     1     -20.813   8.798 -37.704  0.00  0.00    +0.000 A 
ENDBRANCH  14  15
ENDBRANCH  13  14
ENDBRANCH  11  13
ENDBRANCH   1  11
TORSDOF 5
ENDMDL
MODEL 6
REMARK VINA RESULT:    -5.056      3.691      7.927
REMARK INTER + INTRA:          -7.046
REMARK INTER:                  -6.566
REMARK INTRA:                  -0.480
REMARK UNBOUND:                -0.512
REMARK  Name = /home/anacleto/Desktop/manuscript_Mpro/naturecomm/supplementary_file_S2/6-chemical-library/molecular_docking/3D_ligand_structure/505.pdb
REMARK  5 active torsions:
REMARK  status: ('A' for Active; 'I' for Inactive)
REMARK    1  A    between atoms: N1_5  and  C5_9
REMARK    2  A    between atoms: C5_9  and  C6_10
REMARK    3  A    between atoms: C6_10  and  O4_12
REMARK    4  A    between atoms: O4_12  and  C7_13
REMARK    5  A    between atoms: C7_13  and  C8_14
REMARK                            x       y       z     vdW  Elec       q    Type
REMARK                         _______ _______ _______ _____ _____    ______ ____
ROOT
ATOM      1  C5  UNL     1     -26.112   4.643 -39.757  0.00  0.00    +0.000 C 
ENDROOT
BRANCH   1   6
ATOM      2  O1  UNL     1     -31.429   5.045 -38.570  0.00  0.00    +0.000 OA
ATOM      3  C1  UNL     1     -30.234   4.944 -38.816  0.00  0.00    +0.000 A 
ATOM      4  C2  UNL     1     -29.297   6.029 -38.477  0.00  0.00    +0.000 A 
ATOM      5  C3  UNL     1     -28.005   5.882 -38.778  0.00  0.00    +0.000 A 
ATOM      6  N1  UNL     1     -27.526   4.741 -39.388  0.00  0.00    +0.000 N 
ATOM      7  C4  UNL     1     -28.363   3.689 -39.740  0.00  0.00    +0.000 A 
ATOM      8  O2  UNL     1     -27.978   2.668 -40.305  0.00  0.00    +0.000 OA
ATOM      9  N2  UNL     1     -29.683   3.848 -39.414  0.00  0.00    +0.000 N 
ATOM     10  H3  UNL     1     -30.305   3.098 -39.668  0.00  0.00    +0.000 HD
ENDBRANCH   1   6
BRANCH   1  11
ATOM     11  C6  UNL     1     -25.205   4.064 -38.673  0.00  0.00    +0.000 C 
ATOM     12  O3  UNL     1     -25.281   2.899 -38.299  0.00  0.00    +0.000 OA
BRANCH  11  13
ATOM     13  O4  UNL     1     -24.359   4.994 -38.154  0.00  0.00    +0.000 OA
BRANCH  13  14
ATOM     14  C7  UNL     1     -23.644   5.797 -39.100  0.00  0.00    +0.000 C 
BRANCH  14  15
ATOM     15  C8  UNL     1     -23.056   6.989 -38.393  0.00  0.00    +0.000 A 
ATOM     16  C9  UNL     1     -21.723   6.976 -37.960  0.00  0.00    +0.000 A 
ATOM     17  C10 UNL     1     -21.188   8.074 -37.286  0.00  0.00    +0.000 A 
ATOM     18  C11 UNL     1     -21.981   9.190 -37.029  0.00  0.00    +0.000 A 
ATOM     19  C12 UNL     1     -23.311   9.208 -37.442  0.00  0.00    +0.000 A 
ATOM     20  C13 UNL     1     -23.849   8.112 -38.118  0.00  0.00    +0.000 A 
ENDBRANCH  14  15
ENDBRANCH  13  14
ENDBRANCH  11  13
ENDBRANCH   1  11
TORSDOF 5
ENDMDL
MODEL 7
REMARK VINA RESULT:    -4.967     17.698     19.723
REMARK INTER + INTRA:          -6.931
REMARK INTER:                  -6.379
REMARK INTRA:                  -0.552
REMARK UNBOUND:                -0.512
REMARK  Name = /home/anacleto/Desktop/manuscript_Mpro/naturecomm/supplementary_file_S2/6-chemical-library/molecular_docking/3D_ligand_structure/505.pdb
REMARK  5 active torsions:
REMARK  status: ('A' for Active; 'I' for Inactive)
REMARK    1  A    between atoms: N1_5  and  C5_9
REMARK    2  A    between atoms: C5_9  and  C6_10
REMARK    3  A    between atoms: C6_10  and  O4_12
REMARK    4  A    between atoms: O4_12  and  C7_13
REMARK    5  A    between atoms: C7_13  and  C8_14
REMARK                            x       y       z     vdW  Elec       q    Type
REMARK                         _______ _______ _______ _____ _____    ______ ____
ROOT
ATOM      1  C5  UNL     1     -23.802  -5.377 -22.743  0.00  0.00    +0.000 C 
ENDROOT
BRANCH   1   6
ATOM      2  O1  UNL     1     -25.734  -5.257 -17.635  0.00  0.00    +0.000 OA
ATOM      3  C1  UNL     1     -25.304  -5.307 -18.780  0.00  0.00    +0.000 A 
ATOM      4  C2  UNL     1     -23.859  -5.428 -19.043  0.00  0.00    +0.000 A 
ATOM      5  C3  UNL     1     -23.435  -5.463 -20.307  0.00  0.00    +0.000 A 
ATOM      6  N1  UNL     1     -24.312  -5.397 -21.370  0.00  0.00    +0.000 N 
ATOM      7  C4  UNL     1     -25.683  -5.274 -21.186  0.00  0.00    +0.000 A 
ATOM      8  O2  UNL     1     -26.493  -5.190 -22.106  0.00  0.00    +0.000 OA
ATOM      9  N2  UNL     1     -26.105  -5.252 -19.883  0.00  0.00    +0.000 N 
ATOM     10  H3  UNL     1     -27.096  -5.156 -19.731  0.00  0.00    +0.000 HD
ENDBRANCH   1   6
BRANCH   1  11
ATOM     11  C6  UNL     1     -23.449  -3.990 -23.276  0.00  0.00    +0.000 C 
ATOM     12  O3  UNL     1     -22.540  -3.313 -22.809  0.00  0.00    +0.000 OA
BRANCH  11  13
ATOM     13  O4  UNL     1     -24.282  -3.590 -24.274  0.00  0.00    +0.000 OA
BRANCH  13  14
ATOM     14  C7  UNL     1     -24.279  -4.393 -25.460  0.00  0.00    +0.000 C 
BRANCH  14  15
ATOM     15  C8  UNL     1     -25.686  -4.513 -25.981  0.00  0.00    +0.000 A 
ATOM     16  C9  UNL     1     -26.523  -5.549 -25.542  0.00  0.00    +0.000 A 
ATOM     17  C10 UNL     1     -27.819  -5.671 -26.042  0.00  0.00    +0.000 A 
ATOM     18  C11 UNL     1     -28.289  -4.765 -26.991  0.00  0.00    +0.000 A 
ATOM     19  C12 UNL     1     -27.462  -3.740 -27.444  0.00  0.00    +0.000 A 
ATOM     20  C13 UNL     1     -26.165  -3.615 -26.945  0.00  0.00    +0.000 A 
ENDBRANCH  14  15
ENDBRANCH  13  14
ENDBRANCH  11  13
ENDBRANCH   1  11
TORSDOF 5
ENDMDL
MODEL 8
REMARK VINA RESULT:    -4.910     14.486     16.114
REMARK INTER + INTRA:          -6.858
REMARK INTER:                  -5.877
REMARK INTRA:                  -0.980
REMARK UNBOUND:                -0.512
REMARK  Name = /home/anacleto/Desktop/manuscript_Mpro/naturecomm/supplementary_file_S2/6-chemical-library/molecular_docking/3D_ligand_structure/505.pdb
REMARK  5 active torsions:
REMARK  status: ('A' for Active; 'I' for Inactive)
REMARK    1  A    between atoms: N1_5  and  C5_9
REMARK    2  A    between atoms: C5_9  and  C6_10
REMARK    3  A    between atoms: C6_10  and  O4_12
REMARK    4  A    between atoms: O4_12  and  C7_13
REMARK    5  A    between atoms: C7_13  and  C8_14
REMARK                            x       y       z     vdW  Elec       q    Type
REMARK                         _______ _______ _______ _____ _____    ______ ____
ROOT
ATOM      1  C5  UNL     1     -22.843  -5.190 -29.278  0.00  0.00    +0.000 C 
ENDROOT
BRANCH   1   6
ATOM      2  O1  UNL     1     -18.197  -4.309 -26.544  0.00  0.00    +0.000 OA
ATOM      3  C1  UNL     1     -19.239  -4.484 -27.161  0.00  0.00    +0.000 A 
ATOM      4  C2  UNL     1     -20.539  -4.483 -26.469  0.00  0.00    +0.000 A 
ATOM      5  C3  UNL     1     -21.648  -4.693 -27.180  0.00  0.00    +0.000 A 
ATOM      6  N1  UNL     1     -21.609  -4.902 -28.543  0.00  0.00    +0.000 N 
ATOM      7  C4  UNL     1     -20.413  -4.923 -29.250  0.00  0.00    +0.000 A 
ATOM      8  O2  UNL     1     -20.335  -5.128 -30.458  0.00  0.00    +0.000 OA
ATOM      9  N2  UNL     1     -19.284  -4.694 -28.509  0.00  0.00    +0.000 N 
ATOM     10  H3  UNL     1     -18.407  -4.712 -29.004  0.00  0.00    +0.000 HD
ENDBRANCH   1   6
BRANCH   1  11
ATOM     11  C6  UNL     1     -23.999  -4.235 -28.990  0.00  0.00    +0.000 C 
ATOM     12  O3  UNL     1     -23.963  -3.045 -29.285  0.00  0.00    +0.000 OA
BRANCH  11  13
ATOM     13  O4  UNL     1     -25.025  -4.843 -28.337  0.00  0.00    +0.000 OA
BRANCH  13  14
ATOM     14  C7  UNL     1     -25.669  -4.072 -27.315  0.00  0.00    +0.000 C 
BRANCH  14  15
ATOM     15  C8  UNL     1     -25.012  -4.359 -25.991  0.00  0.00    +0.000 A 
ATOM     16  C9  UNL     1     -24.531  -3.312 -25.192  0.00  0.00    +0.000 A 
ATOM     17  C10 UNL     1     -23.903  -3.582 -23.976  0.00  0.00    +0.000 A 
ATOM     18  C11 UNL     1     -23.743  -4.899 -23.551  0.00  0.00    +0.000 A 
ATOM     19  C12 UNL     1     -24.205  -5.948 -24.343  0.00  0.00    +0.000 A 
ATOM     20  C13 UNL     1     -24.833  -5.681 -25.560  0.00  0.00    +0.000 A 
ENDBRANCH  14  15
ENDBRANCH  13  14
ENDBRANCH  11  13
ENDBRANCH   1  11
TORSDOF 5
ENDMDL
MODEL 9
REMARK VINA RESULT:    -4.884     14.593     16.295
REMARK INTER + INTRA:          -6.824
REMARK INTER:                  -6.312
REMARK INTRA:                  -0.512
REMARK UNBOUND:                -0.512
REMARK  Name = /home/anacleto/Desktop/manuscript_Mpro/naturecomm/supplementary_file_S2/6-chemical-library/molecular_docking/3D_ligand_structure/505.pdb
REMARK  5 active torsions:
REMARK  status: ('A' for Active; 'I' for Inactive)
REMARK    1  A    between atoms: N1_5  and  C5_9
REMARK    2  A    between atoms: C5_9  and  C6_10
REMARK    3  A    between atoms: C6_10  and  O4_12
REMARK    4  A    between atoms: O4_12  and  C7_13
REMARK    5  A    between atoms: C7_13  and  C8_14
REMARK                            x       y       z     vdW  Elec       q    Type
REMARK                         _______ _______ _______ _____ _____    ______ ____
ROOT
ATOM      1  C5  UNL     1     -23.611  -5.125 -28.361  0.00  0.00    +0.000 C 
ENDROOT
BRANCH   1   6
ATOM      2  O1  UNL     1     -18.430  -4.352 -26.815  0.00  0.00    +0.000 OA
ATOM      3  C1  UNL     1     -19.586  -4.548 -27.163  0.00  0.00    +0.000 A 
ATOM      4  C2  UNL     1     -19.979  -4.445 -28.579  0.00  0.00    +0.000 A 
ATOM      5  C3  UNL     1     -21.255  -4.652 -28.910  0.00  0.00    +0.000 A 
ATOM      6  N1  UNL     1     -22.210  -4.966 -27.965  0.00  0.00    +0.000 N 
ATOM      7  C4  UNL     1     -21.901  -5.069 -26.614  0.00  0.00    +0.000 A 
ATOM      8  O2  UNL     1     -22.727  -5.324 -25.741  0.00  0.00    +0.000 OA
ATOM      9  N2  UNL     1     -20.586  -4.866 -26.291  0.00  0.00    +0.000 N 
ATOM     10  H3  UNL     1     -20.346  -4.930 -25.315  0.00  0.00    +0.000 HD
ENDBRANCH   1   6
BRANCH   1  11
ATOM     11  C6  UNL     1     -24.407  -3.824 -28.442  0.00  0.00    +0.000 C 
ATOM     12  O3  UNL     1     -24.153  -2.943 -29.256  0.00  0.00    +0.000 OA
BRANCH  11  13
ATOM     13  O4  UNL     1     -25.374  -3.746 -27.489  0.00  0.00    +0.000 OA
BRANCH  13  14
ATOM     14  C7  UNL     1     -26.574  -4.484 -27.744  0.00  0.00    +0.000 C 
BRANCH  14  15
ATOM     15  C8  UNL     1     -27.021  -5.157 -26.474  0.00  0.00    +0.000 A 
ATOM     16  C9  UNL     1     -28.359  -5.538 -26.301  0.00  0.00    +0.000 A 
ATOM     17  C10 UNL     1     -28.775  -6.142 -25.114  0.00  0.00    +0.000 A 
ATOM     18  C11 UNL     1     -27.861  -6.363 -24.087  0.00  0.00    +0.000 A 
ATOM     19  C12 UNL     1     -26.531  -5.977 -24.242  0.00  0.00    +0.000 A 
ATOM     20  C13 UNL     1     -26.113  -5.373 -25.428  0.00  0.00    +0.000 A 
ENDBRANCH  14  15
ENDBRANCH  13  14
ENDBRANCH  11  13
ENDBRANCH   1  11
TORSDOF 5
ENDMDL
