MODEL 1
REMARK VINA RESULT:    -5.062      0.000      0.000
REMARK INTER + INTRA:          -6.713
REMARK INTER:                  -6.278
REMARK INTRA:                  -0.435
REMARK UNBOUND:                -0.467
REMARK  Name = /home/anacleto/Desktop/manuscript_Mpro/naturecomm/supplementary_file_S2/6-chemical-library/molecular_docking/3D_ligand_structure/776.pdb
REMARK  4 active torsions:
REMARK  status: ('A' for Active; 'I' for Inactive)
REMARK    1  A    between atoms: C3_5  and  C4_6
REMARK    2  A    between atoms: C4_6  and  C5_7
REMARK    3  A    between atoms: N3_9  and  C6_10
REMARK    4  A    between atoms: C6_10  and  C7_11
REMARK                            x       y       z     vdW  Elec       q    Type
REMARK                         _______ _______ _______ _____ _____    ______ ____
ROOT
ATOM      1  C5  UNL     1      17.061   2.865   8.649  0.00  0.00    +0.000 C 
ATOM      2  O1  UNL     1      17.387   1.998   9.459  0.00  0.00    +0.000 OA
ATOM      3  N3  UNL     1      17.667   4.099   8.576  0.00  0.00    +0.000 N 
ATOM      4  H6  UNL     1      17.352   4.771   7.888  0.00  0.00    +0.000 HD
ENDROOT
BRANCH   1   5
ATOM      5  C4  UNL     1      15.941   2.648   7.637  0.00  0.00    +0.000 C 
BRANCH   5  10
ATOM      6  N1  UNL     1      16.204   0.188   7.133  0.00  0.00    +0.000 N 
ATOM      7  C1  UNL     1      15.476  -0.952   7.309  0.00  0.00    +0.000 A 
ATOM      8  N2  UNL     1      14.334  -0.707   7.908  0.00  0.00    +0.000 NA
ATOM      9  C2  UNL     1      14.319   0.647   8.121  0.00  0.00    +0.000 A 
ATOM     10  C3  UNL     1      15.470   1.235   7.643  0.00  0.00    +0.000 A 
ATOM     11  H1  UNL     1      17.106   0.267   6.676  0.00  0.00    +0.000 HD
ENDBRANCH   5  10
ENDBRANCH   1   5
BRANCH   3  12
ATOM     12  C6  UNL     1      18.740   4.495   9.468  0.00  0.00    +0.000 C 
BRANCH  12  13
ATOM     13  C7  UNL     1      19.584   5.620   8.875  0.00  0.00    +0.000 C 
ATOM     14  C8  UNL     1      18.895   6.983   8.865  0.00  0.00    +0.000 C 
ATOM     15  C9  UNL     1      20.039   7.977   8.687  0.00  0.00    +0.000 C 
ATOM     16  C10 UNL     1      21.293   7.281   9.217  0.00  0.00    +0.000 C 
ATOM     17  C11 UNL     1      20.841   5.904   9.694  0.00  0.00    +0.000 C 
ENDBRANCH  12  13
ENDBRANCH   3  12
TORSDOF 4
ENDMDL
MODEL 2
REMARK VINA RESULT:    -4.840     16.253     17.043
REMARK INTER + INTRA:          -6.439
REMARK INTER:                  -5.787
REMARK INTRA:                  -0.652
REMARK UNBOUND:                -0.467
REMARK  Name = /home/anacleto/Desktop/manuscript_Mpro/naturecomm/supplementary_file_S2/6-chemical-library/molecular_docking/3D_ligand_structure/776.pdb
REMARK  4 active torsions:
REMARK  status: ('A' for Active; 'I' for Inactive)
REMARK    1  A    between atoms: C3_5  and  C4_6
REMARK    2  A    between atoms: C4_6  and  C5_7
REMARK    3  A    between atoms: N3_9  and  C6_10
REMARK    4  A    between atoms: C6_10  and  C7_11
REMARK                            x       y       z     vdW  Elec       q    Type
REMARK                         _______ _______ _______ _____ _____    ______ ____
ROOT
ATOM      1  C5  UNL     1      15.055  13.942  -3.616  0.00  0.00    +0.000 C 
ATOM      2  O1  UNL     1      14.580  12.998  -2.984  0.00  0.00    +0.000 OA
ATOM      3  N3  UNL     1      15.485  15.109  -3.025  0.00  0.00    +0.000 N 
ATOM      4  H6  UNL     1      15.866  15.849  -3.601  0.00  0.00    +0.000 HD
ENDROOT
BRANCH   1   5
ATOM      5  C4  UNL     1      15.215  13.902  -5.132  0.00  0.00    +0.000 C 
BRANCH   5  10
ATOM      6  N1  UNL     1      13.212  12.400  -5.456  0.00  0.00    +0.000 N 
ATOM      7  C1  UNL     1      12.912  11.270  -6.159  0.00  0.00    +0.000 A 
ATOM      8  N2  UNL     1      13.939  10.856  -6.866  0.00  0.00    +0.000 NA
ATOM      9  C2  UNL     1      14.945  11.749  -6.602  0.00  0.00    +0.000 A 
ATOM     10  C3  UNL     1      14.524  12.720  -5.720  0.00  0.00    +0.000 A 
ATOM     11  H1  UNL     1      12.599  12.897  -4.819  0.00  0.00    +0.000 HD
ENDBRANCH   5  10
ENDBRANCH   1   5
BRANCH   3  12
ATOM     12  C6  UNL     1      15.397  15.338  -1.596  0.00  0.00    +0.000 C 
BRANCH  12  13
ATOM     13  C7  UNL     1      14.300  16.341  -1.250  0.00  0.00    +0.000 C 
ATOM     14  C8  UNL     1      14.092  17.432  -2.298  0.00  0.00    +0.000 C 
ATOM     15  C9  UNL     1      12.708  17.992  -1.985  0.00  0.00    +0.000 C 
ATOM     16  C10 UNL     1      11.953  16.877  -1.263  0.00  0.00    +0.000 C 
ATOM     17  C11 UNL     1      12.917  15.697  -1.183  0.00  0.00    +0.000 C 
ENDBRANCH  12  13
ENDBRANCH   3  12
TORSDOF 4
ENDMDL
MODEL 3
REMARK VINA RESULT:    -4.759     16.504     17.645
REMARK INTER + INTRA:          -6.339
REMARK INTER:                  -5.936
REMARK INTRA:                  -0.404
REMARK UNBOUND:                -0.467
REMARK  Name = /home/anacleto/Desktop/manuscript_Mpro/naturecomm/supplementary_file_S2/6-chemical-library/molecular_docking/3D_ligand_structure/776.pdb
REMARK  4 active torsions:
REMARK  status: ('A' for Active; 'I' for Inactive)
REMARK    1  A    between atoms: C3_5  and  C4_6
REMARK    2  A    between atoms: C4_6  and  C5_7
REMARK    3  A    between atoms: N3_9  and  C6_10
REMARK    4  A    between atoms: C6_10  and  C7_11
REMARK                            x       y       z     vdW  Elec       q    Type
REMARK                         _______ _______ _______ _____ _____    ______ ____
ROOT
ATOM      1  C5  UNL     1      14.691  13.722  -3.419  0.00  0.00    +0.000 C 
ATOM      2  O1  UNL     1      14.852  12.725  -2.715  0.00  0.00    +0.000 OA
ATOM      3  N3  UNL     1      14.222  13.667  -4.712  0.00  0.00    +0.000 N 
ATOM      4  H6  UNL     1      14.112  14.523  -5.240  0.00  0.00    +0.000 HD
ENDROOT
BRANCH   1   5
ATOM      5  C4  UNL     1      15.001  15.128  -2.914  0.00  0.00    +0.000 C 
BRANCH   5  10
ATOM      6  N1  UNL     1      12.644  16.033  -2.915  0.00  0.00    +0.000 N 
ATOM      7  C1  UNL     1      11.782  16.575  -2.008  0.00  0.00    +0.000 A 
ATOM      8  N2  UNL     1      12.317  16.637  -0.811  0.00  0.00    +0.000 NA
ATOM      9  C2  UNL     1      13.579  16.120  -0.950  0.00  0.00    +0.000 A 
ATOM     10  C3  UNL     1      13.816  15.741  -2.253  0.00  0.00    +0.000 A 
ATOM     11  H1  UNL     1      12.478  15.901  -3.906  0.00  0.00    +0.000 HD
ENDBRANCH   5  10
ENDBRANCH   1   5
BRANCH   3  12
ATOM     12  C6  UNL     1      13.891  12.418  -5.369  0.00  0.00    +0.000 C 
BRANCH  12  13
ATOM     13  C7  UNL     1      14.915  12.052  -6.440  0.00  0.00    +0.000 C 
ATOM     14  C8  UNL     1      15.639  13.250  -7.052  0.00  0.00    +0.000 C 
ATOM     15  C9  UNL     1      16.878  12.644  -7.703  0.00  0.00    +0.000 C 
ATOM     16  C10 UNL     1      17.157  11.341  -6.954  0.00  0.00    +0.000 C 
ATOM     17  C11 UNL     1      16.075  11.229  -5.884  0.00  0.00    +0.000 C 
ENDBRANCH  12  13
ENDBRANCH   3  12
TORSDOF 4
ENDMDL
MODEL 4
REMARK VINA RESULT:    -4.677     13.863     14.604
REMARK INTER + INTRA:          -6.237
REMARK INTER:                  -5.769
REMARK INTRA:                  -0.468
REMARK UNBOUND:                -0.467
REMARK  Name = /home/anacleto/Desktop/manuscript_Mpro/naturecomm/supplementary_file_S2/6-chemical-library/molecular_docking/3D_ligand_structure/776.pdb
REMARK  4 active torsions:
REMARK  status: ('A' for Active; 'I' for Inactive)
REMARK    1  A    between atoms: C3_5  and  C4_6
REMARK    2  A    between atoms: C4_6  and  C5_7
REMARK    3  A    between atoms: N3_9  and  C6_10
REMARK    4  A    between atoms: C6_10  and  C7_11
REMARK                            x       y       z     vdW  Elec       q    Type
REMARK                         _______ _______ _______ _____ _____    ______ ____
ROOT
ATOM      1  C5  UNL     1      16.093  12.286  -2.445  0.00  0.00    +0.000 C 
ATOM      2  O1  UNL     1      15.095  12.996  -2.568  0.00  0.00    +0.000 OA
ATOM      3  N3  UNL     1      17.050  12.486  -1.476  0.00  0.00    +0.000 N 
ATOM      4  H6  UNL     1      17.849  11.867  -1.427  0.00  0.00    +0.000 HD
ENDROOT
BRANCH   1   5
ATOM      5  C4  UNL     1      16.362  11.102  -3.368  0.00  0.00    +0.000 C 
BRANCH   5  10
ATOM      6  N1  UNL     1      14.064  10.533  -4.243  0.00  0.00    +0.000 N 
ATOM      7  C1  UNL     1      13.404  10.595  -5.435  0.00  0.00    +0.000 A 
ATOM      8  N2  UNL     1      14.166  11.092  -6.382  0.00  0.00    +0.000 NA
ATOM      9  C2  UNL     1      15.369  11.354  -5.780  0.00  0.00    +0.000 A 
ATOM     10  C3  UNL     1      15.339  11.010  -4.446  0.00  0.00    +0.000 A 
ATOM     11  H1  UNL     1      13.703  10.166  -3.370  0.00  0.00    +0.000 HD
ENDBRANCH   5  10
ENDBRANCH   1   5
BRANCH   3  12
ATOM     12  C6  UNL     1      16.975  13.572  -0.518  0.00  0.00    +0.000 C 
BRANCH  12  13
ATOM     13  C7  UNL     1      18.252  14.408  -0.508  0.00  0.00    +0.000 C 
ATOM     14  C8  UNL     1      18.238  15.565   0.489  0.00  0.00    +0.000 C 
ATOM     15  C9  UNL     1      19.709  15.933   0.653  0.00  0.00    +0.000 C 
ATOM     16  C10 UNL     1      20.504  14.676   0.300  0.00  0.00    +0.000 C 
ATOM     17  C11 UNL     1      19.472  13.610  -0.053  0.00  0.00    +0.000 C 
ENDBRANCH  12  13
ENDBRANCH   3  12
TORSDOF 4
ENDMDL
MODEL 5
REMARK VINA RESULT:    -4.632     16.317     17.895
REMARK INTER + INTRA:          -6.182
REMARK INTER:                  -5.664
REMARK INTRA:                  -0.518
REMARK UNBOUND:                -0.467
REMARK  Name = /home/anacleto/Desktop/manuscript_Mpro/naturecomm/supplementary_file_S2/6-chemical-library/molecular_docking/3D_ligand_structure/776.pdb
REMARK  4 active torsions:
REMARK  status: ('A' for Active; 'I' for Inactive)
REMARK    1  A    between atoms: C3_5  and  C4_6
REMARK    2  A    between atoms: C4_6  and  C5_7
REMARK    3  A    between atoms: N3_9  and  C6_10
REMARK    4  A    between atoms: C6_10  and  C7_11
REMARK                            x       y       z     vdW  Elec       q    Type
REMARK                         _______ _______ _______ _____ _____    ______ ____
ROOT
ATOM      1  C5  UNL     1      15.634  14.888  -3.180  0.00  0.00    +0.000 C 
ATOM      2  O1  UNL     1      16.142  15.807  -3.823  0.00  0.00    +0.000 OA
ATOM      3  N3  UNL     1      15.481  13.613  -3.675  0.00  0.00    +0.000 N 
ATOM      4  H6  UNL     1      15.054  12.901  -3.097  0.00  0.00    +0.000 HD
ENDROOT
BRANCH   1   5
ATOM      5  C4  UNL     1      15.123  15.082  -1.756  0.00  0.00    +0.000 C 
BRANCH   5  10
ATOM      6  N1  UNL     1      13.882  17.167  -2.454  0.00  0.00    +0.000 N 
ATOM      7  C1  UNL     1      12.681  17.754  -2.182  0.00  0.00    +0.000 A 
ATOM      8  N2  UNL     1      11.977  17.039  -1.335  0.00  0.00    +0.000 NA
ATOM      9  C2  UNL     1      12.756  15.950  -1.042  0.00  0.00    +0.000 A 
ATOM     10  C3  UNL     1      13.955  16.005  -1.720  0.00  0.00    +0.000 A 
ATOM     11  H1  UNL     1      14.613  17.532  -3.055  0.00  0.00    +0.000 HD
ENDBRANCH   5  10
ENDBRANCH   1   5
BRANCH   3  12
ATOM     12  C6  UNL     1      15.891  13.242  -5.016  0.00  0.00    +0.000 C 
BRANCH  12  13
ATOM     13  C7  UNL     1      15.106  12.041  -5.536  0.00  0.00    +0.000 C 
ATOM     14  C8  UNL     1      13.604  12.110  -5.272  0.00  0.00    +0.000 C 
ATOM     15  C9  UNL     1      13.007  11.101  -6.248  0.00  0.00    +0.000 C 
ATOM     16  C10 UNL     1      14.009  10.975  -7.396  0.00  0.00    +0.000 C 
ATOM     17  C11 UNL     1      15.158  11.921  -7.058  0.00  0.00    +0.000 C 
ENDBRANCH  12  13
ENDBRANCH   3  12
TORSDOF 4
ENDMDL
MODEL 6
REMARK VINA RESULT:    -4.456     13.249     14.161
REMARK INTER + INTRA:          -5.965
REMARK INTER:                  -5.639
REMARK INTRA:                  -0.326
REMARK UNBOUND:                -0.467
REMARK  Name = /home/anacleto/Desktop/manuscript_Mpro/naturecomm/supplementary_file_S2/6-chemical-library/molecular_docking/3D_ligand_structure/776.pdb
REMARK  4 active torsions:
REMARK  status: ('A' for Active; 'I' for Inactive)
REMARK    1  A    between atoms: C3_5  and  C4_6
REMARK    2  A    between atoms: C4_6  and  C5_7
REMARK    3  A    between atoms: N3_9  and  C6_10
REMARK    4  A    between atoms: C6_10  and  C7_11
REMARK                            x       y       z     vdW  Elec       q    Type
REMARK                         _______ _______ _______ _____ _____    ______ ____
ROOT
ATOM      1  C5  UNL     1      17.349  11.438  -1.468  0.00  0.00    +0.000 C 
ATOM      2  O1  UNL     1      18.127  10.641  -1.993  0.00  0.00    +0.000 OA
ATOM      3  N3  UNL     1      17.762  12.542  -0.756  0.00  0.00    +0.000 N 
ATOM      4  H6  UNL     1      17.072  13.159  -0.348  0.00  0.00    +0.000 HD
ENDROOT
BRANCH   1   5
ATOM      5  C4  UNL     1      15.836  11.273  -1.563  0.00  0.00    +0.000 C 
BRANCH   5  10
ATOM      6  N1  UNL     1      14.778  10.565  -3.743  0.00  0.00    +0.000 N 
ATOM      7  C1  UNL     1      14.445  11.150  -4.929  0.00  0.00    +0.000 A 
ATOM      8  N2  UNL     1      14.749  12.428  -4.938  0.00  0.00    +0.000 NA
ATOM      9  C2  UNL     1      15.308  12.677  -3.711  0.00  0.00    +0.000 A 
ATOM     10  C3  UNL     1      15.346  11.532  -2.945  0.00  0.00    +0.000 A 
ATOM     11  H1  UNL     1      14.668   9.588  -3.498  0.00  0.00    +0.000 HD
ENDBRANCH   5  10
ENDBRANCH   1   5
BRANCH   3  12
ATOM     12  C6  UNL     1      19.161  12.855  -0.545  0.00  0.00    +0.000 C 
BRANCH  12  13
ATOM     13  C7  UNL     1      19.407  14.361  -0.519  0.00  0.00    +0.000 C 
ATOM     14  C8  UNL     1      18.298  15.168   0.154  0.00  0.00    +0.000 C 
ATOM     15  C9  UNL     1      18.953  16.508   0.472  0.00  0.00    +0.000 C 
ATOM     16  C10 UNL     1      20.454  16.236   0.571  0.00  0.00    +0.000 C 
ATOM     17  C11 UNL     1      20.629  14.742   0.314  0.00  0.00    +0.000 C 
ENDBRANCH  12  13
ENDBRANCH   3  12
TORSDOF 4
ENDMDL
MODEL 7
REMARK VINA RESULT:    -4.419     14.966     16.148
REMARK INTER + INTRA:          -5.919
REMARK INTER:                  -5.290
REMARK INTRA:                  -0.629
REMARK UNBOUND:                -0.467
REMARK  Name = /home/anacleto/Desktop/manuscript_Mpro/naturecomm/supplementary_file_S2/6-chemical-library/molecular_docking/3D_ligand_structure/776.pdb
REMARK  4 active torsions:
REMARK  status: ('A' for Active; 'I' for Inactive)
REMARK    1  A    between atoms: C3_5  and  C4_6
REMARK    2  A    between atoms: C4_6  and  C5_7
REMARK    3  A    between atoms: N3_9  and  C6_10
REMARK    4  A    between atoms: C6_10  and  C7_11
REMARK                            x       y       z     vdW  Elec       q    Type
REMARK                         _______ _______ _______ _____ _____    ______ ____
ROOT
ATOM      1  C5  UNL     1      18.350  10.591  -5.230  0.00  0.00    +0.000 C 
ATOM      2  O1  UNL     1      18.963  11.531  -4.725  0.00  0.00    +0.000 OA
ATOM      3  N3  UNL     1      17.201  10.058  -4.690  0.00  0.00    +0.000 N 
ATOM      4  H6  UNL     1      16.744   9.284  -5.153  0.00  0.00    +0.000 HD
ENDROOT
BRANCH   1   5
ATOM      5  C4  UNL     1      18.814   9.922  -6.520  0.00  0.00    +0.000 C 
BRANCH   5  10
ATOM      6  N1  UNL     1      20.454   8.716  -5.027  0.00  0.00    +0.000 N 
ATOM      7  C1  UNL     1      21.532   7.895  -5.184  0.00  0.00    +0.000 A 
ATOM      8  N2  UNL     1      21.779   7.661  -6.452  0.00  0.00    +0.000 NA
ATOM      9  C2  UNL     1      20.828   8.366  -7.144  0.00  0.00    +0.000 A 
ATOM     10  C3  UNL     1      19.991   9.040  -6.282  0.00  0.00    +0.000 A 
ATOM     11  H1  UNL     1      20.080   9.064  -4.152  0.00  0.00    +0.000 HD
ENDBRANCH   5  10
ENDBRANCH   1   5
BRANCH   3  12
ATOM     12  C6  UNL     1      16.618  10.551  -3.458  0.00  0.00    +0.000 C 
BRANCH  12  13
ATOM     13  C7  UNL     1      15.395  11.427  -3.720  0.00  0.00    +0.000 C 
ATOM     14  C8  UNL     1      15.715  12.906  -3.924  0.00  0.00    +0.000 C 
ATOM     15  C9  UNL     1      14.471  13.465  -4.609  0.00  0.00    +0.000 C 
ATOM     16  C10 UNL     1      13.808  12.282  -5.315  0.00  0.00    +0.000 C 
ATOM     17  C11 UNL     1      14.688  11.070  -5.026  0.00  0.00    +0.000 C 
ENDBRANCH  12  13
ENDBRANCH   3  12
TORSDOF 4
ENDMDL
MODEL 8
REMARK VINA RESULT:    -4.376      2.057      7.138
REMARK INTER + INTRA:          -5.866
REMARK INTER:                  -5.310
REMARK INTRA:                  -0.556
REMARK UNBOUND:                -0.467
REMARK  Name = /home/anacleto/Desktop/manuscript_Mpro/naturecomm/supplementary_file_S2/6-chemical-library/molecular_docking/3D_ligand_structure/776.pdb
REMARK  4 active torsions:
REMARK  status: ('A' for Active; 'I' for Inactive)
REMARK    1  A    between atoms: C3_5  and  C4_6
REMARK    2  A    between atoms: C4_6  and  C5_7
REMARK    3  A    between atoms: N3_9  and  C6_10
REMARK    4  A    between atoms: C6_10  and  C7_11
REMARK                            x       y       z     vdW  Elec       q    Type
REMARK                         _______ _______ _______ _____ _____    ______ ____
ROOT
ATOM      1  C5  UNL     1      18.085   4.214   9.203  0.00  0.00    +0.000 C 
ATOM      2  O1  UNL     1      18.298   3.648  10.275  0.00  0.00    +0.000 OA
ATOM      3  N3  UNL     1      17.018   3.914   8.387  0.00  0.00    +0.000 N 
ATOM      4  H6  UNL     1      16.898   4.415   7.517  0.00  0.00    +0.000 HD
ENDROOT
BRANCH   1   5
ATOM      5  C4  UNL     1      18.997   5.318   8.676  0.00  0.00    +0.000 C 
BRANCH   5  10
ATOM      6  N1  UNL     1      19.165   6.345  10.976  0.00  0.00    +0.000 N 
ATOM      7  C1  UNL     1      20.134   6.916  11.748  0.00  0.00    +0.000 A 
ATOM      8  N2  UNL     1      21.295   6.926  11.134  0.00  0.00    +0.000 NA
ATOM      9  C2  UNL     1      21.065   6.347   9.913  0.00  0.00    +0.000 A 
ATOM     10  C3  UNL     1      19.743   5.980   9.782  0.00  0.00    +0.000 A 
ATOM     11  H1  UNL     1      18.185   6.241  11.213  0.00  0.00    +0.000 HD
ENDBRANCH   5  10
ENDBRANCH   1   5
BRANCH   3  12
ATOM     12  C6  UNL     1      16.054   2.881   8.713  0.00  0.00    +0.000 C 
BRANCH  12  13
ATOM     13  C7  UNL     1      16.214   1.654   7.819  0.00  0.00    +0.000 C 
ATOM     14  C8  UNL     1      17.272   0.661   8.298  0.00  0.00    +0.000 C 
ATOM     15  C9  UNL     1      16.931  -0.630   7.562  0.00  0.00    +0.000 C 
ATOM     16  C10 UNL     1      15.443  -0.548   7.225  0.00  0.00    +0.000 C 
ATOM     17  C11 UNL     1      14.958   0.788   7.781  0.00  0.00    +0.000 C 
ENDBRANCH  12  13
ENDBRANCH   3  12
TORSDOF 4
ENDMDL
MODEL 9
REMARK VINA RESULT:    -4.318     14.685     15.640
REMARK INTER + INTRA:          -5.794
REMARK INTER:                  -5.328
REMARK INTRA:                  -0.467
REMARK UNBOUND:                -0.467
REMARK  Name = /home/anacleto/Desktop/manuscript_Mpro/naturecomm/supplementary_file_S2/6-chemical-library/molecular_docking/3D_ligand_structure/776.pdb
REMARK  4 active torsions:
REMARK  status: ('A' for Active; 'I' for Inactive)
REMARK    1  A    between atoms: C3_5  and  C4_6
REMARK    2  A    between atoms: C4_6  and  C5_7
REMARK    3  A    between atoms: N3_9  and  C6_10
REMARK    4  A    between atoms: C6_10  and  C7_11
REMARK                            x       y       z     vdW  Elec       q    Type
REMARK                         _______ _______ _______ _____ _____    ______ ____
ROOT
ATOM      1  C5  UNL     1      16.575  12.003  -2.834  0.00  0.00    +0.000 C 
ATOM      2  O1  UNL     1      16.352  11.484  -1.740  0.00  0.00    +0.000 OA
ATOM      3  N3  UNL     1      16.732  13.359  -3.010  0.00  0.00    +0.000 N 
ATOM      4  H6  UNL     1      16.913  13.724  -3.936  0.00  0.00    +0.000 HD
ENDROOT
BRANCH   1   5
ATOM      5  C4  UNL     1      16.701  11.177  -4.110  0.00  0.00    +0.000 C 
BRANCH   5  10
ATOM      6  N1  UNL     1      14.269  10.500  -4.145  0.00  0.00    +0.000 N 
ATOM      7  C1  UNL     1      13.247  10.490  -5.049  0.00  0.00    +0.000 A 
ATOM      8  N2  UNL     1      13.627  10.968  -6.211  0.00  0.00    +0.000 NA
ATOM      9  C2  UNL     1      14.949  11.293  -6.056  0.00  0.00    +0.000 A 
ATOM     10  C3  UNL     1      15.381  11.007  -4.779  0.00  0.00    +0.000 A 
ATOM     11  H1  UNL     1      14.237  10.162  -3.190  0.00  0.00    +0.000 HD
ENDBRANCH   5  10
ENDBRANCH   1   5
BRANCH   3  12
ATOM     12  C6  UNL     1      16.629  14.305  -1.917  0.00  0.00    +0.000 C 
BRANCH  12  13
ATOM     13  C7  UNL     1      15.401  15.202  -2.057  0.00  0.00    +0.000 C 
ATOM     14  C8  UNL     1      14.164  14.492  -2.603  0.00  0.00    +0.000 C 
ATOM     15  C9  UNL     1      13.008  15.410  -2.220  0.00  0.00    +0.000 C 
ATOM     16  C10 UNL     1      13.483  16.208  -1.006  0.00  0.00    +0.000 C 
ATOM     17  C11 UNL     1      14.901  15.725  -0.713  0.00  0.00    +0.000 C 
ENDBRANCH  12  13
ENDBRANCH   3  12
TORSDOF 4
ENDMDL
