MODEL 1
REMARK VINA RESULT:    -3.733      0.000      0.000
REMARK INTER + INTRA:          -3.733
REMARK INTER:                  -3.733
REMARK INTRA:                   0.000
REMARK UNBOUND:                 0.000
REMARK  Name = /home/anacleto/Desktop/manuscript_Mpro/naturecomm/supplementary_file_S2/6-chemical-library/molecular_docking/3D_ligand_structure/297.pdb
REMARK  0 active torsions:
REMARK  status: ('A' for Active; 'I' for Inactive)
REMARK                            x       y       z     vdW  Elec       q    Type
REMARK                         _______ _______ _______ _____ _____    ______ ____
ROOT
ATOM      1  C1  UNL     1     -37.654  11.370 -30.222  0.00  0.00    +0.000 A 
ATOM      2  C2  UNL     1     -37.256  12.455 -29.417  0.00  0.00    +0.000 A 
ATOM      3  N1  UNL     1     -36.173  13.074 -29.894  0.00  0.00    +0.000 NA
ATOM      4  N2  UNL     1     -35.887  12.386 -31.011  0.00  0.00    +0.000 N 
ATOM      5  C3  UNL     1     -36.741  11.344 -31.252  0.00  0.00    +0.000 A 
ATOM      6  C4  UNL     1     -34.715  12.711 -31.801  0.00  0.00    +0.000 C 
ATOM      7  C5  UNL     1     -34.741  12.031 -33.171  0.00  0.00    +0.000 C 
ATOM      8  C6  UNL     1     -35.186  10.570 -33.049  0.00  0.00    +0.000 C 
ATOM      9  C7  UNL     1     -36.592  10.471 -32.448  0.00  0.00    +0.000 C 
ENDROOT
TORSDOF 0
ENDMDL
MODEL 2
REMARK VINA RESULT:    -3.663     12.417     13.824
REMARK INTER + INTRA:          -3.663
REMARK INTER:                  -3.663
REMARK INTRA:                   0.000
REMARK UNBOUND:                 0.000
REMARK  Name = /home/anacleto/Desktop/manuscript_Mpro/naturecomm/supplementary_file_S2/6-chemical-library/molecular_docking/3D_ligand_structure/297.pdb
REMARK  0 active torsions:
REMARK  status: ('A' for Active; 'I' for Inactive)
REMARK                            x       y       z     vdW  Elec       q    Type
REMARK                         _______ _______ _______ _____ _____    ______ ____
ROOT
ATOM      1  C1  UNL     1     -29.139   4.966 -38.544  0.00  0.00    +0.000 A 
ATOM      2  C2  UNL     1     -28.586   6.201 -38.935  0.00  0.00    +0.000 A 
ATOM      3  N1  UNL     1     -27.267   6.131 -39.129  0.00  0.00    +0.000 NA
ATOM      4  N2  UNL     1     -26.981   4.845 -38.871  0.00  0.00    +0.000 N 
ATOM      5  C3  UNL     1     -28.070   4.100 -38.505  0.00  0.00    +0.000 A 
ATOM      6  C4  UNL     1     -25.611   4.368 -38.908  0.00  0.00    +0.000 C 
ATOM      7  C5  UNL     1     -25.536   2.841 -38.892  0.00  0.00    +0.000 C 
ATOM      8  C6  UNL     1     -26.510   2.255 -37.865  0.00  0.00    +0.000 C 
ATOM      9  C7  UNL     1     -27.954   2.651 -38.189  0.00  0.00    +0.000 C 
ENDROOT
TORSDOF 0
ENDMDL
MODEL 3
REMARK VINA RESULT:    -3.650     13.887     15.388
REMARK INTER + INTRA:          -3.650
REMARK INTER:                  -3.650
REMARK INTRA:                   0.000
REMARK UNBOUND:                 0.000
REMARK  Name = /home/anacleto/Desktop/manuscript_Mpro/naturecomm/supplementary_file_S2/6-chemical-library/molecular_docking/3D_ligand_structure/297.pdb
REMARK  0 active torsions:
REMARK  status: ('A' for Active; 'I' for Inactive)
REMARK                            x       y       z     vdW  Elec       q    Type
REMARK                         _______ _______ _______ _____ _____    ______ ____
ROOT
ATOM      1  C1  UNL     1     -22.783  10.104 -37.330  0.00  0.00    +0.000 A 
ATOM      2  C2  UNL     1     -24.179  10.078 -37.519  0.00  0.00    +0.000 A 
ATOM      3  N1  UNL     1     -24.628   8.865 -37.850  0.00  0.00    +0.000 NA
ATOM      4  N2  UNL     1     -23.515   8.113 -37.862  0.00  0.00    +0.000 N 
ATOM      5  C3  UNL     1     -22.375   8.810 -37.565  0.00  0.00    +0.000 A 
ATOM      6  C4  UNL     1     -23.569   6.716 -38.248  0.00  0.00    +0.000 C 
ATOM      7  C5  UNL     1     -22.276   5.976 -37.902  0.00  0.00    +0.000 C 
ATOM      8  C6  UNL     1     -21.049   6.814 -38.274  0.00  0.00    +0.000 C 
ATOM      9  C7  UNL     1     -21.043   8.147 -37.519  0.00  0.00    +0.000 C 
ENDROOT
TORSDOF 0
ENDMDL
MODEL 4
REMARK VINA RESULT:    -3.616      1.260      3.103
REMARK INTER + INTRA:          -3.616
REMARK INTER:                  -3.616
REMARK INTRA:                   0.000
REMARK UNBOUND:                 0.000
REMARK  Name = /home/anacleto/Desktop/manuscript_Mpro/naturecomm/supplementary_file_S2/6-chemical-library/molecular_docking/3D_ligand_structure/297.pdb
REMARK  0 active torsions:
REMARK  status: ('A' for Active; 'I' for Inactive)
REMARK                            x       y       z     vdW  Elec       q    Type
REMARK                         _______ _______ _______ _____ _____    ______ ____
ROOT
ATOM      1  C1  UNL     1     -33.357  12.306 -33.075  0.00  0.00    +0.000 A 
ATOM      2  C2  UNL     1     -33.153  13.488 -32.337  0.00  0.00    +0.000 A 
ATOM      3  N1  UNL     1     -34.143  13.729 -31.474  0.00  0.00    +0.000 NA
ATOM      4  N2  UNL     1     -34.976  12.692 -31.658  0.00  0.00    +0.000 N 
ATOM      5  C3  UNL     1     -34.556  11.809 -32.617  0.00  0.00    +0.000 A 
ATOM      6  C4  UNL     1     -36.233  12.615 -30.938  0.00  0.00    +0.000 C 
ATOM      7  C5  UNL     1     -36.875  11.231 -31.053  0.00  0.00    +0.000 C 
ATOM      8  C6  UNL     1     -36.796  10.708 -32.491  0.00  0.00    +0.000 C 
ATOM      9  C7  UNL     1     -35.341  10.591 -32.955  0.00  0.00    +0.000 C 
ENDROOT
TORSDOF 0
ENDMDL
MODEL 5
REMARK VINA RESULT:    -3.559      1.447      3.139
REMARK INTER + INTRA:          -3.559
REMARK INTER:                  -3.559
REMARK INTRA:                   0.000
REMARK UNBOUND:                 0.000
REMARK  Name = /home/anacleto/Desktop/manuscript_Mpro/naturecomm/supplementary_file_S2/6-chemical-library/molecular_docking/3D_ligand_structure/297.pdb
REMARK  0 active torsions:
REMARK  status: ('A' for Active; 'I' for Inactive)
REMARK                            x       y       z     vdW  Elec       q    Type
REMARK                         _______ _______ _______ _____ _____    ______ ____
ROOT
ATOM      1  C1  UNL     1     -34.412  13.799 -31.099  0.00  0.00    +0.000 A 
ATOM      2  C2  UNL     1     -33.328  13.547 -31.962  0.00  0.00    +0.000 A 
ATOM      3  N1  UNL     1     -33.520  12.466 -32.722  0.00  0.00    +0.000 NA
ATOM      4  N2  UNL     1     -34.734  12.033 -32.348  0.00  0.00    +0.000 N 
ATOM      5  C3  UNL     1     -35.314  12.793 -31.367  0.00  0.00    +0.000 A 
ATOM      6  C4  UNL     1     -35.291  10.815 -32.905  0.00  0.00    +0.000 C 
ATOM      7  C5  UNL     1     -36.781  10.670 -32.589  0.00  0.00    +0.000 C 
ATOM      8  C6  UNL     1     -37.069  11.030 -31.129  0.00  0.00    +0.000 C 
ATOM      9  C7  UNL     1     -36.665  12.478 -30.829  0.00  0.00    +0.000 C 
ENDROOT
TORSDOF 0
ENDMDL
MODEL 6
REMARK VINA RESULT:    -3.514     13.860     15.234
REMARK INTER + INTRA:          -3.514
REMARK INTER:                  -3.514
REMARK INTRA:                   0.000
REMARK UNBOUND:                 0.000
REMARK  Name = /home/anacleto/Desktop/manuscript_Mpro/naturecomm/supplementary_file_S2/6-chemical-library/molecular_docking/3D_ligand_structure/297.pdb
REMARK  0 active torsions:
REMARK  status: ('A' for Active; 'I' for Inactive)
REMARK                            x       y       z     vdW  Elec       q    Type
REMARK                         _______ _______ _______ _____ _____    ______ ____
ROOT
ATOM      1  C1  UNL     1     -24.759   8.719 -38.112  0.00  0.00    +0.000 A 
ATOM      2  C2  UNL     1     -24.422   9.954 -37.526  0.00  0.00    +0.000 A 
ATOM      3  N1  UNL     1     -23.133  10.024 -37.187  0.00  0.00    +0.000 NA
ATOM      4  N2  UNL     1     -22.645   8.833 -37.567  0.00  0.00    +0.000 N 
ATOM      5  C3  UNL     1     -23.583   8.004 -38.122  0.00  0.00    +0.000 A 
ATOM      6  C4  UNL     1     -21.262   8.481 -37.308  0.00  0.00    +0.000 C 
ATOM      7  C5  UNL     1     -20.834   7.233 -38.081  0.00  0.00    +0.000 C 
ATOM      8  C6  UNL     1     -21.912   6.148 -38.013  0.00  0.00    +0.000 C 
ATOM      9  C7  UNL     1     -23.231   6.644 -38.615  0.00  0.00    +0.000 C 
ENDROOT
TORSDOF 0
ENDMDL
MODEL 7
REMARK VINA RESULT:    -3.433     16.394     17.936
REMARK INTER + INTRA:          -3.433
REMARK INTER:                  -3.433
REMARK INTRA:                   0.000
REMARK UNBOUND:                 0.000
REMARK  Name = /home/anacleto/Desktop/manuscript_Mpro/naturecomm/supplementary_file_S2/6-chemical-library/molecular_docking/3D_ligand_structure/297.pdb
REMARK  0 active torsions:
REMARK  status: ('A' for Active; 'I' for Inactive)
REMARK                            x       y       z     vdW  Elec       q    Type
REMARK                         _______ _______ _______ _____ _____    ______ ____
ROOT
ATOM      1  C1  UNL     1     -18.950   7.364 -39.301  0.00  0.00    +0.000 A 
ATOM      2  C2  UNL     1     -18.110   8.489 -39.410  0.00  0.00    +0.000 A 
ATOM      3  N1  UNL     1     -18.624   9.569 -38.816  0.00  0.00    +0.000 NA
ATOM      4  N2  UNL     1     -19.790   9.127 -38.320  0.00  0.00    +0.000 N 
ATOM      5  C3  UNL     1     -20.041   7.809 -38.590  0.00  0.00    +0.000 A 
ATOM      6  C4  UNL     1     -20.698  10.034 -37.643  0.00  0.00    +0.000 C 
ATOM      7  C5  UNL     1     -21.802   9.285 -36.895  0.00  0.00    +0.000 C 
ATOM      8  C6  UNL     1     -22.370   8.148 -37.749  0.00  0.00    +0.000 C 
ATOM      9  C7  UNL     1     -21.279   7.135 -38.113  0.00  0.00    +0.000 C 
ENDROOT
TORSDOF 0
ENDMDL
MODEL 8
REMARK VINA RESULT:    -3.432     12.503     14.103
REMARK INTER + INTRA:          -3.432
REMARK INTER:                  -3.432
REMARK INTRA:                   0.000
REMARK UNBOUND:                 0.000
REMARK  Name = /home/anacleto/Desktop/manuscript_Mpro/naturecomm/supplementary_file_S2/6-chemical-library/molecular_docking/3D_ligand_structure/297.pdb
REMARK  0 active torsions:
REMARK  status: ('A' for Active; 'I' for Inactive)
REMARK                            x       y       z     vdW  Elec       q    Type
REMARK                         _______ _______ _______ _____ _____    ______ ____
ROOT
ATOM      1  C1  UNL     1     -26.788   6.259 -39.361  0.00  0.00    +0.000 A 
ATOM      2  C2  UNL     1     -28.175   6.424 -39.177  0.00  0.00    +0.000 A 
ATOM      3  N1  UNL     1     -28.770   5.307 -38.752  0.00  0.00    +0.000 NA
ATOM      4  N2  UNL     1     -27.758   4.431 -38.656  0.00  0.00    +0.000 N 
ATOM      5  C3  UNL     1     -26.543   4.949 -39.019  0.00  0.00    +0.000 A 
ATOM      6  C4  UNL     1     -28.004   3.052 -38.279  0.00  0.00    +0.000 C 
ATOM      7  C5  UNL     1     -26.710   2.314 -37.931  0.00  0.00    +0.000 C 
ATOM      8  C6  UNL     1     -25.607   2.633 -38.944  0.00  0.00    +0.000 C 
ATOM      9  C7  UNL     1     -25.299   4.133 -38.969  0.00  0.00    +0.000 C 
ENDROOT
TORSDOF 0
ENDMDL
MODEL 9
REMARK VINA RESULT:    -3.425     14.223     15.699
REMARK INTER + INTRA:          -3.425
REMARK INTER:                  -3.425
REMARK INTRA:                   0.000
REMARK UNBOUND:                 0.000
REMARK  Name = /home/anacleto/Desktop/manuscript_Mpro/naturecomm/supplementary_file_S2/6-chemical-library/molecular_docking/3D_ligand_structure/297.pdb
REMARK  0 active torsions:
REMARK  status: ('A' for Active; 'I' for Inactive)
REMARK                            x       y       z     vdW  Elec       q    Type
REMARK                         _______ _______ _______ _____ _____    ______ ____
ROOT
ATOM      1  C1  UNL     1     -21.278   6.776 -38.026  0.00  0.00    +0.000 A 
ATOM      2  C2  UNL     1     -22.368   5.956 -38.376  0.00  0.00    +0.000 A 
ATOM      3  N1  UNL     1     -23.535   6.601 -38.311  0.00  0.00    +0.000 NA
ATOM      4  N2  UNL     1     -23.185   7.840 -37.927  0.00  0.00    +0.000 N 
ATOM      5  C3  UNL     1     -21.839   7.998 -37.732  0.00  0.00    +0.000 A 
ATOM      6  C4  UNL     1     -24.195   8.850 -37.674  0.00  0.00    +0.000 C 
ATOM      7  C5  UNL     1     -23.588  10.248 -37.553  0.00  0.00    +0.000 C 
ATOM      8  C6  UNL     1     -22.317  10.223 -36.699  0.00  0.00    +0.000 C 
ATOM      9  C7  UNL     1     -21.258   9.303 -37.315  0.00  0.00    +0.000 C 
ENDROOT
TORSDOF 0
ENDMDL
