MODEL 1
REMARK VINA RESULT:    -5.205      0.000      0.000
REMARK INTER + INTRA:          -6.813
REMARK INTER:                  -6.167
REMARK INTRA:                  -0.646
REMARK UNBOUND:                -0.391
REMARK  Name = /home/anacleto/Desktop/manuscript_Mpro/naturecomm/supplementary_file_S2/6-chemical-library/molecular_docking/3D_ligand_structure/654.pdb
REMARK  4 active torsions:
REMARK  status: ('A' for Active; 'I' for Inactive)
REMARK    1  A    between atoms: C6_6  and  N1_7
REMARK    2  A    between atoms: N1_7  and  C7_8
REMARK    3  A    between atoms: C7_8  and  N2_10
REMARK    4  A    between atoms: N2_10  and  C8_11
REMARK                            x       y       z     vdW  Elec       q    Type
REMARK                         _______ _______ _______ _____ _____    ______ ____
ROOT
ATOM      1  C7  UNL     1     -30.295   2.624 -40.922  0.00  0.00    +0.000 C 
ATOM      2  S1  UNL     1     -30.978   2.320 -42.421  0.00  0.00    +0.000 S 
ENDROOT
BRANCH   1   3
ATOM      3  N1  UNL     1     -29.357   1.879 -40.254  0.00  0.00    +0.000 N 
ATOM      4  H6  UNL     1     -29.536   0.884 -40.322  0.00  0.00    +0.000 HD
BRANCH   3  10
ATOM      5  C1  UNL     1     -27.817   2.229 -38.340  0.00  0.00    +0.000 A 
ATOM      6  C2  UNL     1     -26.533   2.549 -37.884  0.00  0.00    +0.000 A 
ATOM      7  C3  UNL     1     -25.520   2.848 -38.792  0.00  0.00    +0.000 A 
ATOM      8  C4  UNL     1     -25.786   2.816 -40.158  0.00  0.00    +0.000 A 
ATOM      9  C5  UNL     1     -27.069   2.495 -40.611  0.00  0.00    +0.000 A 
ATOM     10  C6  UNL     1     -28.103   2.219 -39.706  0.00  0.00    +0.000 A 
ENDBRANCH   3  10
ENDBRANCH   1   3
BRANCH   1  11
ATOM     11  N2  UNL     1     -30.823   3.685 -40.225  0.00  0.00    +0.000 N 
ATOM     12  H7  UNL     1     -31.838   3.671 -40.207  0.00  0.00    +0.000 HD
BRANCH  11  13
ATOM     13  C8  UNL     1     -30.217   4.812 -39.635  0.00  0.00    +0.000 A 
ATOM     14  C9  UNL     1     -30.669   5.185 -38.363  0.00  0.00    +0.000 A 
ATOM     15  C10 UNL     1     -30.128   6.297 -37.713  0.00  0.00    +0.000 A 
ATOM     16  C11 UNL     1     -29.145   7.058 -38.336  0.00  0.00    +0.000 A 
ATOM     17  C12 UNL     1     -28.710   6.715 -39.614  0.00  0.00    +0.000 A 
ATOM     18  C13 UNL     1     -29.250   5.601 -40.264  0.00  0.00    +0.000 A 
ENDBRANCH  11  13
ENDBRANCH   1  11
TORSDOF 4
ENDMDL
MODEL 2
REMARK VINA RESULT:    -5.156      5.525      6.954
REMARK INTER + INTRA:          -6.752
REMARK INTER:                  -6.495
REMARK INTRA:                  -0.257
REMARK UNBOUND:                -0.391
REMARK  Name = /home/anacleto/Desktop/manuscript_Mpro/naturecomm/supplementary_file_S2/6-chemical-library/molecular_docking/3D_ligand_structure/654.pdb
REMARK  4 active torsions:
REMARK  status: ('A' for Active; 'I' for Inactive)
REMARK    1  A    between atoms: C6_6  and  N1_7
REMARK    2  A    between atoms: N1_7  and  C7_8
REMARK    3  A    between atoms: C7_8  and  N2_10
REMARK    4  A    between atoms: N2_10  and  C8_11
REMARK                            x       y       z     vdW  Elec       q    Type
REMARK                         _______ _______ _______ _____ _____    ______ ____
ROOT
ATOM      1  C7  UNL     1     -23.941   5.720 -38.287  0.00  0.00    +0.000 C 
ATOM      2  S1  UNL     1     -24.899   6.836 -39.088  0.00  0.00    +0.000 S 
ENDROOT
BRANCH   1   3
ATOM      3  N1  UNL     1     -22.610   5.819 -37.974  0.00  0.00    +0.000 N 
ATOM      4  H6  UNL     1     -22.193   4.919 -37.773  0.00  0.00    +0.000 HD
BRANCH   3  10
ATOM      5  C1  UNL     1     -21.708   8.037 -37.319  0.00  0.00    +0.000 A 
ATOM      6  C2  UNL     1     -20.735   9.029 -37.494  0.00  0.00    +0.000 A 
ATOM      7  C3  UNL     1     -19.730   8.867 -38.444  0.00  0.00    +0.000 A 
ATOM      8  C4  UNL     1     -19.688   7.708 -39.214  0.00  0.00    +0.000 A 
ATOM      9  C5  UNL     1     -20.660   6.719 -39.037  0.00  0.00    +0.000 A 
ATOM     10  C6  UNL     1     -21.691   6.882 -38.102  0.00  0.00    +0.000 A 
ENDBRANCH   3  10
ENDBRANCH   1   3
BRANCH   1  11
ATOM     11  N2  UNL     1     -24.531   4.508 -38.014  0.00  0.00    +0.000 N 
ATOM     12  H7  UNL     1     -24.089   4.027 -37.236  0.00  0.00    +0.000 HD
BRANCH  11  13
ATOM     13  C8  UNL     1     -25.549   3.792 -38.675  0.00  0.00    +0.000 A 
ATOM     14  C9  UNL     1     -26.722   3.541 -37.954  0.00  0.00    +0.000 A 
ATOM     15  C10 UNL     1     -27.775   2.828 -38.532  0.00  0.00    +0.000 A 
ATOM     16  C11 UNL     1     -27.658   2.343 -39.831  0.00  0.00    +0.000 A 
ATOM     17  C12 UNL     1     -26.483   2.560 -40.547  0.00  0.00    +0.000 A 
ATOM     18  C13 UNL     1     -25.429   3.275 -39.969  0.00  0.00    +0.000 A 
ENDBRANCH  11  13
ENDBRANCH   1  11
TORSDOF 4
ENDMDL
MODEL 3
REMARK VINA RESULT:    -5.145      5.495      7.162
REMARK INTER + INTRA:          -6.739
REMARK INTER:                  -6.489
REMARK INTRA:                  -0.251
REMARK UNBOUND:                -0.391
REMARK  Name = /home/anacleto/Desktop/manuscript_Mpro/naturecomm/supplementary_file_S2/6-chemical-library/molecular_docking/3D_ligand_structure/654.pdb
REMARK  4 active torsions:
REMARK  status: ('A' for Active; 'I' for Inactive)
REMARK    1  A    between atoms: C6_6  and  N1_7
REMARK    2  A    between atoms: N1_7  and  C7_8
REMARK    3  A    between atoms: C7_8  and  N2_10
REMARK    4  A    between atoms: N2_10  and  C8_11
REMARK                            x       y       z     vdW  Elec       q    Type
REMARK                         _______ _______ _______ _____ _____    ______ ____
ROOT
ATOM      1  C7  UNL     1     -23.936   5.633 -38.297  0.00  0.00    +0.000 C 
ATOM      2  S1  UNL     1     -24.644   6.975 -39.005  0.00  0.00    +0.000 S 
ENDROOT
BRANCH   1   3
ATOM      3  N1  UNL     1     -24.513   4.420 -38.022  0.00  0.00    +0.000 N 
ATOM      4  H6  UNL     1     -24.255   4.069 -37.108  0.00  0.00    +0.000 HD
BRANCH   3  10
ATOM      5  C1  UNL     1     -25.536   3.335 -40.006  0.00  0.00    +0.000 A 
ATOM      6  C2  UNL     1     -26.594   2.597 -40.550  0.00  0.00    +0.000 A 
ATOM      7  C3  UNL     1     -27.666   2.211 -39.749  0.00  0.00    +0.000 A 
ATOM      8  C4  UNL     1     -27.678   2.553 -38.400  0.00  0.00    +0.000 A 
ATOM      9  C5  UNL     1     -26.619   3.289 -37.858  0.00  0.00    +0.000 A 
ATOM     10  C6  UNL     1     -25.548   3.705 -38.660  0.00  0.00    +0.000 A 
ENDBRANCH   3  10
ENDBRANCH   1   3
BRANCH   1  11
ATOM     11  N2  UNL     1     -22.655   5.806 -37.828  0.00  0.00    +0.000 N 
ATOM     12  H7  UNL     1     -22.412   5.136 -37.104  0.00  0.00    +0.000 HD
BRANCH  11  13
ATOM     13  C8  UNL     1     -21.684   6.791 -38.098  0.00  0.00    +0.000 A 
ATOM     14  C9  UNL     1     -20.833   6.564 -39.186  0.00  0.00    +0.000 A 
ATOM     15  C10 UNL     1     -19.835   7.486 -39.515  0.00  0.00    +0.000 A 
ATOM     16  C11 UNL     1     -19.668   8.634 -38.748  0.00  0.00    +0.000 A 
ATOM     17  C12 UNL     1     -20.489   8.855 -37.645  0.00  0.00    +0.000 A 
ATOM     18  C13 UNL     1     -21.488   7.933 -37.316  0.00  0.00    +0.000 A 
ENDBRANCH  11  13
ENDBRANCH   1  11
TORSDOF 4
ENDMDL
MODEL 4
REMARK VINA RESULT:    -5.071      5.232      6.608
REMARK INTER + INTRA:          -6.648
REMARK INTER:                  -6.310
REMARK INTRA:                  -0.338
REMARK UNBOUND:                -0.391
REMARK  Name = /home/anacleto/Desktop/manuscript_Mpro/naturecomm/supplementary_file_S2/6-chemical-library/molecular_docking/3D_ligand_structure/654.pdb
REMARK  4 active torsions:
REMARK  status: ('A' for Active; 'I' for Inactive)
REMARK    1  A    between atoms: C6_6  and  N1_7
REMARK    2  A    between atoms: N1_7  and  C7_8
REMARK    3  A    between atoms: C7_8  and  N2_10
REMARK    4  A    between atoms: N2_10  and  C8_11
REMARK                            x       y       z     vdW  Elec       q    Type
REMARK                         _______ _______ _______ _____ _____    ______ ____
ROOT
ATOM      1  C7  UNL     1     -24.338   5.964 -39.509  0.00  0.00    +0.000 C 
ATOM      2  S1  UNL     1     -23.792   5.716 -41.073  0.00  0.00    +0.000 S 
ENDROOT
BRANCH   1   3
ATOM      3  N1  UNL     1     -24.393   7.143 -38.811  0.00  0.00    +0.000 N 
ATOM      4  H6  UNL     1     -25.344   7.445 -38.639  0.00  0.00    +0.000 HD
BRANCH   3  10
ATOM      5  C1  UNL     1     -22.073   7.470 -37.990  0.00  0.00    +0.000 A 
ATOM      6  C2  UNL     1     -21.152   8.267 -37.301  0.00  0.00    +0.000 A 
ATOM      7  C3  UNL     1     -21.553   9.476 -36.737  0.00  0.00    +0.000 A 
ATOM      8  C4  UNL     1     -22.874   9.895 -36.871  0.00  0.00    +0.000 A 
ATOM      9  C5  UNL     1     -23.792   9.097 -37.560  0.00  0.00    +0.000 A 
ATOM     10  C6  UNL     1     -23.406   7.867 -38.109  0.00  0.00    +0.000 A 
ENDBRANCH   3  10
ENDBRANCH   1   3
BRANCH   1  11
ATOM     11  N2  UNL     1     -24.660   4.832 -38.798  0.00  0.00    +0.000 N 
ATOM     12  H7  UNL     1     -23.844   4.379 -38.398  0.00  0.00    +0.000 HD
BRANCH  11  13
ATOM     13  C8  UNL     1     -25.883   4.154 -38.622  0.00  0.00    +0.000 A 
ATOM     14  C9  UNL     1     -25.816   2.822 -38.198  0.00  0.00    +0.000 A 
ATOM     15  C10 UNL     1     -26.982   2.074 -38.009  0.00  0.00    +0.000 A 
ATOM     16  C11 UNL     1     -28.224   2.647 -38.261  0.00  0.00    +0.000 A 
ATOM     17  C12 UNL     1     -28.301   3.962 -38.713  0.00  0.00    +0.000 A 
ATOM     18  C13 UNL     1     -27.135   4.711 -38.900  0.00  0.00    +0.000 A 
ENDBRANCH  11  13
ENDBRANCH   1  11
TORSDOF 4
ENDMDL
MODEL 5
REMARK VINA RESULT:    -5.040      5.325      6.396
REMARK INTER + INTRA:          -6.609
REMARK INTER:                  -6.295
REMARK INTRA:                  -0.314
REMARK UNBOUND:                -0.391
REMARK  Name = /home/anacleto/Desktop/manuscript_Mpro/naturecomm/supplementary_file_S2/6-chemical-library/molecular_docking/3D_ligand_structure/654.pdb
REMARK  4 active torsions:
REMARK  status: ('A' for Active; 'I' for Inactive)
REMARK    1  A    between atoms: C6_6  and  N1_7
REMARK    2  A    between atoms: N1_7  and  C7_8
REMARK    3  A    between atoms: C7_8  and  N2_10
REMARK    4  A    between atoms: N2_10  and  C8_11
REMARK                            x       y       z     vdW  Elec       q    Type
REMARK                         _______ _______ _______ _____ _____    ______ ____
ROOT
ATOM      1  C7  UNL     1     -24.056   6.030 -39.715  0.00  0.00    +0.000 C 
ATOM      2  S1  UNL     1     -23.332   6.093 -41.224  0.00  0.00    +0.000 S 
ENDROOT
BRANCH   1   3
ATOM      3  N1  UNL     1     -25.379   5.822 -39.421  0.00  0.00    +0.000 N 
ATOM      4  H6  UNL     1     -25.964   6.598 -39.707  0.00  0.00    +0.000 HD
BRANCH   3  10
ATOM      5  C1  UNL     1     -25.479   3.476 -38.618  0.00  0.00    +0.000 A 
ATOM      6  C2  UNL     1     -26.256   2.388 -38.204  0.00  0.00    +0.000 A 
ATOM      7  C3  UNL     1     -27.645   2.487 -38.175  0.00  0.00    +0.000 A 
ATOM      8  C4  UNL     1     -28.259   3.679 -38.550  0.00  0.00    +0.000 A 
ATOM      9  C5  UNL     1     -27.481   4.765 -38.962  0.00  0.00    +0.000 A 
ATOM     10  C6  UNL     1     -26.084   4.667 -39.020  0.00  0.00    +0.000 A 
ENDBRANCH   3  10
ENDBRANCH   1   3
BRANCH   1  11
ATOM     11  N2  UNL     1     -23.248   6.338 -38.647  0.00  0.00    +0.000 N 
ATOM     12  H7  UNL     1     -22.902   5.512 -38.169  0.00  0.00    +0.000 HD
BRANCH  11  13
ATOM     13  C8  UNL     1     -22.910   7.572 -38.053  0.00  0.00    +0.000 A 
ATOM     14  C9  UNL     1     -21.582   7.738 -37.645  0.00  0.00    +0.000 A 
ATOM     15  C10 UNL     1     -21.166   8.927 -37.038  0.00  0.00    +0.000 A 
ATOM     16  C11 UNL     1     -22.081   9.952 -36.818  0.00  0.00    +0.000 A 
ATOM     17  C12 UNL     1     -23.412   9.785 -37.192  0.00  0.00    +0.000 A 
ATOM     18  C13 UNL     1     -23.827   8.596 -37.801  0.00  0.00    +0.000 A 
ENDBRANCH  11  13
ENDBRANCH   1  11
TORSDOF 4
ENDMDL
MODEL 6
REMARK VINA RESULT:    -4.950      4.932      6.179
REMARK INTER + INTRA:          -6.499
REMARK INTER:                  -6.041
REMARK INTRA:                  -0.457
REMARK UNBOUND:                -0.391
REMARK  Name = /home/anacleto/Desktop/manuscript_Mpro/naturecomm/supplementary_file_S2/6-chemical-library/molecular_docking/3D_ligand_structure/654.pdb
REMARK  4 active torsions:
REMARK  status: ('A' for Active; 'I' for Inactive)
REMARK    1  A    between atoms: C6_6  and  N1_7
REMARK    2  A    between atoms: N1_7  and  C7_8
REMARK    3  A    between atoms: C7_8  and  N2_10
REMARK    4  A    between atoms: N2_10  and  C8_11
REMARK                            x       y       z     vdW  Elec       q    Type
REMARK                         _______ _______ _______ _____ _____    ______ ____
ROOT
ATOM      1  C7  UNL     1     -25.670   7.202 -39.594  0.00  0.00    +0.000 C 
ATOM      2  S1  UNL     1     -25.269   8.005 -41.008  0.00  0.00    +0.000 S 
ENDROOT
BRANCH   1   3
ATOM      3  N1  UNL     1     -26.683   6.300 -39.393  0.00  0.00    +0.000 N 
ATOM      4  H6  UNL     1     -27.573   6.637 -39.739  0.00  0.00    +0.000 HD
BRANCH   3  10
ATOM      5  C1  UNL     1     -25.520   4.155 -38.938  0.00  0.00    +0.000 A 
ATOM      6  C2  UNL     1     -25.596   2.821 -38.522  0.00  0.00    +0.000 A 
ATOM      7  C3  UNL     1     -26.822   2.265 -38.166  0.00  0.00    +0.000 A 
ATOM      8  C4  UNL     1     -27.973   3.046 -38.215  0.00  0.00    +0.000 A 
ATOM      9  C5  UNL     1     -27.895   4.379 -38.630  0.00  0.00    +0.000 A 
ATOM     10  C6  UNL     1     -26.670   4.941 -39.015  0.00  0.00    +0.000 A 
ENDBRANCH   3  10
ENDBRANCH   1   3
BRANCH   1  11
ATOM     11  N2  UNL     1     -24.973   7.579 -38.471  0.00  0.00    +0.000 N 
ATOM     12  H7  UNL     1     -25.583   7.886 -37.719  0.00  0.00    +0.000 HD
BRANCH  11  13
ATOM     13  C8  UNL     1     -23.591   7.708 -38.225  0.00  0.00    +0.000 A 
ATOM     14  C9  UNL     1     -22.802   6.568 -38.413  0.00  0.00    +0.000 A 
ATOM     15  C10 UNL     1     -21.425   6.607 -38.181  0.00  0.00    +0.000 A 
ATOM     16  C11 UNL     1     -20.827   7.783 -37.740  0.00  0.00    +0.000 A 
ATOM     17  C12 UNL     1     -21.607   8.916 -37.519  0.00  0.00    +0.000 A 
ATOM     18  C13 UNL     1     -22.985   8.876 -37.753  0.00  0.00    +0.000 A 
ENDBRANCH  11  13
ENDBRANCH   1  11
TORSDOF 4
ENDMDL
MODEL 7
REMARK VINA RESULT:    -4.933      4.949      6.227
REMARK INTER + INTRA:          -6.478
REMARK INTER:                  -5.986
REMARK INTRA:                  -0.492
REMARK UNBOUND:                -0.391
REMARK  Name = /home/anacleto/Desktop/manuscript_Mpro/naturecomm/supplementary_file_S2/6-chemical-library/molecular_docking/3D_ligand_structure/654.pdb
REMARK  4 active torsions:
REMARK  status: ('A' for Active; 'I' for Inactive)
REMARK    1  A    between atoms: C6_6  and  N1_7
REMARK    2  A    between atoms: N1_7  and  C7_8
REMARK    3  A    between atoms: C7_8  and  N2_10
REMARK    4  A    between atoms: N2_10  and  C8_11
REMARK                            x       y       z     vdW  Elec       q    Type
REMARK                         _______ _______ _______ _____ _____    ______ ____
ROOT
ATOM      1  C7  UNL     1     -25.750   7.312 -39.634  0.00  0.00    +0.000 C 
ATOM      2  S1  UNL     1     -25.313   7.491 -41.242  0.00  0.00    +0.000 S 
ENDROOT
BRANCH   1   3
ATOM      3  N1  UNL     1     -25.161   7.874 -38.532  0.00  0.00    +0.000 N 
ATOM      4  H6  UNL     1     -25.838   8.140 -37.827  0.00  0.00    +0.000 HD
BRANCH   3  10
ATOM      5  C1  UNL     1     -22.886   6.911 -38.296  0.00  0.00    +0.000 A 
ATOM      6  C2  UNL     1     -21.560   7.070 -37.877  0.00  0.00    +0.000 A 
ATOM      7  C3  UNL     1     -21.149   8.261 -37.284  0.00  0.00    +0.000 A 
ATOM      8  C4  UNL     1     -22.060   9.299 -37.119  0.00  0.00    +0.000 A 
ATOM      9  C5  UNL     1     -23.384   9.139 -37.539  0.00  0.00    +0.000 A 
ATOM     10  C6  UNL     1     -23.815   7.935 -38.113  0.00  0.00    +0.000 A 
ENDBRANCH   3  10
ENDBRANCH   1   3
BRANCH   1  11
ATOM     11  N2  UNL     1     -26.746   6.399 -39.381  0.00  0.00    +0.000 N 
ATOM     12  H7  UNL     1     -27.671   6.819 -39.396  0.00  0.00    +0.000 HD
BRANCH  11  13
ATOM     13  C8  UNL     1     -26.699   5.040 -39.011  0.00  0.00    +0.000 A 
ATOM     14  C9  UNL     1     -27.907   4.440 -38.635  0.00  0.00    +0.000 A 
ATOM     15  C10 UNL     1     -27.946   3.099 -38.244  0.00  0.00    +0.000 A 
ATOM     16  C11 UNL     1     -26.774   2.351 -38.208  0.00  0.00    +0.000 A 
ATOM     17  C12 UNL     1     -25.562   2.945 -38.550  0.00  0.00    +0.000 A 
ATOM     18  C13 UNL     1     -25.523   4.287 -38.942  0.00  0.00    +0.000 A 
ENDBRANCH  11  13
ENDBRANCH   1  11
TORSDOF 4
ENDMDL
MODEL 8
REMARK VINA RESULT:    -4.893     11.226     12.741
REMARK INTER + INTRA:          -6.429
REMARK INTER:                  -5.884
REMARK INTRA:                  -0.545
REMARK UNBOUND:                -0.391
REMARK  Name = /home/anacleto/Desktop/manuscript_Mpro/naturecomm/supplementary_file_S2/6-chemical-library/molecular_docking/3D_ligand_structure/654.pdb
REMARK  4 active torsions:
REMARK  status: ('A' for Active; 'I' for Inactive)
REMARK    1  A    between atoms: C6_6  and  N1_7
REMARK    2  A    between atoms: N1_7  and  C7_8
REMARK    3  A    between atoms: C7_8  and  N2_10
REMARK    4  A    between atoms: N2_10  and  C8_11
REMARK                            x       y       z     vdW  Elec       q    Type
REMARK                         _______ _______ _______ _____ _____    ______ ____
ROOT
ATOM      1  C7  UNL     1     -17.980  10.586 -38.672  0.00  0.00    +0.000 C 
ATOM      2  S1  UNL     1     -19.049  11.673 -39.366  0.00  0.00    +0.000 S 
ENDROOT
BRANCH   1   3
ATOM      3  N1  UNL     1     -16.623  10.506 -38.849  0.00  0.00    +0.000 N 
ATOM      4  H6  UNL     1     -16.109  10.901 -38.072  0.00  0.00    +0.000 HD
BRANCH   3  10
ATOM      5  C1  UNL     1     -16.330   9.210 -40.946  0.00  0.00    +0.000 A 
ATOM      6  C2  UNL     1     -15.471   8.543 -41.827  0.00  0.00    +0.000 A 
ATOM      7  C3  UNL     1     -14.108   8.463 -41.552  0.00  0.00    +0.000 A 
ATOM      8  C4  UNL     1     -13.600   9.058 -40.401  0.00  0.00    +0.000 A 
ATOM      9  C5  UNL     1     -14.460   9.725 -39.523  0.00  0.00    +0.000 A 
ATOM     10  C6  UNL     1     -15.837   9.790 -39.776  0.00  0.00    +0.000 A 
ENDBRANCH   3  10
ENDBRANCH   1   3
BRANCH   1  11
ATOM     11  N2  UNL     1     -18.547   9.580 -37.926  0.00  0.00    +0.000 N 
ATOM     12  H7  UNL     1     -18.104   9.474 -37.018  0.00  0.00    +0.000 HD
BRANCH  11  13
ATOM     13  C8  UNL     1     -19.540   8.629 -38.236  0.00  0.00    +0.000 A 
ATOM     14  C9  UNL     1     -19.265   7.739 -39.279  0.00  0.00    +0.000 A 
ATOM     15  C10 UNL     1     -20.201   6.772 -39.657  0.00  0.00    +0.000 A 
ATOM     16  C11 UNL     1     -21.429   6.701 -39.007  0.00  0.00    +0.000 A 
ATOM     17  C12 UNL     1     -21.726   7.602 -37.988  0.00  0.00    +0.000 A 
ATOM     18  C13 UNL     1     -20.788   8.568 -37.608  0.00  0.00    +0.000 A 
ENDBRANCH  11  13
ENDBRANCH   1  11
TORSDOF 4
ENDMDL
MODEL 9
REMARK VINA RESULT:    -4.881      9.804     11.381
REMARK INTER + INTRA:          -6.414
REMARK INTER:                  -6.023
REMARK INTRA:                  -0.391
REMARK UNBOUND:                -0.391
REMARK  Name = /home/anacleto/Desktop/manuscript_Mpro/naturecomm/supplementary_file_S2/6-chemical-library/molecular_docking/3D_ligand_structure/654.pdb
REMARK  4 active torsions:
REMARK  status: ('A' for Active; 'I' for Inactive)
REMARK    1  A    between atoms: C6_6  and  N1_7
REMARK    2  A    between atoms: N1_7  and  C7_8
REMARK    3  A    between atoms: C7_8  and  N2_10
REMARK    4  A    between atoms: N2_10  and  C8_11
REMARK                            x       y       z     vdW  Elec       q    Type
REMARK                         _______ _______ _______ _____ _____    ______ ____
ROOT
ATOM      1  C7  UNL     1     -34.717  -4.484 -36.615  0.00  0.00    +0.000 C 
ATOM      2  S1  UNL     1     -35.944  -5.589 -36.332  0.00  0.00    +0.000 S 
ENDROOT
BRANCH   1   3
ATOM      3  N1  UNL     1     -34.713  -3.140 -36.348  0.00  0.00    +0.000 N 
ATOM      4  H6  UNL     1     -33.825  -2.822 -35.980  0.00  0.00    +0.000 HD
BRANCH   3  10
ATOM      5  C1  UNL     1     -36.418  -2.121 -37.837  0.00  0.00    +0.000 A 
ATOM      6  C2  UNL     1     -37.306  -1.069 -38.090  0.00  0.00    +0.000 A 
ATOM      7  C3  UNL     1     -37.404  -0.002 -37.200  0.00  0.00    +0.000 A 
ATOM      8  C4  UNL     1     -36.622   0.008 -36.048  0.00  0.00    +0.000 A 
ATOM      9  C5  UNL     1     -35.737  -1.044 -35.797  0.00  0.00    +0.000 A 
ATOM     10  C6  UNL     1     -35.611  -2.109 -36.699  0.00  0.00    +0.000 A 
ENDBRANCH   3  10
ENDBRANCH   1   3
BRANCH   1  11
ATOM     11  N2  UNL     1     -33.627  -4.960 -37.305  0.00  0.00    +0.000 N 
ATOM     12  H7  UNL     1     -32.754  -4.799 -36.812  0.00  0.00    +0.000 HD
BRANCH  11  13
ATOM     13  C8  UNL     1     -33.506  -5.526 -38.590  0.00  0.00    +0.000 A 
ATOM     14  C9  UNL     1     -32.538  -6.523 -38.758  0.00  0.00    +0.000 A 
ATOM     15  C10 UNL     1     -32.346  -7.127 -40.003  0.00  0.00    +0.000 A 
ATOM     16  C11 UNL     1     -33.107  -6.726 -41.097  0.00  0.00    +0.000 A 
ATOM     17  C12 UNL     1     -34.051  -5.712 -40.948  0.00  0.00    +0.000 A 
ATOM     18  C13 UNL     1     -34.244  -5.109 -39.702  0.00  0.00    +0.000 A 
ENDBRANCH  11  13
ENDBRANCH   1  11
TORSDOF 4
ENDMDL
