MODEL 1
REMARK VINA RESULT:    -4.929      0.000      0.000
REMARK INTER + INTRA:          -4.929
REMARK INTER:                  -4.929
REMARK INTRA:                   0.000
REMARK UNBOUND:                 0.000
REMARK  Name = /home/anacleto/Desktop/manuscript_Mpro/naturecomm/supplementary_file_S2/6-chemical-library/molecular_docking/3D_ligand_structure/1429.pdb
REMARK  0 active torsions:
REMARK  status: ('A' for Active; 'I' for Inactive)
REMARK                            x       y       z     vdW  Elec       q    Type
REMARK                         _______ _______ _______ _____ _____    ______ ____
ROOT
ATOM      1  C1  UNL     1     -22.650   5.896 -37.545  0.00  0.00    +0.000 C 
ATOM      2  N1  UNL     1     -23.766   4.939 -37.556  0.00  0.00    +0.000 NA
ATOM      3  C2  UNL     1     -24.366   5.046 -38.882  0.00  0.00    +0.000 C 
ATOM      4  C3  UNL     1     -24.367   6.544 -39.119  0.00  0.00    +0.000 C 
ATOM      5  C4  UNL     1     -22.995   6.988 -38.591  0.00  0.00    +0.000 C 
ATOM      6  C5  UNL     1     -23.077   8.400 -38.025  0.00  0.00    +0.000 C 
ATOM      7  C6  UNL     1     -21.704   8.872 -37.642  0.00  0.00    +0.000 C 
ATOM      8  O1  UNL     1     -21.507   9.649 -36.714  0.00  0.00    +0.000 OA
ATOM      9  C7  UNL     1     -20.593   8.401 -38.489  0.00  0.00    +0.000 A 
ATOM     10  C8  UNL     1     -20.860   7.471 -39.491  0.00  0.00    +0.000 A 
ATOM     11  O2  UNL     1     -22.090   6.916 -39.712  0.00  0.00    +0.000 OA
ATOM     12  C9  UNL     1     -19.835   7.067 -40.347  0.00  0.00    +0.000 A 
ATOM     13  C10 UNL     1     -18.544   7.570 -40.178  0.00  0.00    +0.000 A 
ATOM     14  C11 UNL     1     -18.275   8.484 -39.158  0.00  0.00    +0.000 A 
ATOM     15  C12 UNL     1     -19.301   8.905 -38.312  0.00  0.00    +0.000 A 
ATOM     16  H3  UNL     1     -23.431   3.992 -37.384  0.00  0.00    +0.000 HD
ENDROOT
TORSDOF 0
ENDMDL
MODEL 2
REMARK VINA RESULT:    -4.837     15.869     17.677
REMARK INTER + INTRA:          -4.837
REMARK INTER:                  -4.837
REMARK INTRA:                   0.000
REMARK UNBOUND:                 0.000
REMARK  Name = /home/anacleto/Desktop/manuscript_Mpro/naturecomm/supplementary_file_S2/6-chemical-library/molecular_docking/3D_ligand_structure/1429.pdb
REMARK  0 active torsions:
REMARK  status: ('A' for Active; 'I' for Inactive)
REMARK                            x       y       z     vdW  Elec       q    Type
REMARK                         _______ _______ _______ _____ _____    ______ ____
ROOT
ATOM      1  C1  UNL     1     -24.218  -2.872 -24.041  0.00  0.00    +0.000 C 
ATOM      2  N1  UNL     1     -23.671  -2.738 -22.683  0.00  0.00    +0.000 NA
ATOM      3  C2  UNL     1     -22.637  -3.761 -22.570  0.00  0.00    +0.000 C 
ATOM      4  C3  UNL     1     -23.285  -4.955 -23.243  0.00  0.00    +0.000 C 
ATOM      5  C4  UNL     1     -23.970  -4.340 -24.473  0.00  0.00    +0.000 C 
ATOM      6  C5  UNL     1     -25.233  -5.119 -24.820  0.00  0.00    +0.000 C 
ATOM      7  C6  UNL     1     -25.813  -4.594 -26.102  0.00  0.00    +0.000 C 
ATOM      8  O1  UNL     1     -27.018  -4.601 -26.333  0.00  0.00    +0.000 OA
ATOM      9  C7  UNL     1     -24.847  -4.127 -27.111  0.00  0.00    +0.000 A 
ATOM     10  C8  UNL     1     -23.495  -4.082 -26.778  0.00  0.00    +0.000 A 
ATOM     11  O2  UNL     1     -23.001  -4.395 -25.541  0.00  0.00    +0.000 OA
ATOM     12  C9  UNL     1     -22.558  -3.708 -27.742  0.00  0.00    +0.000 A 
ATOM     13  C10 UNL     1     -22.980  -3.352 -29.025  0.00  0.00    +0.000 A 
ATOM     14  C11 UNL     1     -24.337  -3.377 -29.349  0.00  0.00    +0.000 A 
ATOM     15  C12 UNL     1     -25.275  -3.767 -28.393  0.00  0.00    +0.000 A 
ATOM     16  H3  UNL     1     -23.279  -1.808 -22.542  0.00  0.00    +0.000 HD
ENDROOT
TORSDOF 0
ENDMDL
MODEL 3
REMARK VINA RESULT:    -4.763      5.429      7.191
REMARK INTER + INTRA:          -4.763
REMARK INTER:                  -4.763
REMARK INTRA:                   0.000
REMARK UNBOUND:                 0.000
REMARK  Name = /home/anacleto/Desktop/manuscript_Mpro/naturecomm/supplementary_file_S2/6-chemical-library/molecular_docking/3D_ligand_structure/1429.pdb
REMARK  0 active torsions:
REMARK  status: ('A' for Active; 'I' for Inactive)
REMARK                            x       y       z     vdW  Elec       q    Type
REMARK                         _______ _______ _______ _____ _____    ______ ____
ROOT
ATOM      1  C1  UNL     1     -29.800   5.675 -38.000  0.00  0.00    +0.000 C 
ATOM      2  N1  UNL     1     -31.269   5.676 -37.951  0.00  0.00    +0.000 NA
ATOM      3  C2  UNL     1     -31.705   4.951 -39.140  0.00  0.00    +0.000 C 
ATOM      4  C3  UNL     1     -30.767   5.482 -40.207  0.00  0.00    +0.000 C 
ATOM      5  C4  UNL     1     -29.408   5.529 -39.493  0.00  0.00    +0.000 C 
ATOM      6  C5  UNL     1     -28.563   6.673 -40.039  0.00  0.00    +0.000 C 
ATOM      7  C6  UNL     1     -27.190   6.621 -39.432  0.00  0.00    +0.000 C 
ATOM      8  O1  UNL     1     -26.520   7.627 -39.227  0.00  0.00    +0.000 OA
ATOM      9  C7  UNL     1     -26.652   5.278 -39.153  0.00  0.00    +0.000 A 
ATOM     10  C8  UNL     1     -27.475   4.171 -39.345  0.00  0.00    +0.000 A 
ATOM     11  O2  UNL     1     -28.786   4.249 -39.729  0.00  0.00    +0.000 OA
ATOM     12  C9  UNL     1     -26.962   2.887 -39.152  0.00  0.00    +0.000 A 
ATOM     13  C10 UNL     1     -25.639   2.719 -38.740  0.00  0.00    +0.000 A 
ATOM     14  C11 UNL     1     -24.824   3.831 -38.527  0.00  0.00    +0.000 A 
ATOM     15  C12 UNL     1     -25.327   5.115 -38.736  0.00  0.00    +0.000 A 
ATOM     16  H3  UNL     1     -31.603   5.219 -37.104  0.00  0.00    +0.000 HD
ENDROOT
TORSDOF 0
ENDMDL
MODEL 4
REMARK VINA RESULT:    -4.728     15.536     17.715
REMARK INTER + INTRA:          -4.728
REMARK INTER:                  -4.728
REMARK INTRA:                   0.000
REMARK UNBOUND:                 0.000
REMARK  Name = /home/anacleto/Desktop/manuscript_Mpro/naturecomm/supplementary_file_S2/6-chemical-library/molecular_docking/3D_ligand_structure/1429.pdb
REMARK  0 active torsions:
REMARK  status: ('A' for Active; 'I' for Inactive)
REMARK                            x       y       z     vdW  Elec       q    Type
REMARK                         _______ _______ _______ _____ _____    ______ ____
ROOT
ATOM      1  C1  UNL     1     -24.751  -5.560 -29.190  0.00  0.00    +0.000 C 
ATOM      2  N1  UNL     1     -23.452  -5.554 -29.879  0.00  0.00    +0.000 NA
ATOM      3  C2  UNL     1     -22.555  -4.781 -29.027  0.00  0.00    +0.000 C 
ATOM      4  C3  UNL     1     -23.433  -3.621 -28.597  0.00  0.00    +0.000 C 
ATOM      5  C4  UNL     1     -24.784  -4.290 -28.301  0.00  0.00    +0.000 C 
ATOM      6  C5  UNL     1     -25.928  -3.332 -28.611  0.00  0.00    +0.000 C 
ATOM      7  C6  UNL     1     -27.231  -3.946 -28.187  0.00  0.00    +0.000 C 
ATOM      8  O1  UNL     1     -28.288  -3.719 -28.765  0.00  0.00    +0.000 OA
ATOM      9  C7  UNL     1     -27.188  -4.795 -26.983  0.00  0.00    +0.000 A 
ATOM     10  C8  UNL     1     -25.955  -5.073 -26.399  0.00  0.00    +0.000 A 
ATOM     11  O2  UNL     1     -24.756  -4.650 -26.905  0.00  0.00    +0.000 OA
ATOM     12  C9  UNL     1     -25.901  -5.818 -25.221  0.00  0.00    +0.000 A 
ATOM     13  C10 UNL     1     -27.077  -6.307 -24.649  0.00  0.00    +0.000 A 
ATOM     14  C11 UNL     1     -28.310  -6.045 -25.249  0.00  0.00    +0.000 A 
ATOM     15  C12 UNL     1     -28.370  -5.286 -26.417  0.00  0.00    +0.000 A 
ATOM     16  H3  UNL     1     -23.106  -6.504 -30.004  0.00  0.00    +0.000 HD
ENDROOT
TORSDOF 0
ENDMDL
MODEL 5
REMARK VINA RESULT:    -4.648     16.823     18.648
REMARK INTER + INTRA:          -4.648
REMARK INTER:                  -4.648
REMARK INTRA:                   0.000
REMARK UNBOUND:                 0.000
REMARK  Name = /home/anacleto/Desktop/manuscript_Mpro/naturecomm/supplementary_file_S2/6-chemical-library/molecular_docking/3D_ligand_structure/1429.pdb
REMARK  0 active torsions:
REMARK  status: ('A' for Active; 'I' for Inactive)
REMARK                            x       y       z     vdW  Elec       q    Type
REMARK                         _______ _______ _______ _____ _____    ______ ____
ROOT
ATOM      1  C1  UNL     1     -24.618  -5.032 -27.277  0.00  0.00    +0.000 C 
ATOM      2  N1  UNL     1     -24.934  -4.678 -28.668  0.00  0.00    +0.000 NA
ATOM      3  C2  UNL     1     -25.784  -3.494 -28.592  0.00  0.00    +0.000 C 
ATOM      4  C3  UNL     1     -26.711  -3.833 -27.440  0.00  0.00    +0.000 C 
ATOM      5  C4  UNL     1     -25.772  -4.473 -26.406  0.00  0.00    +0.000 C 
ATOM      6  C5  UNL     1     -26.518  -5.525 -25.594  0.00  0.00    +0.000 C 
ATOM      7  C6  UNL     1     -25.629  -6.041 -24.499  0.00  0.00    +0.000 C 
ATOM      8  O1  UNL     1     -25.702  -7.189 -24.075  0.00  0.00    +0.000 OA
ATOM      9  C7  UNL     1     -24.698  -5.067 -23.902  0.00  0.00    +0.000 A 
ATOM     10  C8  UNL     1     -24.610  -3.793 -24.459  0.00  0.00    +0.000 A 
ATOM     11  O2  UNL     1     -25.299  -3.395 -25.572  0.00  0.00    +0.000 OA
ATOM     12  C9  UNL     1     -23.785  -2.836 -23.866  0.00  0.00    +0.000 A 
ATOM     13  C10 UNL     1     -23.031  -3.166 -22.738  0.00  0.00    +0.000 A 
ATOM     14  C11 UNL     1     -23.105  -4.450 -22.196  0.00  0.00    +0.000 A 
ATOM     15  C12 UNL     1     -23.942  -5.404 -22.775  0.00  0.00    +0.000 A 
ATOM     16  H3  UNL     1     -24.083  -4.481 -29.193  0.00  0.00    +0.000 HD
ENDROOT
TORSDOF 0
ENDMDL
MODEL 6
REMARK VINA RESULT:    -4.611     15.515     17.491
REMARK INTER + INTRA:          -4.611
REMARK INTER:                  -4.611
REMARK INTRA:                   0.000
REMARK UNBOUND:                 0.000
REMARK  Name = /home/anacleto/Desktop/manuscript_Mpro/naturecomm/supplementary_file_S2/6-chemical-library/molecular_docking/3D_ligand_structure/1429.pdb
REMARK  0 active torsions:
REMARK  status: ('A' for Active; 'I' for Inactive)
REMARK                            x       y       z     vdW  Elec       q    Type
REMARK                         _______ _______ _______ _____ _____    ______ ____
ROOT
ATOM      1  C1  UNL     1     -21.148  -6.122 -28.091  0.00  0.00    +0.000 C 
ATOM      2  N1  UNL     1     -19.821  -6.676 -28.395  0.00  0.00    +0.000 NA
ATOM      3  C2  UNL     1     -18.897  -6.019 -27.477  0.00  0.00    +0.000 C 
ATOM      4  C3  UNL     1     -19.380  -4.581 -27.503  0.00  0.00    +0.000 C 
ATOM      5  C4  UNL     1     -20.909  -4.721 -27.473  0.00  0.00    +0.000 C 
ATOM      6  C5  UNL     1     -21.560  -3.574 -28.237  0.00  0.00    +0.000 C 
ATOM      7  C6  UNL     1     -23.052  -3.646 -28.081  0.00  0.00    +0.000 C 
ATOM      8  O1  UNL     1     -23.826  -3.265 -28.952  0.00  0.00    +0.000 OA
ATOM      9  C7  UNL     1     -23.548  -4.141 -26.785  0.00  0.00    +0.000 A 
ATOM     10  C8  UNL     1     -22.632  -4.619 -25.852  0.00  0.00    +0.000 A 
ATOM     11  O2  UNL     1     -21.286  -4.713 -26.080  0.00  0.00    +0.000 OA
ATOM     12  C9  UNL     1     -23.076  -5.027 -24.594  0.00  0.00    +0.000 A 
ATOM     13  C10 UNL     1     -24.437  -4.983 -24.286  0.00  0.00    +0.000 A 
ATOM     14  C11 UNL     1     -25.356  -4.525 -25.231  0.00  0.00    +0.000 A 
ATOM     15  C12 UNL     1     -24.914  -4.099 -26.483  0.00  0.00    +0.000 A 
ATOM     16  H3  UNL     1     -19.811  -7.686 -28.259  0.00  0.00    +0.000 HD
ENDROOT
TORSDOF 0
ENDMDL
MODEL 7
REMARK VINA RESULT:    -4.490      5.276      7.157
REMARK INTER + INTRA:          -4.490
REMARK INTER:                  -4.490
REMARK INTRA:                   0.000
REMARK UNBOUND:                 0.000
REMARK  Name = /home/anacleto/Desktop/manuscript_Mpro/naturecomm/supplementary_file_S2/6-chemical-library/molecular_docking/3D_ligand_structure/1429.pdb
REMARK  0 active torsions:
REMARK  status: ('A' for Active; 'I' for Inactive)
REMARK                            x       y       z     vdW  Elec       q    Type
REMARK                         _______ _______ _______ _____ _____    ______ ____
ROOT
ATOM      1  C1  UNL     1     -28.393   7.256 -38.665  0.00  0.00    +0.000 C 
ATOM      2  N1  UNL     1     -29.411   8.271 -38.970  0.00  0.00    +0.000 NA
ATOM      3  C2  UNL     1     -30.059   7.826 -40.200  0.00  0.00    +0.000 C 
ATOM      4  C3  UNL     1     -28.884   7.347 -41.031  0.00  0.00    +0.000 C 
ATOM      5  C4  UNL     1     -28.015   6.591 -40.014  0.00  0.00    +0.000 C 
ATOM      6  C5  UNL     1     -26.542   6.710 -40.386  0.00  0.00    +0.000 C 
ATOM      7  C6  UNL     1     -25.719   5.854 -39.467  0.00  0.00    +0.000 C 
ATOM      8  O1  UNL     1     -24.571   6.143 -39.147  0.00  0.00    +0.000 OA
ATOM      9  C7  UNL     1     -26.342   4.598 -39.014  0.00  0.00    +0.000 A 
ATOM     10  C8  UNL     1     -27.669   4.345 -39.354  0.00  0.00    +0.000 A 
ATOM     11  O2  UNL     1     -28.462   5.220 -40.044  0.00  0.00    +0.000 OA
ATOM     12  C9  UNL     1     -28.254   3.130 -38.994  0.00  0.00    +0.000 A 
ATOM     13  C10 UNL     1     -27.520   2.189 -38.270  0.00  0.00    +0.000 A 
ATOM     14  C11 UNL     1     -26.198   2.455 -37.912  0.00  0.00    +0.000 A 
ATOM     15  C12 UNL     1     -25.603   3.660 -38.285  0.00  0.00    +0.000 A 
ATOM     16  H3  UNL     1     -30.086   8.345 -38.210  0.00  0.00    +0.000 HD
ENDROOT
TORSDOF 0
ENDMDL
MODEL 8
REMARK VINA RESULT:    -4.374     17.400     19.493
REMARK INTER + INTRA:          -4.374
REMARK INTER:                  -4.374
REMARK INTRA:                   0.000
REMARK UNBOUND:                 0.000
REMARK  Name = /home/anacleto/Desktop/manuscript_Mpro/naturecomm/supplementary_file_S2/6-chemical-library/molecular_docking/3D_ligand_structure/1429.pdb
REMARK  0 active torsions:
REMARK  status: ('A' for Active; 'I' for Inactive)
REMARK                            x       y       z     vdW  Elec       q    Type
REMARK                         _______ _______ _______ _____ _____    ______ ____
ROOT
ATOM      1  C1  UNL     1     -26.017  -6.442 -27.667  0.00  0.00    +0.000 C 
ATOM      2  N1  UNL     1     -25.073  -6.215 -28.771  0.00  0.00    +0.000 NA
ATOM      3  C2  UNL     1     -24.440  -4.930 -28.493  0.00  0.00    +0.000 C 
ATOM      4  C3  UNL     1     -25.610  -4.085 -28.024  0.00  0.00    +0.000 C 
ATOM      5  C4  UNL     1     -26.397  -5.042 -27.117  0.00  0.00    +0.000 C 
ATOM      6  C5  UNL     1     -27.886  -4.724 -27.176  0.00  0.00    +0.000 C 
ATOM      7  C6  UNL     1     -28.624  -5.572 -26.182  0.00  0.00    +0.000 C 
ATOM      8  O1  UNL     1     -29.777  -5.950 -26.362  0.00  0.00    +0.000 OA
ATOM      9  C7  UNL     1     -27.910  -5.878 -24.929  0.00  0.00    +0.000 A 
ATOM     10  C8  UNL     1     -26.582  -5.479 -24.798  0.00  0.00    +0.000 A 
ATOM     11  O2  UNL     1     -25.867  -4.861 -25.787  0.00  0.00    +0.000 OA
ATOM     12  C9  UNL     1     -25.912  -5.699 -23.594  0.00  0.00    +0.000 A 
ATOM     13  C10 UNL     1     -26.562  -6.342 -22.539  0.00  0.00    +0.000 A 
ATOM     14  C11 UNL     1     -27.885  -6.760 -22.682  0.00  0.00    +0.000 A 
ATOM     15  C12 UNL     1     -28.565  -6.527 -23.877  0.00  0.00    +0.000 A 
ATOM     16  H3  UNL     1     -24.380  -6.960 -28.812  0.00  0.00    +0.000 HD
ENDROOT
TORSDOF 0
ENDMDL
MODEL 9
REMARK VINA RESULT:    -4.351     15.890     16.958
REMARK INTER + INTRA:          -4.351
REMARK INTER:                  -4.351
REMARK INTRA:                   0.000
REMARK UNBOUND:                 0.000
REMARK  Name = /home/anacleto/Desktop/manuscript_Mpro/naturecomm/supplementary_file_S2/6-chemical-library/molecular_docking/3D_ligand_structure/1429.pdb
REMARK  0 active torsions:
REMARK  status: ('A' for Active; 'I' for Inactive)
REMARK                            x       y       z     vdW  Elec       q    Type
REMARK                         _______ _______ _______ _____ _____    ______ ____
ROOT
ATOM      1  C1  UNL     1     -26.056  -5.524 -26.529  0.00  0.00    +0.000 C 
ATOM      2  N1  UNL     1     -27.512  -5.556 -26.727  0.00  0.00    +0.000 NA
ATOM      3  C2  UNL     1     -27.822  -4.413 -27.579  0.00  0.00    +0.000 C 
ATOM      4  C3  UNL     1     -26.944  -3.324 -26.993  0.00  0.00    +0.000 C 
ATOM      5  C4  UNL     1     -25.619  -4.048 -26.714  0.00  0.00    +0.000 C 
ATOM      6  C5  UNL     1     -24.927  -3.437 -25.502  0.00  0.00    +0.000 C 
ATOM      7  C6  UNL     1     -23.572  -4.060 -25.326  0.00  0.00    +0.000 C 
ATOM      8  O1  UNL     1     -23.050  -4.206 -24.226  0.00  0.00    +0.000 OA
ATOM      9  C7  UNL     1     -22.862  -4.433 -26.562  0.00  0.00    +0.000 A 
ATOM     10  C8  UNL     1     -23.522  -4.305 -27.782  0.00  0.00    +0.000 A 
ATOM     11  O2  UNL     1     -24.823  -3.903 -27.909  0.00  0.00    +0.000 OA
ATOM     12  C9  UNL     1     -22.842  -4.588 -28.967  0.00  0.00    +0.000 A 
ATOM     13  C10 UNL     1     -21.517  -5.024 -28.925  0.00  0.00    +0.000 A 
ATOM     14  C11 UNL     1     -20.865  -5.173 -27.700  0.00  0.00    +0.000 A 
ATOM     15  C12 UNL     1     -21.535  -4.875 -26.514  0.00  0.00    +0.000 A 
ATOM     16  H3  UNL     1     -27.797  -6.428 -27.171  0.00  0.00    +0.000 HD
ENDROOT
TORSDOF 0
ENDMDL
