MODEL 1
REMARK VINA RESULT:    -4.380      0.000      0.000
REMARK INTER + INTRA:          -5.486
REMARK INTER:                  -5.016
REMARK INTRA:                  -0.470
REMARK UNBOUND:                -0.338
REMARK  Name = /home/anacleto/Desktop/manuscript_Mpro/naturecomm/supplementary_file_S2/6-chemical-library/molecular_docking/3D_ligand_structure/1212.pdb
REMARK  3 active torsions:
REMARK  status: ('A' for Active; 'I' for Inactive)
REMARK    1  A    between atoms: C4_4  and  N1_5
REMARK    2  A    between atoms: N1_5  and  C5_6
REMARK    3  A    between atoms: C5_6  and  C6_7
REMARK                            x       y       z     vdW  Elec       q    Type
REMARK                         _______ _______ _______ _____ _____    ______ ____
ROOT
ATOM      1  C5  UNL     1      21.033   6.923  11.570  0.00  0.00    +0.000 C 
ENDROOT
BRANCH   1   2
ATOM      2  C6  UNL     1      19.934   7.267  12.538  0.00  0.00    +0.000 A 
ATOM      3  C7  UNL     1      18.585   7.133  12.195  0.00  0.00    +0.000 A 
ATOM      4  C8  UNL     1      17.599   7.459  13.121  0.00  0.00    +0.000 A 
ATOM      5  C9  UNL     1      17.996   7.912  14.369  0.00  0.00    +0.000 A 
ATOM      6  N2  UNL     1      19.286   8.055  14.739  0.00  0.00    +0.000 NA
ATOM      7  C10 UNL     1      20.222   7.730  13.819  0.00  0.00    +0.000 A 
ENDBRANCH   1   2
BRANCH   1   8
ATOM      8  N1  UNL     1      20.639   5.927  10.567  0.00  0.00    +0.000 NA
ATOM      9  H8  UNL     1      21.054   5.030  10.817  0.00  0.00    +0.000 HD
BRANCH   8  13
ATOM     10  C1  UNL     1      19.907   5.837   8.237  0.00  0.00    +0.000 C 
ATOM     11  C2  UNL     1      19.094   7.125   8.477  0.00  0.00    +0.000 C 
ATOM     12  C3  UNL     1      20.399   7.787   8.966  0.00  0.00    +0.000 C 
ATOM     13  C4  UNL     1      20.983   6.376   9.209  0.00  0.00    +0.000 C 
ENDBRANCH   8  13
ENDBRANCH   1   8
TORSDOF 3
ENDMDL
MODEL 2
REMARK VINA RESULT:    -4.304     14.814     17.368
REMARK INTER + INTRA:          -5.397
REMARK INTER:                  -5.066
REMARK INTRA:                  -0.331
REMARK UNBOUND:                -0.338
REMARK  Name = /home/anacleto/Desktop/manuscript_Mpro/naturecomm/supplementary_file_S2/6-chemical-library/molecular_docking/3D_ligand_structure/1212.pdb
REMARK  3 active torsions:
REMARK  status: ('A' for Active; 'I' for Inactive)
REMARK    1  A    between atoms: C4_4  and  N1_5
REMARK    2  A    between atoms: N1_5  and  C5_6
REMARK    3  A    between atoms: C5_6  and  C6_7
REMARK                            x       y       z     vdW  Elec       q    Type
REMARK                         _______ _______ _______ _____ _____    ______ ____
ROOT
ATOM      1  C5  UNL     1      14.568  11.100  -3.789  0.00  0.00    +0.000 C 
ENDROOT
BRANCH   1   2
ATOM      2  C6  UNL     1      16.030  10.756  -3.696  0.00  0.00    +0.000 A 
ATOM      3  C7  UNL     1      16.845  10.699  -4.831  0.00  0.00    +0.000 A 
ATOM      4  C8  UNL     1      18.193  10.380  -4.701  0.00  0.00    +0.000 A 
ATOM      5  C9  UNL     1      18.687  10.127  -3.432  0.00  0.00    +0.000 A 
ATOM      6  N2  UNL     1      17.935  10.171  -2.312  0.00  0.00    +0.000 NA
ATOM      7  C10 UNL     1      16.628  10.484  -2.469  0.00  0.00    +0.000 A 
ENDBRANCH   1   2
BRANCH   1   8
ATOM      8  N1  UNL     1      13.825  10.248  -4.724  0.00  0.00    +0.000 NA
ATOM      9  H8  UNL     1      14.483   9.629  -5.196  0.00  0.00    +0.000 HD
BRANCH   8  13
ATOM     10  C1  UNL     1      13.874  12.236  -6.143  0.00  0.00    +0.000 C 
ATOM     11  C2  UNL     1      14.354  11.351  -7.310  0.00  0.00    +0.000 C 
ATOM     12  C3  UNL     1      13.112  10.467  -7.074  0.00  0.00    +0.000 C 
ATOM     13  C4  UNL     1      13.011  11.053  -5.646  0.00  0.00    +0.000 C 
ENDBRANCH   8  13
ENDBRANCH   1   8
TORSDOF 3
ENDMDL
MODEL 3
REMARK VINA RESULT:    -4.269     17.330     18.838
REMARK INTER + INTRA:          -5.356
REMARK INTER:                  -5.177
REMARK INTRA:                  -0.179
REMARK UNBOUND:                -0.338
REMARK  Name = /home/anacleto/Desktop/manuscript_Mpro/naturecomm/supplementary_file_S2/6-chemical-library/molecular_docking/3D_ligand_structure/1212.pdb
REMARK  3 active torsions:
REMARK  status: ('A' for Active; 'I' for Inactive)
REMARK    1  A    between atoms: C4_4  and  N1_5
REMARK    2  A    between atoms: N1_5  and  C5_6
REMARK    3  A    between atoms: C5_6  and  C6_7
REMARK                            x       y       z     vdW  Elec       q    Type
REMARK                         _______ _______ _______ _____ _____    ______ ____
ROOT
ATOM      1  C5  UNL     1      14.854  14.303  -3.888  0.00  0.00    +0.000 C 
ENDROOT
BRANCH   1   2
ATOM      2  C6  UNL     1      14.655  13.336  -5.023  0.00  0.00    +0.000 A 
ATOM      3  C7  UNL     1      15.423  13.404  -6.190  0.00  0.00    +0.000 A 
ATOM      4  C8  UNL     1      15.208  12.488  -7.215  0.00  0.00    +0.000 A 
ATOM      5  C9  UNL     1      14.227  11.526  -7.039  0.00  0.00    +0.000 A 
ATOM      6  N2  UNL     1      13.464  11.427  -5.930  0.00  0.00    +0.000 NA
ATOM      7  C10 UNL     1      13.695  12.330  -4.950  0.00  0.00    +0.000 A 
ENDBRANCH   1   2
BRANCH   1   8
ATOM      8  N1  UNL     1      13.624  14.994  -3.484  0.00  0.00    +0.000 NA
ATOM      9  H8  UNL     1      13.470  15.780  -4.113  0.00  0.00    +0.000 HD
BRANCH   8  13
ATOM     10  C1  UNL     1      14.006  16.884  -1.983  0.00  0.00    +0.000 C 
ATOM     11  C2  UNL     1      12.495  17.187  -2.035  0.00  0.00    +0.000 C 
ATOM     12  C3  UNL     1      12.247  15.735  -1.577  0.00  0.00    +0.000 C 
ATOM     13  C4  UNL     1      13.671  15.376  -2.065  0.00  0.00    +0.000 C 
ENDBRANCH   8  13
ENDBRANCH   1   8
TORSDOF 3
ENDMDL
MODEL 4
REMARK VINA RESULT:    -4.159      3.423      5.175
REMARK INTER + INTRA:          -5.226
REMARK INTER:                  -5.005
REMARK INTRA:                  -0.221
REMARK UNBOUND:                -0.338
REMARK  Name = /home/anacleto/Desktop/manuscript_Mpro/naturecomm/supplementary_file_S2/6-chemical-library/molecular_docking/3D_ligand_structure/1212.pdb
REMARK  3 active torsions:
REMARK  status: ('A' for Active; 'I' for Inactive)
REMARK    1  A    between atoms: C4_4  and  N1_5
REMARK    2  A    between atoms: N1_5  and  C5_6
REMARK    3  A    between atoms: C5_6  and  C6_7
REMARK                            x       y       z     vdW  Elec       q    Type
REMARK                         _______ _______ _______ _____ _____    ______ ____
ROOT
ATOM      1  C5  UNL     1      18.604   4.137   9.461  0.00  0.00    +0.000 C 
ENDROOT
BRANCH   1   2
ATOM      2  C6  UNL     1      19.449   5.377   9.347  0.00  0.00    +0.000 A 
ATOM      3  C7  UNL     1      18.995   6.515   8.671  0.00  0.00    +0.000 A 
ATOM      4  C8  UNL     1      19.807   7.642   8.593  0.00  0.00    +0.000 A 
ATOM      5  C9  UNL     1      21.053   7.596   9.196  0.00  0.00    +0.000 A 
ATOM      6  N2  UNL     1      21.527   6.519   9.856  0.00  0.00    +0.000 NA
ATOM      7  C10 UNL     1      20.717   5.438   9.918  0.00  0.00    +0.000 A 
ENDBRANCH   1   2
BRANCH   1   8
ATOM      8  N1  UNL     1      17.494   4.095   8.502  0.00  0.00    +0.000 NA
ATOM      9  H8  UNL     1      17.210   5.051   8.290  0.00  0.00    +0.000 HD
BRANCH   8  13
ATOM     10  C1  UNL     1      15.715   2.583   7.779  0.00  0.00    +0.000 C 
ATOM     11  C2  UNL     1      16.704   1.408   7.916  0.00  0.00    +0.000 C 
ATOM     12  C3  UNL     1      16.943   1.855   9.373  0.00  0.00    +0.000 C 
ATOM     13  C4  UNL     1      16.395   3.252   8.996  0.00  0.00    +0.000 C 
ENDBRANCH   8  13
ENDBRANCH   1   8
TORSDOF 3
ENDMDL
MODEL 5
REMARK VINA RESULT:    -4.116      3.979      5.482
REMARK INTER + INTRA:          -5.175
REMARK INTER:                  -4.964
REMARK INTRA:                  -0.211
REMARK UNBOUND:                -0.338
REMARK  Name = /home/anacleto/Desktop/manuscript_Mpro/naturecomm/supplementary_file_S2/6-chemical-library/molecular_docking/3D_ligand_structure/1212.pdb
REMARK  3 active torsions:
REMARK  status: ('A' for Active; 'I' for Inactive)
REMARK    1  A    between atoms: C4_4  and  N1_5
REMARK    2  A    between atoms: N1_5  and  C5_6
REMARK    3  A    between atoms: C5_6  and  C6_7
REMARK                            x       y       z     vdW  Elec       q    Type
REMARK                         _______ _______ _______ _____ _____    ______ ____
ROOT
ATOM      1  C5  UNL     1      18.512   4.034   9.071  0.00  0.00    +0.000 C 
ENDROOT
BRANCH   1   2
ATOM      2  C6  UNL     1      17.193   3.311   9.130  0.00  0.00    +0.000 A 
ATOM      3  C7  UNL     1      16.610   2.755   7.988  0.00  0.00    +0.000 A 
ATOM      4  C8  UNL     1      15.390   2.092   8.087  0.00  0.00    +0.000 A 
ATOM      5  C9  UNL     1      14.789   2.007   9.331  0.00  0.00    +0.000 A 
ATOM      6  N2  UNL     1      15.318   2.530  10.457  0.00  0.00    +0.000 NA
ATOM      7  C10 UNL     1      16.505   3.168  10.332  0.00  0.00    +0.000 A 
ENDBRANCH   1   2
BRANCH   1   8
ATOM      8  N1  UNL     1      18.380   5.495   9.072  0.00  0.00    +0.000 NA
ATOM      9  H8  UNL     1      17.402   5.734   8.913  0.00  0.00    +0.000 HD
BRANCH   8  13
ATOM     10  C1  UNL     1      19.618   7.546   8.592  0.00  0.00    +0.000 C 
ATOM     11  C2  UNL     1      20.808   6.975   9.389  0.00  0.00    +0.000 C 
ATOM     12  C3  UNL     1      20.757   5.739   8.466  0.00  0.00    +0.000 C 
ATOM     13  C4  UNL     1      19.300   6.113   8.106  0.00  0.00    +0.000 C 
ENDBRANCH   8  13
ENDBRANCH   1   8
TORSDOF 3
ENDMDL
MODEL 6
REMARK VINA RESULT:    -4.039      1.854      2.380
REMARK INTER + INTRA:          -5.085
REMARK INTER:                  -4.853
REMARK INTRA:                  -0.232
REMARK UNBOUND:                -0.338
REMARK  Name = /home/anacleto/Desktop/manuscript_Mpro/naturecomm/supplementary_file_S2/6-chemical-library/molecular_docking/3D_ligand_structure/1212.pdb
REMARK  3 active torsions:
REMARK  status: ('A' for Active; 'I' for Inactive)
REMARK    1  A    between atoms: C4_4  and  N1_5
REMARK    2  A    between atoms: N1_5  and  C5_6
REMARK    3  A    between atoms: C5_6  and  C6_7
REMARK                            x       y       z     vdW  Elec       q    Type
REMARK                         _______ _______ _______ _____ _____    ______ ____
ROOT
ATOM      1  C5  UNL     1      18.685   5.985  11.879  0.00  0.00    +0.000 C 
ENDROOT
BRANCH   1   2
ATOM      2  C6  UNL     1      17.679   6.319  12.946  0.00  0.00    +0.000 A 
ATOM      3  C7  UNL     1      17.660   7.570  13.571  0.00  0.00    +0.000 A 
ATOM      4  C8  UNL     1      16.710   7.840  14.552  0.00  0.00    +0.000 A 
ATOM      5  C9  UNL     1      15.804   6.844  14.878  0.00  0.00    +0.000 A 
ATOM      6  N2  UNL     1      15.789   5.625  14.300  0.00  0.00    +0.000 NA
ATOM      7  C10 UNL     1      16.723   5.391  13.350  0.00  0.00    +0.000 A 
ENDBRANCH   1   2
BRANCH   1   8
ATOM      8  N1  UNL     1      19.145   7.154  11.120  0.00  0.00    +0.000 NA
ATOM      9  H8  UNL     1      18.335   7.605  10.696  0.00  0.00    +0.000 HD
BRANCH   8  13
ATOM     10  C1  UNL     1      19.603   5.710   9.202  0.00  0.00    +0.000 C 
ATOM     11  C2  UNL     1      19.116   6.842   8.276  0.00  0.00    +0.000 C 
ATOM     12  C3  UNL     1      20.152   7.763   8.954  0.00  0.00    +0.000 C 
ATOM     13  C4  UNL     1      20.186   6.783  10.151  0.00  0.00    +0.000 C 
ENDBRANCH   8  13
ENDBRANCH   1   8
TORSDOF 3
ENDMDL
MODEL 7
REMARK VINA RESULT:    -3.962     14.413     16.771
REMARK INTER + INTRA:          -4.995
REMARK INTER:                  -4.722
REMARK INTRA:                  -0.273
REMARK UNBOUND:                -0.338
REMARK  Name = /home/anacleto/Desktop/manuscript_Mpro/naturecomm/supplementary_file_S2/6-chemical-library/molecular_docking/3D_ligand_structure/1212.pdb
REMARK  3 active torsions:
REMARK  status: ('A' for Active; 'I' for Inactive)
REMARK    1  A    between atoms: C4_4  and  N1_5
REMARK    2  A    between atoms: N1_5  and  C5_6
REMARK    3  A    between atoms: C5_6  and  C6_7
REMARK                            x       y       z     vdW  Elec       q    Type
REMARK                         _______ _______ _______ _____ _____    ______ ____
ROOT
ATOM      1  C5  UNL     1      16.389  10.934  -4.562  0.00  0.00    +0.000 C 
ENDROOT
BRANCH   1   2
ATOM      2  C6  UNL     1      16.586  11.669  -3.264  0.00  0.00    +0.000 A 
ATOM      3  C7  UNL     1      17.007  13.002  -3.232  0.00  0.00    +0.000 A 
ATOM      4  C8  UNL     1      17.174  13.646  -2.009  0.00  0.00    +0.000 A 
ATOM      5  C9  UNL     1      16.914  12.932  -0.852  0.00  0.00    +0.000 A 
ATOM      6  N2  UNL     1      16.507  11.645  -0.840  0.00  0.00    +0.000 NA
ATOM      7  C10 UNL     1      16.352  11.045  -2.042  0.00  0.00    +0.000 A 
ENDBRANCH   1   2
BRANCH   1   8
ATOM      8  N1  UNL     1      14.986  10.605  -4.842  0.00  0.00    +0.000 NA
ATOM      9  H8  UNL     1      14.951   9.703  -5.315  0.00  0.00    +0.000 HD
BRANCH   8  13
ATOM     10  C1  UNL     1      14.558  11.444  -7.097  0.00  0.00    +0.000 C 
ATOM     11  C2  UNL     1      13.265  10.604  -7.127  0.00  0.00    +0.000 C 
ATOM     12  C3  UNL     1      12.841  11.317  -5.826  0.00  0.00    +0.000 C 
ATOM     13  C4  UNL     1      14.324  11.685  -5.587  0.00  0.00    +0.000 C 
ENDBRANCH   8  13
ENDBRANCH   1   8
TORSDOF 3
ENDMDL
MODEL 8
REMARK VINA RESULT:    -3.927     17.627     19.054
REMARK INTER + INTRA:          -4.954
REMARK INTER:                  -4.685
REMARK INTRA:                  -0.269
REMARK UNBOUND:                -0.338
REMARK  Name = /home/anacleto/Desktop/manuscript_Mpro/naturecomm/supplementary_file_S2/6-chemical-library/molecular_docking/3D_ligand_structure/1212.pdb
REMARK  3 active torsions:
REMARK  status: ('A' for Active; 'I' for Inactive)
REMARK    1  A    between atoms: C4_4  and  N1_5
REMARK    2  A    between atoms: N1_5  and  C5_6
REMARK    3  A    between atoms: C5_6  and  C6_7
REMARK                            x       y       z     vdW  Elec       q    Type
REMARK                         _______ _______ _______ _____ _____    ______ ____
ROOT
ATOM      1  C5  UNL     1      17.180  11.764  -6.821  0.00  0.00    +0.000 C 
ENDROOT
BRANCH   1   2
ATOM      2  C6  UNL     1      15.799  11.382  -6.361  0.00  0.00    +0.000 A 
ATOM      3  C7  UNL     1      14.733  11.263  -7.258  0.00  0.00    +0.000 A 
ATOM      4  C8  UNL     1      13.472  10.904  -6.790  0.00  0.00    +0.000 A 
ATOM      5  C9  UNL     1      13.317  10.674  -5.434  0.00  0.00    +0.000 A 
ATOM      6  N2  UNL     1      14.319  10.779  -4.536  0.00  0.00    +0.000 NA
ATOM      7  C10 UNL     1      15.534  11.128  -5.018  0.00  0.00    +0.000 A 
ENDBRANCH   1   2
BRANCH   1   8
ATOM      8  N1  UNL     1      17.638  11.005  -7.991  0.00  0.00    +0.000 NA
ATOM      9  H8  UNL     1      17.067  10.165  -8.079  0.00  0.00    +0.000 HD
BRANCH   8  13
ATOM     10  C1  UNL     1      19.302   9.604  -6.877  0.00  0.00    +0.000 C 
ATOM     11  C2  UNL     1      19.145   8.573  -8.012  0.00  0.00    +0.000 C 
ATOM     12  C3  UNL     1      19.470   9.706  -9.008  0.00  0.00    +0.000 C 
ATOM     13  C4  UNL     1      19.080  10.729  -7.915  0.00  0.00    +0.000 C 
ENDBRANCH   8  13
ENDBRANCH   1   8
TORSDOF 3
ENDMDL
MODEL 9
REMARK VINA RESULT:    -3.765     14.689     17.456
REMARK INTER + INTRA:          -4.763
REMARK INTER:                  -4.425
REMARK INTRA:                  -0.338
REMARK UNBOUND:                -0.338
REMARK  Name = /home/anacleto/Desktop/manuscript_Mpro/naturecomm/supplementary_file_S2/6-chemical-library/molecular_docking/3D_ligand_structure/1212.pdb
REMARK  3 active torsions:
REMARK  status: ('A' for Active; 'I' for Inactive)
REMARK    1  A    between atoms: C4_4  and  N1_5
REMARK    2  A    between atoms: N1_5  and  C5_6
REMARK    3  A    between atoms: C5_6  and  C6_7
REMARK                            x       y       z     vdW  Elec       q    Type
REMARK                         _______ _______ _______ _____ _____    ______ ____
ROOT
ATOM      1  C5  UNL     1      16.888  11.857  -4.811  0.00  0.00    +0.000 C 
ENDROOT
BRANCH   1   2
ATOM      2  C6  UNL     1      15.581  11.466  -5.445  0.00  0.00    +0.000 A 
ATOM      3  C7  UNL     1      15.381  11.549  -6.827  0.00  0.00    +0.000 A 
ATOM      4  C8  UNL     1      14.157  11.175  -7.373  0.00  0.00    +0.000 A 
ATOM      5  C9  UNL     1      13.166  10.727  -6.516  0.00  0.00    +0.000 A 
ATOM      6  N2  UNL     1      13.318  10.633  -5.178  0.00  0.00    +0.000 NA
ATOM      7  C10 UNL     1      14.518  11.003  -4.675  0.00  0.00    +0.000 A 
ENDBRANCH   1   2
BRANCH   1   8
ATOM      8  N1  UNL     1      16.735  12.736  -3.646  0.00  0.00    +0.000 NA
ATOM      9  H8  UNL     1      16.944  13.692  -3.930  0.00  0.00    +0.000 HD
BRANCH   8  13
ATOM     10  C1  UNL     1      16.811  12.633  -1.206  0.00  0.00    +0.000 C 
ATOM     11  C2  UNL     1      16.090  11.272  -1.274  0.00  0.00    +0.000 C 
ATOM     12  C3  UNL     1      17.215  10.788  -2.213  0.00  0.00    +0.000 C 
ATOM     13  C4  UNL     1      17.549  12.268  -2.515  0.00  0.00    +0.000 C 
ENDBRANCH   8  13
ENDBRANCH   1   8
TORSDOF 3
ENDMDL
