MODEL 1
REMARK VINA RESULT:    -3.490      0.000      0.000
REMARK INTER + INTRA:          -3.490
REMARK INTER:                  -3.490
REMARK INTRA:                   0.000
REMARK UNBOUND:                 0.000
REMARK  Name = /home/anacleto/Desktop/manuscript_Mpro/naturecomm/supplementary_file_S2/6-chemical-library/molecular_docking/3D_ligand_structure/10.pdb
REMARK  0 active torsions:
REMARK  status: ('A' for Active; 'I' for Inactive)
REMARK                            x       y       z     vdW  Elec       q    Type
REMARK                         _______ _______ _______ _____ _____    ______ ____
ROOT
ATOM      1  O1  UNL     1     -22.579  10.211 -36.795  0.00  0.00    +0.000 OA
ATOM      2  C1  UNL     1     -21.521   9.776 -37.244  0.00  0.00    +0.000 C 
ATOM      3  C2  UNL     1     -21.161   8.313 -37.179  0.00  0.00    +0.000 C 
ATOM      4  C3  UNL     1     -20.198   7.981 -38.295  0.00  0.00    +0.000 C 
ATOM      5  N1  UNL     1     -19.100   8.913 -38.298  0.00  0.00    +0.000 N 
ATOM      6  C4  UNL     1     -19.324  10.252 -38.192  0.00  0.00    +0.000 C 
ATOM      7  O2  UNL     1     -18.456  11.073 -38.459  0.00  0.00    +0.000 OA
ATOM      8  N2  UNL     1     -20.568  10.613 -37.763  0.00  0.00    +0.000 N 
ATOM      9  H5  UNL     1     -18.221   8.669 -38.742  0.00  0.00    +0.000 HD
ATOM     10  H6  UNL     1     -20.755  11.603 -37.712  0.00  0.00    +0.000 HD
ENDROOT
TORSDOF 0
ENDMDL
MODEL 2
REMARK VINA RESULT:    -3.471     28.464     29.360
REMARK INTER + INTRA:          -3.471
REMARK INTER:                  -3.471
REMARK INTRA:                   0.000
REMARK UNBOUND:                 0.000
REMARK  Name = /home/anacleto/Desktop/manuscript_Mpro/naturecomm/supplementary_file_S2/6-chemical-library/molecular_docking/3D_ligand_structure/10.pdb
REMARK  0 active torsions:
REMARK  status: ('A' for Active; 'I' for Inactive)
REMARK                            x       y       z     vdW  Elec       q    Type
REMARK                         _______ _______ _______ _____ _____    ______ ____
ROOT
ATOM      1  O1  UNL     1     -37.659   9.021 -15.823  0.00  0.00    +0.000 OA
ATOM      2  C1  UNL     1     -37.772   8.080 -15.040  0.00  0.00    +0.000 C 
ATOM      3  C2  UNL     1     -38.032   8.285 -13.570  0.00  0.00    +0.000 C 
ATOM      4  C3  UNL     1     -38.729   7.067 -13.007  0.00  0.00    +0.000 C 
ATOM      5  N1  UNL     1     -38.012   5.872 -13.371  0.00  0.00    +0.000 N 
ATOM      6  C4  UNL     1     -37.589   5.679 -14.652  0.00  0.00    +0.000 C 
ATOM      7  O2  UNL     1     -37.226   4.579 -15.050  0.00  0.00    +0.000 OA
ATOM      8  N2  UNL     1     -37.589   6.785 -15.450  0.00  0.00    +0.000 N 
ATOM      9  H5  UNL     1     -38.130   5.019 -12.836  0.00  0.00    +0.000 HD
ATOM     10  H6  UNL     1     -37.308   6.646 -16.409  0.00  0.00    +0.000 HD
ENDROOT
TORSDOF 0
ENDMDL
MODEL 3
REMARK VINA RESULT:    -3.391     17.388     18.145
REMARK INTER + INTRA:          -3.391
REMARK INTER:                  -3.391
REMARK INTRA:                   0.000
REMARK UNBOUND:                 0.000
REMARK  Name = /home/anacleto/Desktop/manuscript_Mpro/naturecomm/supplementary_file_S2/6-chemical-library/molecular_docking/3D_ligand_structure/10.pdb
REMARK  0 active torsions:
REMARK  status: ('A' for Active; 'I' for Inactive)
REMARK                            x       y       z     vdW  Elec       q    Type
REMARK                         _______ _______ _______ _____ _____    ______ ____
ROOT
ATOM      1  O1  UNL     1     -19.316  -7.536 -28.068  0.00  0.00    +0.000 OA
ATOM      2  C1  UNL     1     -19.288  -6.310 -27.978  0.00  0.00    +0.000 C 
ATOM      3  C2  UNL     1     -19.721  -5.412 -29.108  0.00  0.00    +0.000 C 
ATOM      4  C3  UNL     1     -20.177  -4.084 -28.549  0.00  0.00    +0.000 C 
ATOM      5  N1  UNL     1     -19.181  -3.554 -27.654  0.00  0.00    +0.000 N 
ATOM      6  C4  UNL     1     -18.610  -4.344 -26.703  0.00  0.00    +0.000 C 
ATOM      7  O2  UNL     1     -17.976  -3.871 -25.768  0.00  0.00    +0.000 OA
ATOM      8  N2  UNL     1     -18.784  -5.688 -26.866  0.00  0.00    +0.000 N 
ATOM      9  H5  UNL     1     -19.155  -2.562 -27.444  0.00  0.00    +0.000 HD
ATOM     10  H6  UNL     1     -18.391  -6.281 -26.151  0.00  0.00    +0.000 HD
ENDROOT
TORSDOF 0
ENDMDL
MODEL 4
REMARK VINA RESULT:    -3.339     17.795     18.781
REMARK INTER + INTRA:          -3.339
REMARK INTER:                  -3.339
REMARK INTRA:                   0.000
REMARK UNBOUND:                 0.000
REMARK  Name = /home/anacleto/Desktop/manuscript_Mpro/naturecomm/supplementary_file_S2/6-chemical-library/molecular_docking/3D_ligand_structure/10.pdb
REMARK  0 active torsions:
REMARK  status: ('A' for Active; 'I' for Inactive)
REMARK                            x       y       z     vdW  Elec       q    Type
REMARK                         _______ _______ _______ _____ _____    ______ ____
ROOT
ATOM      1  O1  UNL     1     -24.666  -3.786 -25.678  0.00  0.00    +0.000 OA
ATOM      2  C1  UNL     1     -25.734  -4.062 -26.221  0.00  0.00    +0.000 C 
ATOM      3  C2  UNL     1     -26.472  -5.345 -25.936  0.00  0.00    +0.000 C 
ATOM      4  C3  UNL     1     -27.946  -5.148 -26.204  0.00  0.00    +0.000 C 
ATOM      5  N1  UNL     1     -28.141  -4.572 -27.509  0.00  0.00    +0.000 N 
ATOM      6  C4  UNL     1     -27.397  -3.506 -27.916  0.00  0.00    +0.000 C 
ATOM      7  O2  UNL     1     -27.715  -2.833 -28.889  0.00  0.00    +0.000 OA
ATOM      8  N2  UNL     1     -26.277  -3.249 -27.180  0.00  0.00    +0.000 N 
ATOM      9  H5  UNL     1     -29.033  -4.665 -27.984  0.00  0.00    +0.000 HD
ATOM     10  H6  UNL     1     -25.736  -2.443 -27.455  0.00  0.00    +0.000 HD
ENDROOT
TORSDOF 0
ENDMDL
MODEL 5
REMARK VINA RESULT:    -3.304      2.256      2.986
REMARK INTER + INTRA:          -3.304
REMARK INTER:                  -3.304
REMARK INTRA:                   0.000
REMARK UNBOUND:                 0.000
REMARK  Name = /home/anacleto/Desktop/manuscript_Mpro/naturecomm/supplementary_file_S2/6-chemical-library/molecular_docking/3D_ligand_structure/10.pdb
REMARK  0 active torsions:
REMARK  status: ('A' for Active; 'I' for Inactive)
REMARK                            x       y       z     vdW  Elec       q    Type
REMARK                         _______ _______ _______ _____ _____    ______ ____
ROOT
ATOM      1  O1  UNL     1     -23.792   6.671 -38.723  0.00  0.00    +0.000 OA
ATOM      2  C1  UNL     1     -22.807   7.251 -38.270  0.00  0.00    +0.000 C 
ATOM      3  C2  UNL     1     -21.453   6.592 -38.193  0.00  0.00    +0.000 C 
ATOM      4  C3  UNL     1     -20.376   7.652 -38.216  0.00  0.00    +0.000 C 
ATOM      5  N1  UNL     1     -20.654   8.664 -37.229  0.00  0.00    +0.000 N 
ATOM      6  C4  UNL     1     -21.901   9.199 -37.116  0.00  0.00    +0.000 C 
ATOM      7  O2  UNL     1     -22.104  10.232 -36.489  0.00  0.00    +0.000 OA
ATOM      8  N2  UNL     1     -22.902   8.508 -37.735  0.00  0.00    +0.000 N 
ATOM      9  H5  UNL     1     -19.910   9.258 -36.879  0.00  0.00    +0.000 HD
ATOM     10  H6  UNL     1     -23.825   8.913 -37.683  0.00  0.00    +0.000 HD
ENDROOT
TORSDOF 0
ENDMDL
MODEL 6
REMARK VINA RESULT:    -3.271      8.457      9.489
REMARK INTER + INTRA:          -3.271
REMARK INTER:                  -3.271
REMARK INTRA:                   0.000
REMARK UNBOUND:                 0.000
REMARK  Name = /home/anacleto/Desktop/manuscript_Mpro/naturecomm/supplementary_file_S2/6-chemical-library/molecular_docking/3D_ligand_structure/10.pdb
REMARK  0 active torsions:
REMARK  status: ('A' for Active; 'I' for Inactive)
REMARK                            x       y       z     vdW  Elec       q    Type
REMARK                         _______ _______ _______ _____ _____    ______ ____
ROOT
ATOM      1  O1  UNL     1     -24.957   4.855 -38.765  0.00  0.00    +0.000 OA
ATOM      2  C1  UNL     1     -25.943   4.132 -38.635  0.00  0.00    +0.000 C 
ATOM      3  C2  UNL     1     -25.831   2.632 -38.536  0.00  0.00    +0.000 C 
ATOM      4  C3  UNL     1     -27.021   2.088 -37.780  0.00  0.00    +0.000 C 
ATOM      5  N1  UNL     1     -28.244   2.605 -38.339  0.00  0.00    +0.000 N 
ATOM      6  C4  UNL     1     -28.373   3.932 -38.618  0.00  0.00    +0.000 C 
ATOM      7  O2  UNL     1     -29.467   4.441 -38.833  0.00  0.00    +0.000 OA
ATOM      8  N2  UNL     1     -27.212   4.647 -38.651  0.00  0.00    +0.000 N 
ATOM      9  H5  UNL     1     -29.123   2.121 -38.188  0.00  0.00    +0.000 HD
ATOM     10  H6  UNL     1     -27.300   5.637 -38.826  0.00  0.00    +0.000 HD
ENDROOT
TORSDOF 0
ENDMDL
MODEL 7
REMARK VINA RESULT:    -3.254      1.690      3.124
REMARK INTER + INTRA:          -3.254
REMARK INTER:                  -3.254
REMARK INTRA:                   0.000
REMARK UNBOUND:                 0.000
REMARK  Name = /home/anacleto/Desktop/manuscript_Mpro/naturecomm/supplementary_file_S2/6-chemical-library/molecular_docking/3D_ligand_structure/10.pdb
REMARK  0 active torsions:
REMARK  status: ('A' for Active; 'I' for Inactive)
REMARK                            x       y       z     vdW  Elec       q    Type
REMARK                         _______ _______ _______ _____ _____    ______ ____
ROOT
ATOM      1  O1  UNL     1     -18.483   8.716 -38.578  0.00  0.00    +0.000 OA
ATOM      2  C1  UNL     1     -19.654   8.456 -38.306  0.00  0.00    +0.000 C 
ATOM      3  C2  UNL     1     -20.402   7.329 -38.970  0.00  0.00    +0.000 C 
ATOM      4  C3  UNL     1     -21.506   6.850 -38.056  0.00  0.00    +0.000 C 
ATOM      5  N1  UNL     1     -22.296   7.966 -37.604  0.00  0.00    +0.000 N 
ATOM      6  C4  UNL     1     -21.697   9.099 -37.140  0.00  0.00    +0.000 C 
ATOM      7  O2  UNL     1     -22.320   9.942 -36.507  0.00  0.00    +0.000 OA
ATOM      8  N2  UNL     1     -20.372   9.232 -37.435  0.00  0.00    +0.000 N 
ATOM      9  H5  UNL     1     -23.241   7.823 -37.263  0.00  0.00    +0.000 HD
ATOM     10  H6  UNL     1     -19.912  10.052 -37.069  0.00  0.00    +0.000 HD
ENDROOT
TORSDOF 0
ENDMDL
MODEL 8
REMARK VINA RESULT:    -3.198     17.681     18.600
REMARK INTER + INTRA:          -3.198
REMARK INTER:                  -3.198
REMARK INTRA:                   0.000
REMARK UNBOUND:                 0.000
REMARK  Name = /home/anacleto/Desktop/manuscript_Mpro/naturecomm/supplementary_file_S2/6-chemical-library/molecular_docking/3D_ligand_structure/10.pdb
REMARK  0 active torsions:
REMARK  status: ('A' for Active; 'I' for Inactive)
REMARK                            x       y       z     vdW  Elec       q    Type
REMARK                         _______ _______ _______ _____ _____    ______ ____
ROOT
ATOM      1  O1  UNL     1     -27.542  -2.940 -28.862  0.00  0.00    +0.000 OA
ATOM      2  C1  UNL     1     -27.139  -3.576 -27.890  0.00  0.00    +0.000 C 
ATOM      3  C2  UNL     1     -28.044  -4.474 -27.086  0.00  0.00    +0.000 C 
ATOM      4  C3  UNL     1     -27.220  -5.552 -26.420  0.00  0.00    +0.000 C 
ATOM      5  N1  UNL     1     -26.109  -4.964 -25.716  0.00  0.00    +0.000 N 
ATOM      6  C4  UNL     1     -25.333  -4.016 -26.311  0.00  0.00    +0.000 C 
ATOM      7  O2  UNL     1     -24.241  -3.699 -25.855  0.00  0.00    +0.000 OA
ATOM      8  N2  UNL     1     -25.854  -3.442 -27.433  0.00  0.00    +0.000 N 
ATOM      9  H5  UNL     1     -25.651  -5.470 -24.966  0.00  0.00    +0.000 HD
ATOM     10  H6  UNL     1     -25.274  -2.761 -27.900  0.00  0.00    +0.000 HD
ENDROOT
TORSDOF 0
ENDMDL
MODEL 9
REMARK VINA RESULT:    -3.091     19.052     20.028
REMARK INTER + INTRA:          -3.091
REMARK INTER:                  -3.091
REMARK INTRA:                   0.000
REMARK UNBOUND:                 0.000
REMARK  Name = /home/anacleto/Desktop/manuscript_Mpro/naturecomm/supplementary_file_S2/6-chemical-library/molecular_docking/3D_ligand_structure/10.pdb
REMARK  0 active torsions:
REMARK  status: ('A' for Active; 'I' for Inactive)
REMARK                            x       y       z     vdW  Elec       q    Type
REMARK                         _______ _______ _______ _____ _____    ______ ____
ROOT
ATOM      1  O1  UNL     1     -25.047  -5.210 -25.674  0.00  0.00    +0.000 OA
ATOM      2  C1  UNL     1     -26.155  -4.934 -26.129  0.00  0.00    +0.000 C 
ATOM      3  C2  UNL     1     -26.411  -3.670 -26.910  0.00  0.00    +0.000 C 
ATOM      4  C3  UNL     1     -27.585  -3.881 -27.839  0.00  0.00    +0.000 C 
ATOM      5  N1  UNL     1     -28.703  -4.422 -27.111  0.00  0.00    +0.000 N 
ATOM      6  C4  UNL     1     -28.533  -5.465 -26.250  0.00  0.00    +0.000 C 
ATOM      7  O2  UNL     1     -29.483  -6.114 -25.830  0.00  0.00    +0.000 OA
ATOM      8  N2  UNL     1     -27.245  -5.727 -25.884  0.00  0.00    +0.000 N 
ATOM      9  H5  UNL     1     -29.646  -4.328 -27.472  0.00  0.00    +0.000 HD
ATOM     10  H6  UNL     1     -27.105  -6.517 -25.271  0.00  0.00    +0.000 HD
ENDROOT
TORSDOF 0
ENDMDL
