MODEL 1
REMARK VINA RESULT:    -5.106      0.000      0.000
REMARK INTER + INTRA:          -6.296
REMARK INTER:                  -6.061
REMARK INTRA:                  -0.234
REMARK UNBOUND:                -0.295
REMARK  Name = /home/anacleto/Desktop/manuscript_Mpro/naturecomm/supplementary_file_S2/6-chemical-library/molecular_docking/3D_ligand_structure/746.pdb
REMARK  3 active torsions:
REMARK  status: ('A' for Active; 'I' for Inactive)
REMARK    1  A    between atoms: C4_6  and  C5_7
REMARK    2  A    between atoms: N3_9  and  C6_10
REMARK    3  A    between atoms: C6_10  and  C7_11
REMARK                            x       y       z     vdW  Elec       q    Type
REMARK                         _______ _______ _______ _____ _____    ______ ____
ROOT
ATOM      1  C5  UNL     1      16.518  11.005  -2.989  0.00  0.00    +0.000 C 
ATOM      2  O1  UNL     1      17.158   9.958  -2.883  0.00  0.00    +0.000 OA
ATOM      3  N3  UNL     1      16.713  12.062  -2.125  0.00  0.00    +0.000 N 
ATOM      4  H10 UNL     1      16.062  12.836  -2.122  0.00  0.00    +0.000 HD
ENDROOT
BRANCH   1  10
ATOM      5  N1  UNL     1      14.305  10.477  -3.981  0.00  0.00    +0.000 NA
ATOM      6  C1  UNL     1      13.466  10.583  -5.182  0.00  0.00    +0.000 C 
ATOM      7  C2  UNL     1      13.470  11.998  -5.818  0.00  0.00    +0.000 C 
ATOM      8  N2  UNL     1      13.829  13.056  -4.854  0.00  0.00    +0.000 NA
ATOM      9  C3  UNL     1      15.177  12.779  -4.298  0.00  0.00    +0.000 C 
ATOM     10  C4  UNL     1      15.541  11.277  -4.155  0.00  0.00    +0.000 C 
ATOM     11  H1  UNL     1      14.551   9.508  -3.778  0.00  0.00    +0.000 HD
ATOM     12  H6  UNL     1      13.178  12.943  -4.070  0.00  0.00    +0.000 HD
ENDBRANCH   1  10
BRANCH   3  13
ATOM     13  C6  UNL     1      17.541  11.898  -0.953  0.00  0.00    +0.000 C 
BRANCH  13  14
ATOM     14  C7  UNL     1      18.001  13.248  -0.511  0.00  0.00    +0.000 A 
ATOM     15  C8  UNL     1      19.271  13.638  -0.134  0.00  0.00    +0.000 A 
ATOM     16  C9  UNL     1      19.334  15.016   0.222  0.00  0.00    +0.000 A 
ATOM     17  C10 UNL     1      18.108  15.634   0.104  0.00  0.00    +0.000 A 
ATOM     18  S1  UNL     1      16.895  14.557  -0.434  0.00  0.00    +0.000 S 
ENDBRANCH  13  14
ENDBRANCH   3  13
TORSDOF 3
ENDMDL
MODEL 2
REMARK VINA RESULT:    -4.612      4.459      6.621
REMARK INTER + INTRA:          -5.716
REMARK INTER:                  -5.427
REMARK INTRA:                  -0.288
REMARK UNBOUND:                -0.295
REMARK  Name = /home/anacleto/Desktop/manuscript_Mpro/naturecomm/supplementary_file_S2/6-chemical-library/molecular_docking/3D_ligand_structure/746.pdb
REMARK  3 active torsions:
REMARK  status: ('A' for Active; 'I' for Inactive)
REMARK    1  A    between atoms: C4_6  and  C5_7
REMARK    2  A    between atoms: N3_9  and  C6_10
REMARK    3  A    between atoms: C6_10  and  C7_11
REMARK                            x       y       z     vdW  Elec       q    Type
REMARK                         _______ _______ _______ _____ _____    ______ ____
ROOT
ATOM      1  C5  UNL     1      18.817  10.714  -4.821  0.00  0.00    +0.000 C 
ATOM      2  O1  UNL     1      18.988  11.876  -4.451  0.00  0.00    +0.000 OA
ATOM      3  N3  UNL     1      17.581  10.105  -4.748  0.00  0.00    +0.000 N 
ATOM      4  H10 UNL     1      17.502   9.107  -4.893  0.00  0.00    +0.000 HD
ENDROOT
BRANCH   1  10
ATOM      5  N1  UNL     1      20.183   8.644  -4.735  0.00  0.00    +0.000 NA
ATOM      6  C1  UNL     1      21.363   7.954  -5.273  0.00  0.00    +0.000 C 
ATOM      7  C2  UNL     1      21.465   8.017  -6.820  0.00  0.00    +0.000 C 
ATOM      8  N2  UNL     1      20.160   8.245  -7.470  0.00  0.00    +0.000 NA
ATOM      9  C3  UNL     1      19.580   9.519  -6.978  0.00  0.00    +0.000 C 
ATOM     10  C4  UNL     1      19.923   9.881  -5.508  0.00  0.00    +0.000 C 
ATOM     11  H1  UNL     1      20.300   8.875  -3.748  0.00  0.00    +0.000 HD
ATOM     12  H6  UNL     1      19.545   7.505  -7.113  0.00  0.00    +0.000 HD
ENDBRANCH   1  10
BRANCH   3  13
ATOM     13  C6  UNL     1      16.493  10.755  -4.055  0.00  0.00    +0.000 C 
BRANCH  13  14
ATOM     14  C7  UNL     1      15.449  11.119  -5.060  0.00  0.00    +0.000 A 
ATOM     15  C8  UNL     1      15.598  11.855  -6.219  0.00  0.00    +0.000 A 
ATOM     16  C9  UNL     1      14.374  11.996  -6.935  0.00  0.00    +0.000 A 
ATOM     17  C10 UNL     1      13.331  11.360  -6.299  0.00  0.00    +0.000 A 
ATOM     18  S1  UNL     1      13.828  10.600  -4.851  0.00  0.00    +0.000 S 
ENDBRANCH  13  14
ENDBRANCH   3  13
TORSDOF 3
ENDMDL
MODEL 3
REMARK VINA RESULT:    -4.558      4.091      5.353
REMARK INTER + INTRA:          -5.652
REMARK INTER:                  -5.425
REMARK INTRA:                  -0.226
REMARK UNBOUND:                -0.295
REMARK  Name = /home/anacleto/Desktop/manuscript_Mpro/naturecomm/supplementary_file_S2/6-chemical-library/molecular_docking/3D_ligand_structure/746.pdb
REMARK  3 active torsions:
REMARK  status: ('A' for Active; 'I' for Inactive)
REMARK    1  A    between atoms: C4_6  and  C5_7
REMARK    2  A    between atoms: N3_9  and  C6_10
REMARK    3  A    between atoms: C6_10  and  C7_11
REMARK                            x       y       z     vdW  Elec       q    Type
REMARK                         _______ _______ _______ _____ _____    ______ ____
ROOT
ATOM      1  C5  UNL     1      16.965  10.900  -4.426  0.00  0.00    +0.000 C 
ATOM      2  O1  UNL     1      17.145  10.617  -3.241  0.00  0.00    +0.000 OA
ATOM      3  N3  UNL     1      18.007  10.927  -5.330  0.00  0.00    +0.000 N 
ATOM      4  H10 UNL     1      17.867  11.327  -6.248  0.00  0.00    +0.000 HD
ENDROOT
BRANCH   1  10
ATOM      5  N1  UNL     1      14.529  10.497  -4.175  0.00  0.00    +0.000 NA
ATOM      6  C1  UNL     1      13.224  10.540  -4.847  0.00  0.00    +0.000 C 
ATOM      7  C2  UNL     1      12.977  11.852  -5.637  0.00  0.00    +0.000 C 
ATOM      8  N2  UNL     1      13.790  12.979  -5.140  0.00  0.00    +0.000 NA
ATOM      9  C3  UNL     1      15.229  12.629  -5.237  0.00  0.00    +0.000 C 
ATOM     10  C4  UNL     1      15.561  11.126  -5.032  0.00  0.00    +0.000 C 
ATOM     11  H1  UNL     1      14.806   9.541  -3.952  0.00  0.00    +0.000 HD
ATOM     12  H6  UNL     1      13.587  13.041  -4.137  0.00  0.00    +0.000 HD
ENDBRANCH   1  10
BRANCH   3  13
ATOM     13  C6  UNL     1      19.371  10.808  -4.867  0.00  0.00    +0.000 C 
BRANCH  13  14
ATOM     14  C7  UNL     1      20.031   9.710  -5.633  0.00  0.00    +0.000 A 
ATOM     15  C8  UNL     1      20.843   8.700  -5.152  0.00  0.00    +0.000 A 
ATOM     16  C9  UNL     1      21.289   7.824  -6.183  0.00  0.00    +0.000 A 
ATOM     17  C10 UNL     1      20.802   8.192  -7.418  0.00  0.00    +0.000 A 
ATOM     18  S1  UNL     1      19.813   9.583  -7.330  0.00  0.00    +0.000 S 
ENDBRANCH  13  14
ENDBRANCH   3  13
TORSDOF 3
ENDMDL
MODEL 4
REMARK VINA RESULT:    -4.480      2.484      3.216
REMARK INTER + INTRA:          -5.561
REMARK INTER:                  -5.300
REMARK INTRA:                  -0.260
REMARK UNBOUND:                -0.295
REMARK  Name = /home/anacleto/Desktop/manuscript_Mpro/naturecomm/supplementary_file_S2/6-chemical-library/molecular_docking/3D_ligand_structure/746.pdb
REMARK  3 active torsions:
REMARK  status: ('A' for Active; 'I' for Inactive)
REMARK    1  A    between atoms: C4_6  and  C5_7
REMARK    2  A    between atoms: N3_9  and  C6_10
REMARK    3  A    between atoms: C6_10  and  C7_11
REMARK                            x       y       z     vdW  Elec       q    Type
REMARK                         _______ _______ _______ _____ _____    ______ ____
ROOT
ATOM      1  C5  UNL     1      15.457  14.332  -4.359  0.00  0.00    +0.000 C 
ATOM      2  O1  UNL     1      16.477  14.518  -5.022  0.00  0.00    +0.000 OA
ATOM      3  N3  UNL     1      15.000  15.268  -3.455  0.00  0.00    +0.000 N 
ATOM      4  H10 UNL     1      14.268  15.023  -2.802  0.00  0.00    +0.000 HD
ENDROOT
BRANCH   1  10
ATOM      5  N1  UNL     1      14.630  12.625  -5.959  0.00  0.00    +0.000 NA
ATOM      6  C1  UNL     1      13.613  11.592  -6.203  0.00  0.00    +0.000 C 
ATOM      7  C2  UNL     1      13.394  10.641  -4.997  0.00  0.00    +0.000 C 
ATOM      8  N2  UNL     1      14.561  10.584  -4.096  0.00  0.00    +0.000 NA
ATOM      9  C3  UNL     1      14.855  11.945  -3.582  0.00  0.00    +0.000 C 
ATOM     10  C4  UNL     1      14.536  13.107  -4.561  0.00  0.00    +0.000 C 
ATOM     11  H1  UNL     1      14.528  13.412  -6.600  0.00  0.00    +0.000 HD
ATOM     12  H6  UNL     1      15.356  10.337  -4.695  0.00  0.00    +0.000 HD
ENDBRANCH   1  10
BRANCH   3  13
ATOM     13  C6  UNL     1      15.816  16.414  -3.124  0.00  0.00    +0.000 C 
BRANCH  13  14
ATOM     14  C7  UNL     1      16.303  16.253  -1.722  0.00  0.00    +0.000 A 
ATOM     15  C8  UNL     1      15.814  15.417  -0.737  0.00  0.00    +0.000 A 
ATOM     16  C9  UNL     1      16.540  15.530   0.483  0.00  0.00    +0.000 A 
ATOM     17  C10 UNL     1      17.562  16.449   0.390  0.00  0.00    +0.000 A 
ATOM     18  S1  UNL     1      17.643  17.165  -1.160  0.00  0.00    +0.000 S 
ENDBRANCH  13  14
ENDBRANCH   3  13
TORSDOF 3
ENDMDL
MODEL 5
REMARK VINA RESULT:    -4.411     15.706     16.810
REMARK INTER + INTRA:          -5.479
REMARK INTER:                  -5.263
REMARK INTRA:                  -0.216
REMARK UNBOUND:                -0.295
REMARK  Name = /home/anacleto/Desktop/manuscript_Mpro/naturecomm/supplementary_file_S2/6-chemical-library/molecular_docking/3D_ligand_structure/746.pdb
REMARK  3 active torsions:
REMARK  status: ('A' for Active; 'I' for Inactive)
REMARK    1  A    between atoms: C4_6  and  C5_7
REMARK    2  A    between atoms: N3_9  and  C6_10
REMARK    3  A    between atoms: C6_10  and  C7_11
REMARK                            x       y       z     vdW  Elec       q    Type
REMARK                         _______ _______ _______ _____ _____    ______ ____
ROOT
ATOM      1  C5  UNL     1      25.156  15.760   9.832  0.00  0.00    +0.000 C 
ATOM      2  O1  UNL     1      24.947  16.849   9.296  0.00  0.00    +0.000 OA
ATOM      3  N3  UNL     1      24.161  15.080  10.502  0.00  0.00    +0.000 N 
ATOM      4  H10 UNL     1      24.395  14.282  11.077  0.00  0.00    +0.000 HD
ENDROOT
BRANCH   1  10
ATOM      5  N1  UNL     1      26.453  13.747  10.484  0.00  0.00    +0.000 NA
ATOM      6  C1  UNL     1      27.786  13.131  10.523  0.00  0.00    +0.000 C 
ATOM      7  C2  UNL     1      28.569  13.266   9.191  0.00  0.00    +0.000 C 
ATOM      8  N2  UNL     1      27.685  13.466   8.026  0.00  0.00    +0.000 NA
ATOM      9  C3  UNL     1      26.875  14.693   8.229  0.00  0.00    +0.000 C 
ATOM     10  C4  UNL     1      26.498  15.005   9.702  0.00  0.00    +0.000 C 
ATOM     11  H1  UNL     1      26.100  13.939  11.422  0.00  0.00    +0.000 HD
ATOM     12  H6  UNL     1      27.019  12.687   8.052  0.00  0.00    +0.000 HD
ENDBRANCH   1  10
BRANCH   3  13
ATOM     13  C6  UNL     1      22.890  15.720  10.755  0.00  0.00    +0.000 C 
BRANCH  13  14
ATOM     14  C7  UNL     1      22.992  16.469  12.042  0.00  0.00    +0.000 A 
ATOM     15  C8  UNL     1      22.313  17.610  12.424  0.00  0.00    +0.000 A 
ATOM     16  C9  UNL     1      22.666  18.040  13.735  0.00  0.00    +0.000 A 
ATOM     17  C10 UNL     1      23.603  17.212  14.314  0.00  0.00    +0.000 A 
ATOM     18  S1  UNL     1      24.049  15.926  13.280  0.00  0.00    +0.000 S 
ENDBRANCH  13  14
ENDBRANCH   3  13
TORSDOF 3
ENDMDL
MODEL 6
REMARK VINA RESULT:    -4.389     14.928     16.540
REMARK INTER + INTRA:          -5.453
REMARK INTER:                  -5.209
REMARK INTRA:                  -0.244
REMARK UNBOUND:                -0.295
REMARK  Name = /home/anacleto/Desktop/manuscript_Mpro/naturecomm/supplementary_file_S2/6-chemical-library/molecular_docking/3D_ligand_structure/746.pdb
REMARK  3 active torsions:
REMARK  status: ('A' for Active; 'I' for Inactive)
REMARK    1  A    between atoms: C4_6  and  C5_7
REMARK    2  A    between atoms: N3_9  and  C6_10
REMARK    3  A    between atoms: C6_10  and  C7_11
REMARK                            x       y       z     vdW  Elec       q    Type
REMARK                         _______ _______ _______ _____ _____    ______ ____
ROOT
ATOM      1  C5  UNL     1      18.965   7.130  12.387  0.00  0.00    +0.000 C 
ATOM      2  O1  UNL     1      19.877   6.708  13.099  0.00  0.00    +0.000 OA
ATOM      3  N3  UNL     1      17.909   7.845  12.912  0.00  0.00    +0.000 N 
ATOM      4  H10 UNL     1      17.093   8.028  12.343  0.00  0.00    +0.000 HD
ENDROOT
BRANCH   1  10
ATOM      5  N1  UNL     1      20.141   7.741  10.289  0.00  0.00    +0.000 NA
ATOM      6  C1  UNL     1      20.044   7.793   8.823  0.00  0.00    +0.000 C 
ATOM      7  C2  UNL     1      19.487   6.491   8.192  0.00  0.00    +0.000 C 
ATOM      8  N2  UNL     1      19.679   5.310   9.057  0.00  0.00    +0.000 NA
ATOM      9  C3  UNL     1      19.001   5.536  10.357  0.00  0.00    +0.000 C 
ATOM     10  C4  UNL     1      18.979   7.009  10.847  0.00  0.00    +0.000 C 
ATOM     11  H1  UNL     1      20.186   8.675  10.696  0.00  0.00    +0.000 HD
ATOM     12  H6  UNL     1      20.682   5.286   9.267  0.00  0.00    +0.000 HD
ENDBRANCH   1  10
BRANCH   3  13
ATOM     13  C6  UNL     1      17.747   7.954  14.344  0.00  0.00    +0.000 C 
BRANCH  13  14
ATOM     14  C7  UNL     1      16.391   7.443  14.702  0.00  0.00    +0.000 A 
ATOM     15  C8  UNL     1      15.282   8.166  15.096  0.00  0.00    +0.000 A 
ATOM     16  C9  UNL     1      14.154   7.334  15.353  0.00  0.00    +0.000 A 
ATOM     17  C10 UNL     1      14.438   6.002  15.144  0.00  0.00    +0.000 A 
ATOM     18  S1  UNL     1      16.054   5.762  14.642  0.00  0.00    +0.000 S 
ENDBRANCH  13  14
ENDBRANCH   3  13
TORSDOF 3
ENDMDL
MODEL 7
REMARK VINA RESULT:    -4.355      2.580      3.144
REMARK INTER + INTRA:          -5.413
REMARK INTER:                  -5.119
REMARK INTRA:                  -0.295
REMARK UNBOUND:                -0.295
REMARK  Name = /home/anacleto/Desktop/manuscript_Mpro/naturecomm/supplementary_file_S2/6-chemical-library/molecular_docking/3D_ligand_structure/746.pdb
REMARK  3 active torsions:
REMARK  status: ('A' for Active; 'I' for Inactive)
REMARK    1  A    between atoms: C4_6  and  C5_7
REMARK    2  A    between atoms: N3_9  and  C6_10
REMARK    3  A    between atoms: C6_10  and  C7_11
REMARK                            x       y       z     vdW  Elec       q    Type
REMARK                         _______ _______ _______ _____ _____    ______ ____
ROOT
ATOM      1  C5  UNL     1      16.939  12.677  -1.535  0.00  0.00    +0.000 C 
ATOM      2  O1  UNL     1      16.746  12.029  -0.506  0.00  0.00    +0.000 OA
ATOM      3  N3  UNL     1      17.338  13.996  -1.496  0.00  0.00    +0.000 N 
ATOM      4  H10 UNL     1      17.321  14.553  -2.340  0.00  0.00    +0.000 HD
ENDROOT
BRANCH   1  10
ATOM      5  N1  UNL     1      18.058  12.454  -3.739  0.00  0.00    +0.000 NA
ATOM      6  C1  UNL     1      17.898  12.024  -5.135  0.00  0.00    +0.000 C 
ATOM      7  C2  UNL     1      17.221  10.637  -5.282  0.00  0.00    +0.000 C 
ATOM      8  N2  UNL     1      17.366   9.799  -4.075  0.00  0.00    +0.000 NA
ATOM      9  C3  UNL     1      16.767  10.501  -2.913  0.00  0.00    +0.000 C 
ATOM     10  C4  UNL     1      16.873  12.050  -2.946  0.00  0.00    +0.000 C 
ATOM     11  H1  UNL     1      18.188  13.464  -3.669  0.00  0.00    +0.000 HD
ATOM     12  H6  UNL     1      18.373   9.764  -3.888  0.00  0.00    +0.000 HD
ENDBRANCH   1  10
BRANCH   3  13
ATOM     13  C6  UNL     1      17.358  14.711  -0.240  0.00  0.00    +0.000 C 
BRANCH  13  14
ATOM     14  C7  UNL     1      18.771  15.086   0.063  0.00  0.00    +0.000 A 
ATOM     15  C8  UNL     1      19.852  14.252   0.268  0.00  0.00    +0.000 A 
ATOM     16  C9  UNL     1      21.053  14.972   0.530  0.00  0.00    +0.000 A 
ATOM     17  C10 UNL     1      20.850  16.334   0.514  0.00  0.00    +0.000 A 
ATOM     18  S1  UNL     1      19.222  16.737   0.184  0.00  0.00    +0.000 S 
ENDBRANCH  13  14
ENDBRANCH   3  13
TORSDOF 3
ENDMDL
MODEL 8
REMARK VINA RESULT:    -4.324      2.125      2.528
REMARK INTER + INTRA:          -5.377
REMARK INTER:                  -5.178
REMARK INTRA:                  -0.200
REMARK UNBOUND:                -0.295
REMARK  Name = /home/anacleto/Desktop/manuscript_Mpro/naturecomm/supplementary_file_S2/6-chemical-library/molecular_docking/3D_ligand_structure/746.pdb
REMARK  3 active torsions:
REMARK  status: ('A' for Active; 'I' for Inactive)
REMARK    1  A    between atoms: C4_6  and  C5_7
REMARK    2  A    between atoms: N3_9  and  C6_10
REMARK    3  A    between atoms: C6_10  and  C7_11
REMARK                            x       y       z     vdW  Elec       q    Type
REMARK                         _______ _______ _______ _____ _____    ______ ____
ROOT
ATOM      1  C5  UNL     1      14.839  13.914  -3.343  0.00  0.00    +0.000 C 
ATOM      2  O1  UNL     1      13.932  14.723  -3.145  0.00  0.00    +0.000 OA
ATOM      3  N3  UNL     1      15.870  13.746  -2.443  0.00  0.00    +0.000 N 
ATOM      4  H10 UNL     1      16.687  13.211  -2.705  0.00  0.00    +0.000 HD
ENDROOT
BRANCH   1  10
ATOM      5  N1  UNL     1      13.473  12.778  -5.075  0.00  0.00    +0.000 NA
ATOM      6  C1  UNL     1      13.446  11.705  -6.079  0.00  0.00    +0.000 C 
ATOM      7  C2  UNL     1      14.709  11.667  -6.979  0.00  0.00    +0.000 C 
ATOM      8  N2  UNL     1      15.402  12.968  -7.046  0.00  0.00    +0.000 NA
ATOM      9  C3  UNL     1      15.803  13.384  -5.679  0.00  0.00    +0.000 C 
ATOM     10  C4  UNL     1      14.846  12.937  -4.541  0.00  0.00    +0.000 C 
ATOM     11  H1  UNL     1      12.826  12.591  -4.309  0.00  0.00    +0.000 HD
ATOM     12  H6  UNL     1      14.688  13.642  -7.342  0.00  0.00    +0.000 HD
ENDBRANCH   1  10
BRANCH   3  13
ATOM     13  C6  UNL     1      16.013  14.654  -1.328  0.00  0.00    +0.000 C 
BRANCH  13  14
ATOM     14  C7  UNL     1      17.379  14.476  -0.751  0.00  0.00    +0.000 A 
ATOM     15  C8  UNL     1      18.182  13.353  -0.787  0.00  0.00    +0.000 A 
ATOM     16  C9  UNL     1      19.431  13.557  -0.131  0.00  0.00    +0.000 A 
ATOM     17  C10 UNL     1      19.541  14.831   0.382  0.00  0.00    +0.000 A 
ATOM     18  S1  UNL     1      18.147  15.770   0.072  0.00  0.00    +0.000 S 
ENDBRANCH  13  14
ENDBRANCH   3  13
TORSDOF 3
ENDMDL
MODEL 9
REMARK VINA RESULT:    -4.170      5.469      6.794
REMARK INTER + INTRA:          -5.195
REMARK INTER:                  -4.901
REMARK INTRA:                  -0.295
REMARK UNBOUND:                -0.295
REMARK  Name = /home/anacleto/Desktop/manuscript_Mpro/naturecomm/supplementary_file_S2/6-chemical-library/molecular_docking/3D_ligand_structure/746.pdb
REMARK  3 active torsions:
REMARK  status: ('A' for Active; 'I' for Inactive)
REMARK    1  A    between atoms: C4_6  and  C5_7
REMARK    2  A    between atoms: N3_9  and  C6_10
REMARK    3  A    between atoms: C6_10  and  C7_11
REMARK                            x       y       z     vdW  Elec       q    Type
REMARK                         _______ _______ _______ _____ _____    ______ ____
ROOT
ATOM      1  C5  UNL     1      18.738  10.516  -6.158  0.00  0.00    +0.000 C 
ATOM      2  O1  UNL     1      19.239  11.358  -6.904  0.00  0.00    +0.000 OA
ATOM      3  N3  UNL     1      19.084   9.183  -6.235  0.00  0.00    +0.000 N 
ATOM      4  H10 UNL     1      18.538   8.491  -5.738  0.00  0.00    +0.000 HD
ENDROOT
BRANCH   1  10
ATOM      5  N1  UNL     1      16.377  10.630  -5.401  0.00  0.00    +0.000 NA
ATOM      6  C1  UNL     1      15.462  11.162  -4.382  0.00  0.00    +0.000 C 
ATOM      7  C2  UNL     1      15.971  10.969  -2.930  0.00  0.00    +0.000 C 
ATOM      8  N2  UNL     1      16.936   9.859  -2.806  0.00  0.00    +0.000 NA
ATOM      9  C3  UNL     1      18.100  10.117  -3.689  0.00  0.00    +0.000 C 
ATOM     10  C4  UNL     1      17.782  10.883  -5.001  0.00  0.00    +0.000 C 
ATOM     11  H1  UNL     1      16.202  11.044  -6.317  0.00  0.00    +0.000 HD
ATOM     12  H6  UNL     1      16.463   9.041  -3.204  0.00  0.00    +0.000 HD
ENDBRANCH   1  10
BRANCH   3  13
ATOM     13  C6  UNL     1      19.906   8.709  -7.324  0.00  0.00    +0.000 C 
BRANCH  13  14
ATOM     14  C7  UNL     1      21.190   8.202  -6.755  0.00  0.00    +0.000 A 
ATOM     15  C8  UNL     1      22.370   7.926  -7.419  0.00  0.00    +0.000 A 
ATOM     16  C9  UNL     1      23.391   7.461  -6.542  0.00  0.00    +0.000 A 
ATOM     17  C10 UNL     1      22.959   7.399  -5.236  0.00  0.00    +0.000 A 
ATOM     18  S1  UNL     1      21.333   7.900  -5.073  0.00  0.00    +0.000 S 
ENDBRANCH  13  14
ENDBRANCH   3  13
TORSDOF 3
ENDMDL
