MODEL 1
REMARK VINA RESULT:    -5.468      0.000      0.000
REMARK INTER + INTRA:          -8.249
REMARK INTER:                  -7.537
REMARK INTRA:                  -0.713
REMARK UNBOUND:                -0.544
REMARK  Name = /home/anacleto/Desktop/manuscript_Mpro/naturecomm/supplementary_file_S2/6-chemical-library/molecular_docking/3D_ligand_structure/428.pdb
REMARK  7 active torsions:
REMARK  status: ('A' for Active; 'I' for Inactive)
REMARK    1  A    between atoms: C4_5  and  C6_8
REMARK    2  A    between atoms: C6_8  and  C7_9
REMARK    3  A    between atoms: C7_9  and  C8_10
REMARK    4  A    between atoms: C8_10  and  C9_12
REMARK    5  A    between atoms: C9_12  and  O3_13
REMARK    6  A    between atoms: O3_13  and  C10_14
REMARK    7  A    between atoms: C10_14  and  C11_16
REMARK                            x       y       z     vdW  Elec       q    Type
REMARK                         _______ _______ _______ _____ _____    ______ ____
ROOT
ATOM      1  C8  UNL     1      18.238  11.767  -2.351  0.00  0.00    +0.000 C 
ATOM      2  O2  UNL     1      18.744  12.477  -3.226  0.00  0.00    +0.000 OA
ENDROOT
BRANCH   1   3
ATOM      3  C7  UNL     1      18.412  12.104  -0.886  0.00  0.00    +0.000 C 
BRANCH   3   4
ATOM      4  C6  UNL     1      19.440  13.210  -0.665  0.00  0.00    +0.000 C 
BRANCH   4   9
ATOM      5  N1  UNL     1      19.065  16.419   1.253  0.00  0.00    +0.000 N 
ATOM      6  C1  UNL     1      17.637  16.519   1.443  0.00  0.00    +0.000 C 
ATOM      7  C2  UNL     1      16.857  15.976   0.259  0.00  0.00    +0.000 C 
ATOM      8  C3  UNL     1      17.358  14.577  -0.081  0.00  0.00    +0.000 C 
ATOM      9  C4  UNL     1      18.851  14.615  -0.424  0.00  0.00    +0.000 C 
ATOM     10  C5  UNL     1      19.660  15.343   0.651  0.00  0.00    +0.000 C 
ATOM     11  O1  UNL     1      20.831  15.075   0.909  0.00  0.00    +0.000 OA
ATOM     12  H1  UNL     1      19.660  16.840   1.958  0.00  0.00    +0.000 HD
ENDBRANCH   4   9
ENDBRANCH   3   4
ENDBRANCH   1   3
BRANCH   1  13
ATOM     13  C9  UNL     1      17.467  10.491  -2.681  0.00  0.00    +0.000 C 
BRANCH  13  14
ATOM     14  O3  UNL     1      16.105  10.566  -2.269  0.00  0.00    +0.000 OA
BRANCH  14  15
ATOM     15  C10 UNL     1      15.374  11.509  -2.943  0.00  0.00    +0.000 C 
ATOM     16  O4  UNL     1      14.960  12.544  -2.430  0.00  0.00    +0.000 OA
BRANCH  15  17
ATOM     17  C11 UNL     1      15.209  11.095  -4.428  0.00  0.00    +0.000 C 
ATOM     18  O5  UNL     1      15.831  12.039  -5.298  0.00  0.00    +0.000 OA
ATOM     19  C12 UNL     1      15.775  11.610  -6.652  0.00  0.00    +0.000 C 
ATOM     20  C13 UNL     1      14.332  11.391  -7.070  0.00  0.00    +0.000 C 
ATOM     21  C14 UNL     1      13.660  10.458  -6.079  0.00  0.00    +0.000 C 
ATOM     22  O6  UNL     1      13.826  10.950  -4.755  0.00  0.00    +0.000 OA
ENDBRANCH  15  17
ENDBRANCH  14  15
ENDBRANCH  13  14
ENDBRANCH   1  13
TORSDOF 7
ENDMDL
MODEL 2
REMARK VINA RESULT:    -5.443      1.440      2.209
REMARK INTER + INTRA:          -8.215
REMARK INTER:                  -7.622
REMARK INTRA:                  -0.593
REMARK UNBOUND:                -0.544
REMARK  Name = /home/anacleto/Desktop/manuscript_Mpro/naturecomm/supplementary_file_S2/6-chemical-library/molecular_docking/3D_ligand_structure/428.pdb
REMARK  7 active torsions:
REMARK  status: ('A' for Active; 'I' for Inactive)
REMARK    1  A    between atoms: C4_5  and  C6_8
REMARK    2  A    between atoms: C6_8  and  C7_9
REMARK    3  A    between atoms: C7_9  and  C8_10
REMARK    4  A    between atoms: C8_10  and  C9_12
REMARK    5  A    between atoms: C9_12  and  O3_13
REMARK    6  A    between atoms: O3_13  and  C10_14
REMARK    7  A    between atoms: C10_14  and  C11_16
REMARK                            x       y       z     vdW  Elec       q    Type
REMARK                         _______ _______ _______ _____ _____    ______ ____
ROOT
ATOM      1  C8  UNL     1      17.772  11.214  -1.625  0.00  0.00    +0.000 C 
ATOM      2  O2  UNL     1      18.139  10.398  -2.476  0.00  0.00    +0.000 OA
ENDROOT
BRANCH   1   3
ATOM      3  C7  UNL     1      18.785  11.984  -0.805  0.00  0.00    +0.000 C 
BRANCH   3   4
ATOM      4  C6  UNL     1      18.339  13.418  -0.534  0.00  0.00    +0.000 C 
BRANCH   4   9
ATOM      5  N1  UNL     1      19.632  16.693   0.779  0.00  0.00    +0.000 N 
ATOM      6  C1  UNL     1      20.926  16.807   0.148  0.00  0.00    +0.000 C 
ATOM      7  C2  UNL     1      21.613  15.464  -0.010  0.00  0.00    +0.000 C 
ATOM      8  C3  UNL     1      20.661  14.482  -0.684  0.00  0.00    +0.000 C 
ATOM      9  C4  UNL     1      19.391  14.312   0.156  0.00  0.00    +0.000 C 
ATOM     10  C5  UNL     1      18.769  15.662   0.521  0.00  0.00    +0.000 C 
ATOM     11  O1  UNL     1      17.563  15.823   0.693  0.00  0.00    +0.000 OA
ATOM     12  H1  UNL     1      19.144  17.553   1.004  0.00  0.00    +0.000 HD
ENDBRANCH   4   9
ENDBRANCH   3   4
ENDBRANCH   1   3
BRANCH   1  13
ATOM     13  C9  UNL     1      16.297  11.454  -1.308  0.00  0.00    +0.000 C 
BRANCH  13  14
ATOM     14  O3  UNL     1      15.474  11.340  -2.465  0.00  0.00    +0.000 OA
BRANCH  14  15
ATOM     15  C10 UNL     1      15.057  12.545  -2.968  0.00  0.00    +0.000 C 
ATOM     16  O4  UNL     1      15.190  13.612  -2.377  0.00  0.00    +0.000 OA
BRANCH  15  17
ATOM     17  C11 UNL     1      14.458  12.353  -4.385  0.00  0.00    +0.000 C 
ATOM     18  O5  UNL     1      13.971  11.025  -4.563  0.00  0.00    +0.000 OA
ATOM     19  C12 UNL     1      13.326  10.874  -5.821  0.00  0.00    +0.000 C 
ATOM     20  C13 UNL     1      14.283  11.231  -6.944  0.00  0.00    +0.000 C 
ATOM     21  C14 UNL     1      14.862  12.611  -6.687  0.00  0.00    +0.000 C 
ATOM     22  O6  UNL     1      15.428  12.668  -5.384  0.00  0.00    +0.000 OA
ENDBRANCH  15  17
ENDBRANCH  14  15
ENDBRANCH  13  14
ENDBRANCH   1  13
TORSDOF 7
ENDMDL
MODEL 3
REMARK VINA RESULT:    -5.423      2.955      3.867
REMARK INTER + INTRA:          -8.187
REMARK INTER:                  -7.581
REMARK INTRA:                  -0.605
REMARK UNBOUND:                -0.544
REMARK  Name = /home/anacleto/Desktop/manuscript_Mpro/naturecomm/supplementary_file_S2/6-chemical-library/molecular_docking/3D_ligand_structure/428.pdb
REMARK  7 active torsions:
REMARK  status: ('A' for Active; 'I' for Inactive)
REMARK    1  A    between atoms: C4_5  and  C6_8
REMARK    2  A    between atoms: C6_8  and  C7_9
REMARK    3  A    between atoms: C7_9  and  C8_10
REMARK    4  A    between atoms: C8_10  and  C9_12
REMARK    5  A    between atoms: C9_12  and  O3_13
REMARK    6  A    between atoms: O3_13  and  C10_14
REMARK    7  A    between atoms: C10_14  and  C11_16
REMARK                            x       y       z     vdW  Elec       q    Type
REMARK                         _______ _______ _______ _____ _____    ______ ____
ROOT
ATOM      1  C8  UNL     1      16.325  13.947  -2.293  0.00  0.00    +0.000 C 
ATOM      2  O2  UNL     1      17.091  14.267  -3.208  0.00  0.00    +0.000 OA
ENDROOT
BRANCH   1   3
ATOM      3  C7  UNL     1      16.584  14.403  -0.873  0.00  0.00    +0.000 C 
BRANCH   3   4
ATOM      4  C6  UNL     1      15.899  15.730  -0.558  0.00  0.00    +0.000 C 
BRANCH   4   9
ATOM      5  N1  UNL     1      14.032  18.097  -2.801  0.00  0.00    +0.000 N 
ATOM      6  C1  UNL     1      12.689  18.057  -2.269  0.00  0.00    +0.000 C 
ATOM      7  C2  UNL     1      12.314  16.682  -1.750  0.00  0.00    +0.000 C 
ATOM      8  C3  UNL     1      13.392  16.187  -0.792  0.00  0.00    +0.000 C 
ATOM      9  C4  UNL     1      14.745  16.114  -1.509  0.00  0.00    +0.000 C 
ATOM     10  C5  UNL     1      15.077  17.423  -2.229  0.00  0.00    +0.000 C 
ATOM     11  O1  UNL     1      16.225  17.823  -2.403  0.00  0.00    +0.000 OA
ATOM     12  H1  UNL     1      14.330  18.957  -3.249  0.00  0.00    +0.000 HD
ENDBRANCH   4   9
ENDBRANCH   3   4
ENDBRANCH   1   3
BRANCH   1  13
ATOM     13  C9  UNL     1      15.120  13.036  -2.519  0.00  0.00    +0.000 C 
BRANCH  13  14
ATOM     14  O3  UNL     1      15.414  11.674  -2.222  0.00  0.00    +0.000 OA
BRANCH  14  15
ATOM     15  C10 UNL     1      15.830  10.948  -3.308  0.00  0.00    +0.000 C 
ATOM     16  O4  UNL     1      16.693  10.078  -3.255  0.00  0.00    +0.000 OA
BRANCH  15  17
ATOM     17  C11 UNL     1      15.018  11.356  -4.565  0.00  0.00    +0.000 C 
ATOM     18  O5  UNL     1      13.838  10.566  -4.695  0.00  0.00    +0.000 OA
ATOM     19  C12 UNL     1      13.038  11.006  -5.784  0.00  0.00    +0.000 C 
ATOM     20  C13 UNL     1      13.839  10.959  -7.073  0.00  0.00    +0.000 C 
ATOM     21  C14 UNL     1      15.135  11.727  -6.884  0.00  0.00    +0.000 C 
ATOM     22  O6  UNL     1      15.825  11.246  -5.737  0.00  0.00    +0.000 OA
ENDBRANCH  15  17
ENDBRANCH  14  15
ENDBRANCH  13  14
ENDBRANCH   1  13
TORSDOF 7
ENDMDL
MODEL 4
REMARK VINA RESULT:    -5.403      1.684      2.954
REMARK INTER + INTRA:          -8.158
REMARK INTER:                  -7.592
REMARK INTRA:                  -0.566
REMARK UNBOUND:                -0.544
REMARK  Name = /home/anacleto/Desktop/manuscript_Mpro/naturecomm/supplementary_file_S2/6-chemical-library/molecular_docking/3D_ligand_structure/428.pdb
REMARK  7 active torsions:
REMARK  status: ('A' for Active; 'I' for Inactive)
REMARK    1  A    between atoms: C4_5  and  C6_8
REMARK    2  A    between atoms: C6_8  and  C7_9
REMARK    3  A    between atoms: C7_9  and  C8_10
REMARK    4  A    between atoms: C8_10  and  C9_12
REMARK    5  A    between atoms: C9_12  and  O3_13
REMARK    6  A    between atoms: O3_13  and  C10_14
REMARK    7  A    between atoms: C10_14  and  C11_16
REMARK                            x       y       z     vdW  Elec       q    Type
REMARK                         _______ _______ _______ _____ _____    ______ ____
ROOT
ATOM      1  C8  UNL     1      15.020  14.851  -2.063  0.00  0.00    +0.000 C 
ATOM      2  O2  UNL     1      14.125  15.583  -1.630  0.00  0.00    +0.000 OA
ENDROOT
BRANCH   1   3
ATOM      3  C7  UNL     1      16.472  15.126  -1.731  0.00  0.00    +0.000 C 
BRANCH   3   4
ATOM      4  C6  UNL     1      16.698  15.304  -0.233  0.00  0.00    +0.000 C 
BRANCH   4   9
ATOM      5  N1  UNL     1      20.003  16.516   1.084  0.00  0.00    +0.000 N 
ATOM      6  C1  UNL     1      20.947  15.988   0.126  0.00  0.00    +0.000 C 
ATOM      7  C2  UNL     1      20.532  14.630  -0.406  0.00  0.00    +0.000 C 
ATOM      8  C3  UNL     1      19.092  14.696  -0.903  0.00  0.00    +0.000 C 
ATOM      9  C4  UNL     1      18.155  15.107   0.238  0.00  0.00    +0.000 C 
ATOM     10  C5  UNL     1      18.648  16.370   0.948  0.00  0.00    +0.000 C 
ATOM     11  O1  UNL     1      17.894  17.179   1.483  0.00  0.00    +0.000 OA
ATOM     12  H1  UNL     1      20.249  17.379   1.555  0.00  0.00    +0.000 HD
ENDBRANCH   4   9
ENDBRANCH   3   4
ENDBRANCH   1   3
BRANCH   1  13
ATOM     13  C9  UNL     1      14.733  13.674  -2.993  0.00  0.00    +0.000 C 
BRANCH  13  14
ATOM     14  O3  UNL     1      14.955  12.420  -2.356  0.00  0.00    +0.000 OA
BRANCH  14  15
ATOM     15  C10 UNL     1      15.325  11.419  -3.217  0.00  0.00    +0.000 C 
ATOM     16  O4  UNL     1      16.021  10.464  -2.891  0.00  0.00    +0.000 OA
BRANCH  15  17
ATOM     17  C11 UNL     1      14.692  11.657  -4.613  0.00  0.00    +0.000 C 
ATOM     18  O5  UNL     1      13.566  10.806  -4.819  0.00  0.00    +0.000 OA
ATOM     19  C12 UNL     1      12.919  11.094  -6.052  0.00  0.00    +0.000 C 
ATOM     20  C13 UNL     1      13.899  10.947  -7.202  0.00  0.00    +0.000 C 
ATOM     21  C14 UNL     1      15.132  11.787  -6.919  0.00  0.00    +0.000 C 
ATOM     22  O6  UNL     1      15.663  11.459  -5.641  0.00  0.00    +0.000 OA
ENDBRANCH  15  17
ENDBRANCH  14  15
ENDBRANCH  13  14
ENDBRANCH   1  13
TORSDOF 7
ENDMDL
MODEL 5
REMARK VINA RESULT:    -5.255      3.493      4.792
REMARK INTER + INTRA:          -7.949
REMARK INTER:                  -7.200
REMARK INTRA:                  -0.749
REMARK UNBOUND:                -0.544
REMARK  Name = /home/anacleto/Desktop/manuscript_Mpro/naturecomm/supplementary_file_S2/6-chemical-library/molecular_docking/3D_ligand_structure/428.pdb
REMARK  7 active torsions:
REMARK  status: ('A' for Active; 'I' for Inactive)
REMARK    1  A    between atoms: C4_5  and  C6_8
REMARK    2  A    between atoms: C6_8  and  C7_9
REMARK    3  A    between atoms: C7_9  and  C8_10
REMARK    4  A    between atoms: C8_10  and  C9_12
REMARK    5  A    between atoms: C9_12  and  O3_13
REMARK    6  A    between atoms: O3_13  and  C10_14
REMARK    7  A    between atoms: C10_14  and  C11_16
REMARK                            x       y       z     vdW  Elec       q    Type
REMARK                         _______ _______ _______ _____ _____    ______ ____
ROOT
ATOM      1  C8  UNL     1      16.619  14.997  -0.487  0.00  0.00    +0.000 C 
ATOM      2  O2  UNL     1      16.201  15.472   0.574  0.00  0.00    +0.000 OA
ENDROOT
BRANCH   1   3
ATOM      3  C7  UNL     1      16.696  15.847  -1.737  0.00  0.00    +0.000 C 
BRANCH   3   4
ATOM      4  C6  UNL     1      15.331  16.038  -2.392  0.00  0.00    +0.000 C 
BRANCH   4   9
ATOM      5  N1  UNL     1      12.359  18.335  -2.286  0.00  0.00    +0.000 N 
ATOM      6  C1  UNL     1      12.851  19.532  -2.927  0.00  0.00    +0.000 C 
ATOM      7  C2  UNL     1      14.314  19.792  -2.620  0.00  0.00    +0.000 C 
ATOM      8  C3  UNL     1      15.126  18.535  -2.911  0.00  0.00    +0.000 C 
ATOM      9  C4  UNL     1      14.622  17.367  -2.056  0.00  0.00    +0.000 C 
ATOM     10  C5  UNL     1      13.106  17.194  -2.172  0.00  0.00    +0.000 C 
ATOM     11  O1  UNL     1      12.542  16.108  -2.057  0.00  0.00    +0.000 OA
ATOM     12  H1  UNL     1      11.367  18.136  -2.367  0.00  0.00    +0.000 HD
ENDBRANCH   4   9
ENDBRANCH   3   4
ENDBRANCH   1   3
BRANCH   1  13
ATOM     13  C9  UNL     1      17.023  13.530  -0.620  0.00  0.00    +0.000 C 
BRANCH  13  14
ATOM     14  O3  UNL     1      16.793  13.028  -1.934  0.00  0.00    +0.000 OA
BRANCH  14  15
ATOM     15  C10 UNL     1      15.900  11.990  -1.980  0.00  0.00    +0.000 C 
ATOM     16  O4  UNL     1      15.814  11.127  -1.112  0.00  0.00    +0.000 OA
BRANCH  15  17
ATOM     17  C11 UNL     1      15.005  12.111  -3.240  0.00  0.00    +0.000 C 
ATOM     18  O5  UNL     1      14.751  10.832  -3.817  0.00  0.00    +0.000 OA
ATOM     19  C12 UNL     1      13.846  10.927  -4.909  0.00  0.00    +0.000 C 
ATOM     20  C13 UNL     1      14.397  11.871  -5.963  0.00  0.00    +0.000 C 
ATOM     21  C14 UNL     1      14.749  13.196  -5.311  0.00  0.00    +0.000 C 
ATOM     22  O6  UNL     1      15.609  12.980  -4.199  0.00  0.00    +0.000 OA
ENDBRANCH  15  17
ENDBRANCH  14  15
ENDBRANCH  13  14
ENDBRANCH   1  13
TORSDOF 7
ENDMDL
MODEL 6
REMARK VINA RESULT:    -5.141     13.814     15.206
REMARK INTER + INTRA:          -7.789
REMARK INTER:                  -7.136
REMARK INTRA:                  -0.653
REMARK UNBOUND:                -0.544
REMARK  Name = /home/anacleto/Desktop/manuscript_Mpro/naturecomm/supplementary_file_S2/6-chemical-library/molecular_docking/3D_ligand_structure/428.pdb
REMARK  7 active torsions:
REMARK  status: ('A' for Active; 'I' for Inactive)
REMARK    1  A    between atoms: C4_5  and  C6_8
REMARK    2  A    between atoms: C6_8  and  C7_9
REMARK    3  A    between atoms: C7_9  and  C8_10
REMARK    4  A    between atoms: C8_10  and  C9_12
REMARK    5  A    between atoms: C9_12  and  O3_13
REMARK    6  A    between atoms: O3_13  and  C10_14
REMARK    7  A    between atoms: C10_14  and  C11_16
REMARK                            x       y       z     vdW  Elec       q    Type
REMARK                         _______ _______ _______ _____ _____    ______ ____
ROOT
ATOM      1  C8  UNL     1      19.566   1.817   9.682  0.00  0.00    +0.000 C 
ATOM      2  O2  UNL     1      20.401   0.917   9.548  0.00  0.00    +0.000 OA
ENDROOT
BRANCH   1   3
ATOM      3  C7  UNL     1      19.997   3.225  10.035  0.00  0.00    +0.000 C 
BRANCH   3   4
ATOM      4  C6  UNL     1      21.070   3.755   9.090  0.00  0.00    +0.000 C 
BRANCH   4   9
ATOM      5  N1  UNL     1      21.397   7.489   9.360  0.00  0.00    +0.000 N 
ATOM      6  C1  UNL     1      20.035   7.946   9.215  0.00  0.00    +0.000 C 
ATOM      7  C2  UNL     1      19.239   7.089   8.248  0.00  0.00    +0.000 C 
ATOM      8  C3  UNL     1      19.379   5.621   8.633  0.00  0.00    +0.000 C 
ATOM      9  C4  UNL     1      20.853   5.201   8.596  0.00  0.00    +0.000 C 
ATOM     10  C5  UNL     1      21.736   6.163   9.395  0.00  0.00    +0.000 C 
ATOM     11  O1  UNL     1      22.770   5.815   9.958  0.00  0.00    +0.000 OA
ATOM     12  H1  UNL     1      22.023   8.058   9.919  0.00  0.00    +0.000 HD
ENDBRANCH   4   9
ENDBRANCH   3   4
ENDBRANCH   1   3
BRANCH   1  13
ATOM     13  C9  UNL     1      18.065   1.562   9.561  0.00  0.00    +0.000 C 
BRANCH  13  14
ATOM     14  O3  UNL     1      17.337   2.758   9.293  0.00  0.00    +0.000 OA
BRANCH  14  15
ATOM     15  C10 UNL     1      16.283   2.583   8.435  0.00  0.00    +0.000 C 
ATOM     16  O4  UNL     1      16.228   3.081   7.315  0.00  0.00    +0.000 OA
BRANCH  15  17
ATOM     17  C11 UNL     1      15.230   1.639   9.069  0.00  0.00    +0.000 C 
ATOM     18  O5  UNL     1      14.502   0.931   8.067  0.00  0.00    +0.000 OA
ATOM     19  C12 UNL     1      13.610  -0.013   8.644  0.00  0.00    +0.000 C 
ATOM     20  C13 UNL     1      12.648   0.687   9.587  0.00  0.00    +0.000 C 
ATOM     21  C14 UNL     1      13.440   1.510  10.588  0.00  0.00    +0.000 C 
ATOM     22  O6  UNL     1      14.339   2.376   9.906  0.00  0.00    +0.000 OA
ENDBRANCH  15  17
ENDBRANCH  14  15
ENDBRANCH  13  14
ENDBRANCH   1  13
TORSDOF 7
ENDMDL
MODEL 7
REMARK VINA RESULT:    -5.047     14.166     16.819
REMARK INTER + INTRA:          -7.656
REMARK INTER:                  -7.184
REMARK INTRA:                  -0.472
REMARK UNBOUND:                -0.544
REMARK  Name = /home/anacleto/Desktop/manuscript_Mpro/naturecomm/supplementary_file_S2/6-chemical-library/molecular_docking/3D_ligand_structure/428.pdb
REMARK  7 active torsions:
REMARK  status: ('A' for Active; 'I' for Inactive)
REMARK    1  A    between atoms: C4_5  and  C6_8
REMARK    2  A    between atoms: C6_8  and  C7_9
REMARK    3  A    between atoms: C7_9  and  C8_10
REMARK    4  A    between atoms: C8_10  and  C9_12
REMARK    5  A    between atoms: C9_12  and  O3_13
REMARK    6  A    between atoms: O3_13  and  C10_14
REMARK    7  A    between atoms: C10_14  and  C11_16
REMARK                            x       y       z     vdW  Elec       q    Type
REMARK                         _______ _______ _______ _____ _____    ______ ____
ROOT
ATOM      1  C8  UNL     1      17.698   3.750   9.875  0.00  0.00    +0.000 C 
ATOM      2  O2  UNL     1      17.125   3.787  10.969  0.00  0.00    +0.000 OA
ENDROOT
BRANCH   1   3
ATOM      3  C7  UNL     1      16.972   3.265   8.638  0.00  0.00    +0.000 C 
BRANCH   3   4
ATOM      4  C6  UNL     1      15.608   2.666   8.966  0.00  0.00    +0.000 C 
BRANCH   4   9
ATOM      5  N1  UNL     1      13.448  -0.276   8.070  0.00  0.00    +0.000 N 
ATOM      6  C1  UNL     1      14.413  -1.318   7.805  0.00  0.00    +0.000 C 
ATOM      7  C2  UNL     1      15.677  -0.784   7.157  0.00  0.00    +0.000 C 
ATOM      8  C3  UNL     1      16.213   0.386   7.974  0.00  0.00    +0.000 C 
ATOM      9  C4  UNL     1      15.166   1.503   8.053  0.00  0.00    +0.000 C 
ATOM     10  C5  UNL     1      13.805   0.971   8.508  0.00  0.00    +0.000 C 
ATOM     11  O1  UNL     1      12.996   1.645   9.141  0.00  0.00    +0.000 OA
ATOM     12  H1  UNL     1      12.540  -0.560   8.421  0.00  0.00    +0.000 HD
ENDBRANCH   4   9
ENDBRANCH   3   4
ENDBRANCH   1   3
BRANCH   1  13
ATOM     13  C9  UNL     1      19.168   4.129   9.711  0.00  0.00    +0.000 C 
BRANCH  13  14
ATOM     14  O3  UNL     1      19.361   5.102   8.689  0.00  0.00    +0.000 OA
BRANCH  14  15
ATOM     15  C10 UNL     1      19.316   6.395   9.141  0.00  0.00    +0.000 C 
ATOM     16  O4  UNL     1      19.026   7.354   8.433  0.00  0.00    +0.000 OA
BRANCH  15  17
ATOM     17  C11 UNL     1      19.628   6.441  10.659  0.00  0.00    +0.000 C 
ATOM     18  O5  UNL     1      18.663   7.223  11.360  0.00  0.00    +0.000 OA
ATOM     19  C12 UNL     1      18.883   7.180  12.763  0.00  0.00    +0.000 C 
ATOM     20  C13 UNL     1      20.283   7.671  13.087  0.00  0.00    +0.000 C 
ATOM     21  C14 UNL     1      21.289   6.889  12.261  0.00  0.00    +0.000 C 
ATOM     22  O6  UNL     1      20.943   6.950  10.883  0.00  0.00    +0.000 OA
ENDBRANCH  15  17
ENDBRANCH  14  15
ENDBRANCH  13  14
ENDBRANCH   1  13
TORSDOF 7
ENDMDL
MODEL 8
REMARK VINA RESULT:    -5.033      2.956      7.241
REMARK INTER + INTRA:          -7.636
REMARK INTER:                  -6.869
REMARK INTRA:                  -0.767
REMARK UNBOUND:                -0.544
REMARK  Name = /home/anacleto/Desktop/manuscript_Mpro/naturecomm/supplementary_file_S2/6-chemical-library/molecular_docking/3D_ligand_structure/428.pdb
REMARK  7 active torsions:
REMARK  status: ('A' for Active; 'I' for Inactive)
REMARK    1  A    between atoms: C4_5  and  C6_8
REMARK    2  A    between atoms: C6_8  and  C7_9
REMARK    3  A    between atoms: C7_9  and  C8_10
REMARK    4  A    between atoms: C8_10  and  C9_12
REMARK    5  A    between atoms: C9_12  and  O3_13
REMARK    6  A    between atoms: O3_13  and  C10_14
REMARK    7  A    between atoms: C10_14  and  C11_16
REMARK                            x       y       z     vdW  Elec       q    Type
REMARK                         _______ _______ _______ _____ _____    ______ ____
ROOT
ATOM      1  C8  UNL     1      15.166  12.747  -2.648  0.00  0.00    +0.000 C 
ATOM      2  O2  UNL     1      15.271  13.938  -2.340  0.00  0.00    +0.000 OA
ENDROOT
BRANCH   1   3
ATOM      3  C7  UNL     1      14.436  12.335  -3.909  0.00  0.00    +0.000 C 
BRANCH   3   4
ATOM      4  C6  UNL     1      15.079  11.126  -4.581  0.00  0.00    +0.000 C 
BRANCH   4   9
ATOM      5  N1  UNL     1      17.014  11.253  -7.800  0.00  0.00    +0.000 N 
ATOM      6  C1  UNL     1      18.231  10.548  -7.474  0.00  0.00    +0.000 C 
ATOM      7  C2  UNL     1      18.674  10.789  -6.043  0.00  0.00    +0.000 C 
ATOM      8  C3  UNL     1      17.510  10.516  -5.098  0.00  0.00    +0.000 C 
ATOM      9  C4  UNL     1      16.330  11.435  -5.430  0.00  0.00    +0.000 C 
ATOM     10  C5  UNL     1      15.974  11.384  -6.918  0.00  0.00    +0.000 C 
ATOM     11  O1  UNL     1      14.836  11.562  -7.345  0.00  0.00    +0.000 OA
ATOM     12  H1  UNL     1      16.697  11.218  -8.762  0.00  0.00    +0.000 HD
ENDBRANCH   4   9
ENDBRANCH   3   4
ENDBRANCH   1   3
BRANCH   1  13
ATOM     13  C9  UNL     1      15.705  11.625  -1.762  0.00  0.00    +0.000 C 
BRANCH  13  14
ATOM     14  O3  UNL     1      16.481  12.125  -0.677  0.00  0.00    +0.000 OA
BRANCH  14  15
ATOM     15  C10 UNL     1      17.833  12.083  -0.898  0.00  0.00    +0.000 C 
ATOM     16  O4  UNL     1      18.430  11.079  -1.273  0.00  0.00    +0.000 OA
BRANCH  15  17
ATOM     17  C11 UNL     1      18.456  13.482  -0.658  0.00  0.00    +0.000 C 
ATOM     18  O5  UNL     1      19.625  13.393   0.154  0.00  0.00    +0.000 OA
ATOM     19  C12 UNL     1      20.260  14.658   0.288  0.00  0.00    +0.000 C 
ATOM     20  C13 UNL     1      19.292  15.667   0.881  0.00  0.00    +0.000 C 
ATOM     21  C14 UNL     1      18.017  15.679   0.057  0.00  0.00    +0.000 C 
ATOM     22  O6  UNL     1      17.500  14.359  -0.062  0.00  0.00    +0.000 OA
ENDBRANCH  15  17
ENDBRANCH  14  15
ENDBRANCH  13  14
ENDBRANCH   1  13
TORSDOF 7
ENDMDL
MODEL 9
REMARK VINA RESULT:    -4.971      1.756      2.176
REMARK INTER + INTRA:          -7.549
REMARK INTER:                  -7.005
REMARK INTRA:                  -0.544
REMARK UNBOUND:                -0.544
REMARK  Name = /home/anacleto/Desktop/manuscript_Mpro/naturecomm/supplementary_file_S2/6-chemical-library/molecular_docking/3D_ligand_structure/428.pdb
REMARK  7 active torsions:
REMARK  status: ('A' for Active; 'I' for Inactive)
REMARK    1  A    between atoms: C4_5  and  C6_8
REMARK    2  A    between atoms: C6_8  and  C7_9
REMARK    3  A    between atoms: C7_9  and  C8_10
REMARK    4  A    between atoms: C8_10  and  C9_12
REMARK    5  A    between atoms: C9_12  and  O3_13
REMARK    6  A    between atoms: O3_13  and  C10_14
REMARK    7  A    between atoms: C10_14  and  C11_16
REMARK                            x       y       z     vdW  Elec       q    Type
REMARK                         _______ _______ _______ _____ _____    ______ ____
ROOT
ATOM      1  C8  UNL     1      17.651  12.789  -0.924  0.00  0.00    +0.000 C 
ATOM      2  O2  UNL     1      16.883  13.498  -0.267  0.00  0.00    +0.000 OA
ENDROOT
BRANCH   1   3
ATOM      3  C7  UNL     1      19.114  12.680  -0.549  0.00  0.00    +0.000 C 
BRANCH   3   4
ATOM      4  C6  UNL     1      19.610  13.908   0.208  0.00  0.00    +0.000 C 
BRANCH   4   9
ATOM      5  N1  UNL     1      22.272  16.534  -0.167  0.00  0.00    +0.000 N 
ATOM      6  C1  UNL     1      21.609  17.560  -0.937  0.00  0.00    +0.000 C 
ATOM      7  C2  UNL     1      20.636  16.985  -1.950  0.00  0.00    +0.000 C 
ATOM      8  C3  UNL     1      19.697  16.006  -1.255  0.00  0.00    +0.000 C 
ATOM      9  C4  UNL     1      20.498  14.869  -0.610  0.00  0.00    +0.000 C 
ATOM     10  C5  UNL     1      21.634  15.403   0.267  0.00  0.00    +0.000 C 
ATOM     11  O1  UNL     1      22.055  14.810   1.257  0.00  0.00    +0.000 OA
ATOM     12  H1  UNL     1      23.003  16.828   0.471  0.00  0.00    +0.000 HD
ENDBRANCH   4   9
ENDBRANCH   3   4
ENDBRANCH   1   3
BRANCH   1  13
ATOM     13  C9  UNL     1      17.198  12.034  -2.172  0.00  0.00    +0.000 C 
BRANCH  13  14
ATOM     14  O3  UNL     1      15.797  11.770  -2.160  0.00  0.00    +0.000 OA
BRANCH  14  15
ATOM     15  C10 UNL     1      15.089  12.499  -3.079  0.00  0.00    +0.000 C 
ATOM     16  O4  UNL     1      14.640  13.619  -2.859  0.00  0.00    +0.000 OA
BRANCH  15  17
ATOM     17  C11 UNL     1      14.998  11.724  -4.419  0.00  0.00    +0.000 C 
ATOM     18  O5  UNL     1      15.834  12.313  -5.412  0.00  0.00    +0.000 OA
ATOM     19  C12 UNL     1      15.836  11.546  -6.609  0.00  0.00    +0.000 C 
ATOM     20  C13 UNL     1      14.421  11.404  -7.140  0.00  0.00    +0.000 C 
ATOM     21  C14 UNL     1      13.526  10.863  -6.038  0.00  0.00    +0.000 C 
ATOM     22  O6  UNL     1      13.645  11.670  -4.873  0.00  0.00    +0.000 OA
ENDBRANCH  15  17
ENDBRANCH  14  15
ENDBRANCH  13  14
ENDBRANCH   1  13
TORSDOF 7
ENDMDL
