MODEL 1
REMARK VINA RESULT:    -4.165      0.000      0.000
REMARK INTER + INTRA:          -4.572
REMARK INTER:                  -4.332
REMARK INTRA:                  -0.241
REMARK UNBOUND:                -0.164
REMARK  Name = /home/anacleto/Desktop/manuscript_Mpro/naturecomm/supplementary_file_S2/6-chemical-library/molecular_docking/3D_ligand_structure/1209.pdb
REMARK  1 active torsions:
REMARK  status: ('A' for Active; 'I' for Inactive)
REMARK    1  A    between atoms: C2_5  and  C3_6
REMARK                            x       y       z     vdW  Elec       q    Type
REMARK                         _______ _______ _______ _____ _____    ______ ____
ROOT
ATOM      1  C3  UNL     1     -25.499   3.208 -38.848  0.00  0.00    +0.000 C 
ATOM      2  C4  UNL     1     -25.737   2.809 -40.314  0.00  0.00    +0.000 C 
ATOM      3  O2  UNL     1     -24.798   2.820 -41.111  0.00  0.00    +0.000 OA
ATOM      4  C5  UNL     1     -26.648   2.865 -37.933  0.00  0.00    +0.000 C 
ATOM      5  C6  UNL     1     -27.816   2.408 -38.393  0.00  0.00    +0.000 C 
ATOM      6  C7  UNL     1     -27.933   2.262 -39.853  0.00  0.00    +0.000 C 
ATOM      7  N3  UNL     1     -27.003   2.436 -40.727  0.00  0.00    +0.000 NA
ENDROOT
BRANCH   1  12
ATOM      8  N1  UNL     1     -24.001   5.099 -38.208  0.00  0.00    +0.000 NA
ATOM      9  O1  UNL     1     -24.074   6.481 -38.392  0.00  0.00    +0.000 OA
ATOM     10  C1  UNL     1     -25.225   6.715 -39.073  0.00  0.00    +0.000 A 
ATOM     11  N2  UNL     1     -25.905   5.633 -39.356  0.00  0.00    +0.000 NA
ATOM     12  C2  UNL     1     -25.135   4.652 -38.771  0.00  0.00    +0.000 A 
ENDBRANCH   1  12
TORSDOF 1
ENDMDL
MODEL 2
REMARK VINA RESULT:    -4.022      5.503      7.040
REMARK INTER + INTRA:          -4.421
REMARK INTER:                  -4.176
REMARK INTRA:                  -0.245
REMARK UNBOUND:                -0.164
REMARK  Name = /home/anacleto/Desktop/manuscript_Mpro/naturecomm/supplementary_file_S2/6-chemical-library/molecular_docking/3D_ligand_structure/1209.pdb
REMARK  1 active torsions:
REMARK  status: ('A' for Active; 'I' for Inactive)
REMARK    1  A    between atoms: C2_5  and  C3_6
REMARK                            x       y       z     vdW  Elec       q    Type
REMARK                         _______ _______ _______ _____ _____    ______ ____
ROOT
ATOM      1  C3  UNL     1     -21.001   8.387 -37.499  0.00  0.00    +0.000 C 
ATOM      2  C4  UNL     1     -22.042   7.370 -37.993  0.00  0.00    +0.000 C 
ATOM      3  O2  UNL     1     -21.685   6.234 -38.311  0.00  0.00    +0.000 OA
ATOM      4  C5  UNL     1     -21.607   9.617 -36.869  0.00  0.00    +0.000 C 
ATOM      5  C6  UNL     1     -22.920   9.857 -36.890  0.00  0.00    +0.000 C 
ATOM      6  C7  UNL     1     -23.758   8.858 -37.575  0.00  0.00    +0.000 C 
ATOM      7  N3  UNL     1     -23.375   7.733 -38.072  0.00  0.00    +0.000 NA
ENDROOT
BRANCH   1  12
ATOM      8  N1  UNL     1     -18.768   8.390 -38.615  0.00  0.00    +0.000 NA
ATOM      9  O1  UNL     1     -18.311   8.884 -39.838  0.00  0.00    +0.000 OA
ATOM     10  C1  UNL     1     -19.387   9.441 -40.450  0.00  0.00    +0.000 A 
ATOM     11  N2  UNL     1     -20.496   9.357 -39.759  0.00  0.00    +0.000 NA
ATOM     12  C2  UNL     1     -20.067   8.732 -38.609  0.00  0.00    +0.000 A 
ENDBRANCH   1  12
TORSDOF 1
ENDMDL
MODEL 3
REMARK VINA RESULT:    -3.996      4.235      5.655
REMARK INTER + INTRA:          -4.393
REMARK INTER:                  -4.168
REMARK INTRA:                  -0.225
REMARK UNBOUND:                -0.164
REMARK  Name = /home/anacleto/Desktop/manuscript_Mpro/naturecomm/supplementary_file_S2/6-chemical-library/molecular_docking/3D_ligand_structure/1209.pdb
REMARK  1 active torsions:
REMARK  status: ('A' for Active; 'I' for Inactive)
REMARK    1  A    between atoms: C2_5  and  C3_6
REMARK                            x       y       z     vdW  Elec       q    Type
REMARK                         _______ _______ _______ _____ _____    ______ ____
ROOT
ATOM      1  C3  UNL     1     -21.117   6.786 -38.729  0.00  0.00    +0.000 C 
ATOM      2  C4  UNL     1     -21.709   6.813 -40.148  0.00  0.00    +0.000 C 
ATOM      3  O2  UNL     1     -21.003   7.151 -41.099  0.00  0.00    +0.000 OA
ATOM      4  C5  UNL     1     -21.989   6.077 -37.722  0.00  0.00    +0.000 C 
ATOM      5  C6  UNL     1     -23.223   5.660 -38.014  0.00  0.00    +0.000 C 
ATOM      6  C7  UNL     1     -23.703   5.937 -39.378  0.00  0.00    +0.000 C 
ATOM      7  N3  UNL     1     -23.030   6.452 -40.348  0.00  0.00    +0.000 NA
ENDROOT
BRANCH   1  12
ATOM      8  N1  UNL     1     -19.552   8.704 -38.411  0.00  0.00    +0.000 NA
ATOM      9  O1  UNL     1     -19.717  10.002 -37.921  0.00  0.00    +0.000 OA
ATOM     10  C1  UNL     1     -21.029  10.123 -37.596  0.00  0.00    +0.000 A 
ATOM     11  N2  UNL     1     -21.737   9.046 -37.827  0.00  0.00    +0.000 NA
ATOM     12  C2  UNL     1     -20.781   8.174 -38.297  0.00  0.00    +0.000 A 
ENDBRANCH   1  12
TORSDOF 1
ENDMDL
MODEL 4
REMARK VINA RESULT:    -3.946     14.155     14.993
REMARK INTER + INTRA:          -4.340
REMARK INTER:                  -4.096
REMARK INTRA:                  -0.244
REMARK UNBOUND:                -0.164
REMARK  Name = /home/anacleto/Desktop/manuscript_Mpro/naturecomm/supplementary_file_S2/6-chemical-library/molecular_docking/3D_ligand_structure/1209.pdb
REMARK  1 active torsions:
REMARK  status: ('A' for Active; 'I' for Inactive)
REMARK    1  A    between atoms: C2_5  and  C3_6
REMARK                            x       y       z     vdW  Elec       q    Type
REMARK                         _______ _______ _______ _____ _____    ______ ____
ROOT
ATOM      1  C3  UNL     1     -25.456  -4.873 -27.158  0.00  0.00    +0.000 C 
ATOM      2  C4  UNL     1     -25.491  -3.829 -28.286  0.00  0.00    +0.000 C 
ATOM      3  O2  UNL     1     -24.461  -3.564 -28.907  0.00  0.00    +0.000 OA
ATOM      4  C5  UNL     1     -26.823  -5.311 -26.694  0.00  0.00    +0.000 C 
ATOM      5  C6  UNL     1     -27.944  -4.722 -27.119  0.00  0.00    +0.000 C 
ATOM      6  C7  UNL     1     -27.780  -3.606 -28.065  0.00  0.00    +0.000 C 
ATOM      7  N3  UNL     1     -26.682  -3.197 -28.600  0.00  0.00    +0.000 NA
ENDROOT
BRANCH   1  12
ATOM      8  N1  UNL     1     -23.413  -4.874 -25.724  0.00  0.00    +0.000 NA
ATOM      9  O1  UNL     1     -23.001  -4.088 -24.646  0.00  0.00    +0.000 OA
ATOM     10  C1  UNL     1     -23.986  -3.177 -24.440  0.00  0.00    +0.000 A 
ATOM     11  N2  UNL     1     -24.991  -3.282 -25.272  0.00  0.00    +0.000 NA
ATOM     12  C2  UNL     1     -24.619  -4.370 -26.031  0.00  0.00    +0.000 A 
ENDBRANCH   1  12
TORSDOF 1
ENDMDL
MODEL 5
REMARK VINA RESULT:    -3.934      4.336      7.140
REMARK INTER + INTRA:          -4.327
REMARK INTER:                  -4.087
REMARK INTRA:                  -0.241
REMARK UNBOUND:                -0.164
REMARK  Name = /home/anacleto/Desktop/manuscript_Mpro/naturecomm/supplementary_file_S2/6-chemical-library/molecular_docking/3D_ligand_structure/1209.pdb
REMARK  1 active torsions:
REMARK  status: ('A' for Active; 'I' for Inactive)
REMARK    1  A    between atoms: C2_5  and  C3_6
REMARK                            x       y       z     vdW  Elec       q    Type
REMARK                         _______ _______ _______ _____ _____    ______ ____
ROOT
ATOM      1  C3  UNL     1     -20.802   7.453 -37.978  0.00  0.00    +0.000 C 
ATOM      2  C4  UNL     1     -20.994   8.904 -37.504  0.00  0.00    +0.000 C 
ATOM      3  O2  UNL     1     -21.527   9.126 -36.416  0.00  0.00    +0.000 OA
ATOM      4  C5  UNL     1     -19.881   7.321 -39.166  0.00  0.00    +0.000 C 
ATOM      5  C6  UNL     1     -19.414   8.382 -39.829  0.00  0.00    +0.000 C 
ATOM      6  C7  UNL     1     -19.853   9.702 -39.347  0.00  0.00    +0.000 C 
ATOM      7  N3  UNL     1     -20.561   9.950 -38.300  0.00  0.00    +0.000 NA
ENDROOT
BRANCH   1  12
ATOM      8  N1  UNL     1     -22.538   5.695 -37.630  0.00  0.00    +0.000 NA
ATOM      9  O1  UNL     1     -23.826   5.510 -38.136  0.00  0.00    +0.000 OA
ATOM     10  C1  UNL     1     -24.068   6.563 -38.958  0.00  0.00    +0.000 A 
ATOM     11  N2  UNL     1     -23.078   7.415 -39.037  0.00  0.00    +0.000 NA
ATOM     12  C2  UNL     1     -22.131   6.825 -38.230  0.00  0.00    +0.000 A 
ENDBRANCH   1  12
TORSDOF 1
ENDMDL
MODEL 6
REMARK VINA RESULT:    -3.932     15.615     16.681
REMARK INTER + INTRA:          -4.325
REMARK INTER:                  -4.080
REMARK INTRA:                  -0.245
REMARK UNBOUND:                -0.164
REMARK  Name = /home/anacleto/Desktop/manuscript_Mpro/naturecomm/supplementary_file_S2/6-chemical-library/molecular_docking/3D_ligand_structure/1209.pdb
REMARK  1 active torsions:
REMARK  status: ('A' for Active; 'I' for Inactive)
REMARK    1  A    between atoms: C2_5  and  C3_6
REMARK                            x       y       z     vdW  Elec       q    Type
REMARK                         _______ _______ _______ _____ _____    ______ ____
ROOT
ATOM      1  C3  UNL     1     -24.162  -3.479 -25.467  0.00  0.00    +0.000 C 
ATOM      2  C4  UNL     1     -23.002  -4.456 -25.721  0.00  0.00    +0.000 C 
ATOM      3  O2  UNL     1     -22.752  -4.822 -26.871  0.00  0.00    +0.000 OA
ATOM      4  C5  UNL     1     -24.165  -2.891 -24.078  0.00  0.00    +0.000 C 
ATOM      5  C6  UNL     1     -23.330  -3.310 -23.123  0.00  0.00    +0.000 C 
ATOM      6  C7  UNL     1     -22.403  -4.392 -23.492  0.00  0.00    +0.000 C 
ATOM      7  N3  UNL     1     -22.244  -4.914 -24.659  0.00  0.00    +0.000 NA
ENDROOT
BRANCH   1  12
ATOM      8  N1  UNL     1     -26.275  -3.714 -26.774  0.00  0.00    +0.000 NA
ATOM      9  O1  UNL     1     -27.325  -4.634 -26.737  0.00  0.00    +0.000 OA
ATOM     10  C1  UNL     1     -27.013  -5.530 -25.766  0.00  0.00    +0.000 A 
ATOM     11  N2  UNL     1     -25.871  -5.295 -25.171  0.00  0.00    +0.000 NA
ATOM     12  C2  UNL     1     -25.458  -4.139 -25.796  0.00  0.00    +0.000 A 
ENDBRANCH   1  12
TORSDOF 1
ENDMDL
MODEL 7
REMARK VINA RESULT:    -3.836     13.428     14.407
REMARK INTER + INTRA:          -4.224
REMARK INTER:                  -3.980
REMARK INTRA:                  -0.243
REMARK UNBOUND:                -0.164
REMARK  Name = /home/anacleto/Desktop/manuscript_Mpro/naturecomm/supplementary_file_S2/6-chemical-library/molecular_docking/3D_ligand_structure/1209.pdb
REMARK  1 active torsions:
REMARK  status: ('A' for Active; 'I' for Inactive)
REMARK    1  A    between atoms: C2_5  and  C3_6
REMARK                            x       y       z     vdW  Elec       q    Type
REMARK                         _______ _______ _______ _____ _____    ______ ____
ROOT
ATOM      1  C3  UNL     1     -25.419  -3.934 -27.980  0.00  0.00    +0.000 C 
ATOM      2  C4  UNL     1     -25.633  -4.770 -26.707  0.00  0.00    +0.000 C 
ATOM      3  O2  UNL     1     -24.662  -5.129 -26.041  0.00  0.00    +0.000 OA
ATOM      4  C5  UNL     1     -26.686  -3.320 -28.521  0.00  0.00    +0.000 C 
ATOM      5  C6  UNL     1     -27.891  -3.613 -28.026  0.00  0.00    +0.000 C 
ATOM      6  C7  UNL     1     -27.926  -4.584 -26.920  0.00  0.00    +0.000 C 
ATOM      7  N3  UNL     1     -26.917  -5.109 -26.315  0.00  0.00    +0.000 NA
ENDROOT
BRANCH   1  12
ATOM      8  N1  UNL     1     -23.527  -4.409 -29.536  0.00  0.00    +0.000 NA
ATOM      9  O1  UNL     1     -23.247  -5.464 -30.407  0.00  0.00    +0.000 OA
ATOM     10  C1  UNL     1     -24.276  -6.342 -30.286  0.00  0.00    +0.000 A 
ATOM     11  N2  UNL     1     -25.191  -5.975 -29.426  0.00  0.00    +0.000 NA
ATOM     12  C2  UNL     1     -24.713  -4.752 -29.007  0.00  0.00    +0.000 A 
ENDBRANCH   1  12
TORSDOF 1
ENDMDL
MODEL 8
REMARK VINA RESULT:    -3.831      1.842      2.110
REMARK INTER + INTRA:          -4.219
REMARK INTER:                  -4.017
REMARK INTRA:                  -0.202
REMARK UNBOUND:                -0.164
REMARK  Name = /home/anacleto/Desktop/manuscript_Mpro/naturecomm/supplementary_file_S2/6-chemical-library/molecular_docking/3D_ligand_structure/1209.pdb
REMARK  1 active torsions:
REMARK  status: ('A' for Active; 'I' for Inactive)
REMARK    1  A    between atoms: C2_5  and  C3_6
REMARK                            x       y       z     vdW  Elec       q    Type
REMARK                         _______ _______ _______ _____ _____    ______ ____
ROOT
ATOM      1  C3  UNL     1     -25.625   3.936 -39.896  0.00  0.00    +0.000 C 
ATOM      2  C4  UNL     1     -26.962   4.695 -39.924  0.00  0.00    +0.000 C 
ATOM      3  O2  UNL     1     -27.149   5.573 -40.768  0.00  0.00    +0.000 OA
ATOM      4  C5  UNL     1     -25.645   2.706 -39.023  0.00  0.00    +0.000 C 
ATOM      5  C6  UNL     1     -26.679   2.407 -38.233  0.00  0.00    +0.000 C 
ATOM      6  C7  UNL     1     -27.808   3.352 -38.247  0.00  0.00    +0.000 C 
ATOM      7  N3  UNL     1     -27.949   4.383 -39.006  0.00  0.00    +0.000 NA
ENDROOT
BRANCH   1  12
ATOM      8  N1  UNL     1     -23.813   5.572 -40.416  0.00  0.00    +0.000 NA
ATOM      9  O1  UNL     1     -22.937   6.314 -39.621  0.00  0.00    +0.000 OA
ATOM     10  C1  UNL     1     -23.236   6.003 -38.333  0.00  0.00    +0.000 A 
ATOM     11  N2  UNL     1     -24.214   5.144 -38.205  0.00  0.00    +0.000 NA
ATOM     12  C2  UNL     1     -24.524   4.869 -39.519  0.00  0.00    +0.000 A 
ENDBRANCH   1  12
TORSDOF 1
ENDMDL
MODEL 9
REMARK VINA RESULT:    -3.798     13.533     14.398
REMARK INTER + INTRA:          -4.184
REMARK INTER:                  -4.020
REMARK INTRA:                  -0.164
REMARK UNBOUND:                -0.164
REMARK  Name = /home/anacleto/Desktop/manuscript_Mpro/naturecomm/supplementary_file_S2/6-chemical-library/molecular_docking/3D_ligand_structure/1209.pdb
REMARK  1 active torsions:
REMARK  status: ('A' for Active; 'I' for Inactive)
REMARK    1  A    between atoms: C2_5  and  C3_6
REMARK                            x       y       z     vdW  Elec       q    Type
REMARK                         _______ _______ _______ _____ _____    ______ ____
ROOT
ATOM      1  C3  UNL     1     -25.965  -4.929 -28.395  0.00  0.00    +0.000 C 
ATOM      2  C4  UNL     1     -27.051  -3.890 -28.070  0.00  0.00    +0.000 C 
ATOM      3  O2  UNL     1     -27.188  -2.903 -28.795  0.00  0.00    +0.000 OA
ATOM      4  C5  UNL     1     -26.104  -6.214 -27.615  0.00  0.00    +0.000 C 
ATOM      5  C6  UNL     1     -26.992  -6.357 -26.628  0.00  0.00    +0.000 C 
ATOM      6  C7  UNL     1     -27.831  -5.186 -26.325  0.00  0.00    +0.000 C 
ATOM      7  N3  UNL     1     -27.869  -4.072 -26.970  0.00  0.00    +0.000 NA
ENDROOT
BRANCH   1  12
ATOM      8  N1  UNL     1     -24.009  -3.593 -29.181  0.00  0.00    +0.000 NA
ATOM      9  O1  UNL     1     -22.810  -3.209 -28.579  0.00  0.00    +0.000 OA
ATOM     10  C1  UNL     1     -22.836  -3.715 -27.319  0.00  0.00    +0.000 A 
ATOM     11  N2  UNL     1     -23.926  -4.381 -27.035  0.00  0.00    +0.000 NA
ATOM     12  C2  UNL     1     -24.615  -4.318 -28.227  0.00  0.00    +0.000 A 
ENDBRANCH   1  12
TORSDOF 1
ENDMDL
