MODEL 1
REMARK VINA RESULT:    -5.029      0.000      0.000
REMARK INTER + INTRA:          -8.121
REMARK INTER:                  -7.281
REMARK INTRA:                  -0.839
REMARK UNBOUND:                -1.034
REMARK  Name = /home/anacleto/Desktop/manuscript_Mpro/naturecomm/supplementary_file_S2/6-chemical-library/molecular_docking/3D_ligand_structure/428.pdb
REMARK  7 active torsions:
REMARK  status: ('A' for Active; 'I' for Inactive)
REMARK    1  A    between atoms: C4_5  and  C6_8
REMARK    2  A    between atoms: C6_8  and  C7_9
REMARK    3  A    between atoms: C7_9  and  C8_10
REMARK    4  A    between atoms: C8_10  and  C9_12
REMARK    5  A    between atoms: C9_12  and  O3_13
REMARK    6  A    between atoms: O3_13  and  C10_14
REMARK    7  A    between atoms: C10_14  and  C11_16
REMARK                            x       y       z     vdW  Elec       q    Type
REMARK                         _______ _______ _______ _____ _____    ______ ____
ROOT
ATOM      1  C8  UNL     1     -24.157   7.426 -39.021  0.00  0.00    +0.000 C 
ATOM      2  O2  UNL     1     -24.388   7.891 -37.901  0.00  0.00    +0.000 OA
ENDROOT
BRANCH   1   3
ATOM      3  C7  UNL     1     -22.868   6.681 -39.298  0.00  0.00    +0.000 C 
BRANCH   3   4
ATOM      4  C6  UNL     1     -22.029   6.488 -38.038  0.00  0.00    +0.000 C 
BRANCH   4   9
ATOM      5  N1  UNL     1     -19.697   9.419 -37.729  0.00  0.00    +0.000 N 
ATOM      6  C1  UNL     1     -18.968   9.385 -38.975  0.00  0.00    +0.000 C 
ATOM      7  C2  UNL     1     -18.719   7.970 -39.462  0.00  0.00    +0.000 C 
ATOM      8  C3  UNL     1     -20.034   7.198 -39.474  0.00  0.00    +0.000 C 
ATOM      9  C4  UNL     1     -20.639   7.157 -38.067  0.00  0.00    +0.000 C 
ATOM     10  C5  UNL     1     -20.720   8.554 -37.445  0.00  0.00    +0.000 C 
ATOM     11  O1  UNL     1     -21.584   8.881 -36.635  0.00  0.00    +0.000 OA
ATOM     12  H1  UNL     1     -19.828  10.323 -37.289  0.00  0.00    +0.000 HD
ENDBRANCH   4   9
ENDBRANCH   3   4
ENDBRANCH   1   3
BRANCH   1  13
ATOM     13  C9  UNL     1     -25.112   7.619 -40.197  0.00  0.00    +0.000 C 
BRANCH  13  14
ATOM     14  O3  UNL     1     -25.796   6.415 -40.535  0.00  0.00    +0.000 OA
BRANCH  14  15
ATOM     15  C10 UNL     1     -26.856   6.133 -39.713  0.00  0.00    +0.000 C 
ATOM     16  O4  UNL     1     -27.654   6.976 -39.318  0.00  0.00    +0.000 OA
BRANCH  15  17
ATOM     17  C11 UNL     1     -26.913   4.611 -39.419  0.00  0.00    +0.000 C 
ATOM     18  O5  UNL     1     -27.891   4.315 -38.425  0.00  0.00    +0.000 OA
ATOM     19  C12 UNL     1     -28.021   2.913 -38.229  0.00  0.00    +0.000 C 
ATOM     20  C13 UNL     1     -26.682   2.315 -37.835  0.00  0.00    +0.000 C 
ATOM     21  C14 UNL     1     -25.634   2.720 -38.856  0.00  0.00    +0.000 C 
ATOM     22  O6  UNL     1     -25.629   4.133 -39.016  0.00  0.00    +0.000 OA
ENDBRANCH  15  17
ENDBRANCH  14  15
ENDBRANCH  13  14
ENDBRANCH   1  13
TORSDOF 7
ENDMDL
MODEL 2
REMARK VINA RESULT:    -4.958      1.700      2.912
REMARK INTER + INTRA:          -8.022
REMARK INTER:                  -7.436
REMARK INTRA:                  -0.585
REMARK UNBOUND:                -1.034
REMARK  Name = /home/anacleto/Desktop/manuscript_Mpro/naturecomm/supplementary_file_S2/6-chemical-library/molecular_docking/3D_ligand_structure/428.pdb
REMARK  7 active torsions:
REMARK  status: ('A' for Active; 'I' for Inactive)
REMARK    1  A    between atoms: C4_5  and  C6_8
REMARK    2  A    between atoms: C6_8  and  C7_9
REMARK    3  A    between atoms: C7_9  and  C8_10
REMARK    4  A    between atoms: C8_10  and  C9_12
REMARK    5  A    between atoms: C9_12  and  O3_13
REMARK    6  A    between atoms: O3_13  and  C10_14
REMARK    7  A    between atoms: C10_14  and  C11_16
REMARK                            x       y       z     vdW  Elec       q    Type
REMARK                         _______ _______ _______ _____ _____    ______ ____
ROOT
ATOM      1  C8  UNL     1     -24.816   5.490 -38.700  0.00  0.00    +0.000 C 
ATOM      2  O2  UNL     1     -25.474   6.480 -39.034  0.00  0.00    +0.000 OA
ENDROOT
BRANCH   1   3
ATOM      3  C7  UNL     1     -23.370   5.631 -38.271  0.00  0.00    +0.000 C 
BRANCH   3   4
ATOM      4  C6  UNL     1     -22.976   7.087 -38.039  0.00  0.00    +0.000 C 
BRANCH   4   9
ATOM      5  N1  UNL     1     -19.965   9.271 -37.508  0.00  0.00    +0.000 N 
ATOM      6  C1  UNL     1     -19.123   8.942 -38.634  0.00  0.00    +0.000 C 
ATOM      7  C2  UNL     1     -19.228   7.480 -39.027  0.00  0.00    +0.000 C 
ATOM      8  C3  UNL     1     -20.695   7.104 -39.199  0.00  0.00    +0.000 C 
ATOM      9  C4  UNL     1     -21.461   7.340 -37.892  0.00  0.00    +0.000 C 
ATOM     10  C5  UNL     1     -21.219   8.747 -37.341  0.00  0.00    +0.000 C 
ATOM     11  O1  UNL     1     -22.049   9.361 -36.676  0.00  0.00    +0.000 OA
ATOM     12  H1  UNL     1     -19.887  10.207 -37.125  0.00  0.00    +0.000 HD
ENDBRANCH   4   9
ENDBRANCH   3   4
ENDBRANCH   1   3
BRANCH   1  13
ATOM     13  C9  UNL     1     -25.387   4.074 -38.752  0.00  0.00    +0.000 C 
BRANCH  13  14
ATOM     14  O3  UNL     1     -26.582   3.950 -37.986  0.00  0.00    +0.000 OA
BRANCH  14  15
ATOM     15  C10 UNL     1     -27.625   3.388 -38.676  0.00  0.00    +0.000 C 
ATOM     16  O4  UNL     1     -27.684   2.198 -38.969  0.00  0.00    +0.000 OA
BRANCH  15  17
ATOM     17  C11 UNL     1     -28.710   4.456 -38.967  0.00  0.00    +0.000 C 
ATOM     18  O5  UNL     1     -28.493   5.079 -40.231  0.00  0.00    +0.000 OA
ATOM     19  C12 UNL     1     -29.543   5.983 -40.550  0.00  0.00    +0.000 C 
ATOM     20  C13 UNL     1     -29.670   7.039 -39.466  0.00  0.00    +0.000 C 
ATOM     21  C14 UNL     1     -29.806   6.355 -38.117  0.00  0.00    +0.000 C 
ATOM     22  O6  UNL     1     -28.739   5.434 -37.927  0.00  0.00    +0.000 OA
ENDBRANCH  15  17
ENDBRANCH  14  15
ENDBRANCH  13  14
ENDBRANCH   1  13
TORSDOF 7
ENDMDL
MODEL 3
REMARK VINA RESULT:    -4.692      1.902      2.521
REMARK INTER + INTRA:          -7.646
REMARK INTER:                  -7.099
REMARK INTRA:                  -0.547
REMARK UNBOUND:                -1.034
REMARK  Name = /home/anacleto/Desktop/manuscript_Mpro/naturecomm/supplementary_file_S2/6-chemical-library/molecular_docking/3D_ligand_structure/428.pdb
REMARK  7 active torsions:
REMARK  status: ('A' for Active; 'I' for Inactive)
REMARK    1  A    between atoms: C4_5  and  C6_8
REMARK    2  A    between atoms: C6_8  and  C7_9
REMARK    3  A    between atoms: C7_9  and  C8_10
REMARK    4  A    between atoms: C8_10  and  C9_12
REMARK    5  A    between atoms: C9_12  and  O3_13
REMARK    6  A    between atoms: O3_13  and  C10_14
REMARK    7  A    between atoms: C10_14  and  C11_16
REMARK                            x       y       z     vdW  Elec       q    Type
REMARK                         _______ _______ _______ _____ _____    ______ ____
ROOT
ATOM      1  C8  UNL     1     -23.953   5.691 -39.920  0.00  0.00    +0.000 C 
ATOM      2  O2  UNL     1     -23.845   5.261 -41.073  0.00  0.00    +0.000 OA
ENDROOT
BRANCH   1   3
ATOM      3  C7  UNL     1     -23.108   6.854 -39.447  0.00  0.00    +0.000 C 
BRANCH   3   4
ATOM      4  C6  UNL     1     -22.416   6.564 -38.118  0.00  0.00    +0.000 C 
BRANCH   4   9
ATOM      5  N1  UNL     1     -19.957   9.361 -37.618  0.00  0.00    +0.000 N 
ATOM      6  C1  UNL     1     -19.064   9.213 -38.743  0.00  0.00    +0.000 C 
ATOM      7  C2  UNL     1     -18.846   7.759 -39.121  0.00  0.00    +0.000 C 
ATOM      8  C3  UNL     1     -20.196   7.069 -39.285  0.00  0.00    +0.000 C 
ATOM      9  C4  UNL     1     -20.993   7.145 -37.979  0.00  0.00    +0.000 C 
ATOM     10  C5  UNL     1     -21.065   8.576 -37.442  0.00  0.00    +0.000 C 
ATOM     11  O1  UNL     1     -22.010   9.000 -36.781  0.00  0.00    +0.000 OA
ATOM     12  H1  UNL     1     -20.086  10.294 -37.244  0.00  0.00    +0.000 HD
ENDBRANCH   4   9
ENDBRANCH   3   4
ENDBRANCH   1   3
BRANCH   1  13
ATOM     13  C9  UNL     1     -24.888   5.052 -38.895  0.00  0.00    +0.000 C 
BRANCH  13  14
ATOM     14  O3  UNL     1     -24.961   3.637 -39.044  0.00  0.00    +0.000 OA
BRANCH  14  15
ATOM     15  C10 UNL     1     -26.174   3.105 -38.694  0.00  0.00    +0.000 C 
ATOM     16  O4  UNL     1     -26.528   2.924 -37.533  0.00  0.00    +0.000 OA
BRANCH  15  17
ATOM     17  C11 UNL     1     -27.023   2.832 -39.962  0.00  0.00    +0.000 C 
ATOM     18  O5  UNL     1     -28.135   1.988 -39.666  0.00  0.00    +0.000 OA
ATOM     19  C12 UNL     1     -28.974   1.821 -40.801  0.00  0.00    +0.000 C 
ATOM     20  C13 UNL     1     -28.178   1.244 -41.958  0.00  0.00    +0.000 C 
ATOM     21  C14 UNL     1     -26.949   2.103 -42.197  0.00  0.00    +0.000 C 
ATOM     22  O6  UNL     1     -26.215   2.253 -40.987  0.00  0.00    +0.000 OA
ENDBRANCH  15  17
ENDBRANCH  14  15
ENDBRANCH  13  14
ENDBRANCH   1  13
TORSDOF 7
ENDMDL
MODEL 4
REMARK VINA RESULT:    -4.585      3.155      7.854
REMARK INTER + INTRA:          -7.495
REMARK INTER:                  -6.880
REMARK INTRA:                  -0.615
REMARK UNBOUND:                -1.034
REMARK  Name = /home/anacleto/Desktop/manuscript_Mpro/naturecomm/supplementary_file_S2/6-chemical-library/molecular_docking/3D_ligand_structure/428.pdb
REMARK  7 active torsions:
REMARK  status: ('A' for Active; 'I' for Inactive)
REMARK    1  A    between atoms: C4_5  and  C6_8
REMARK    2  A    between atoms: C6_8  and  C7_9
REMARK    3  A    between atoms: C7_9  and  C8_10
REMARK    4  A    between atoms: C8_10  and  C9_12
REMARK    5  A    between atoms: C9_12  and  O3_13
REMARK    6  A    between atoms: O3_13  and  C10_14
REMARK    7  A    between atoms: C10_14  and  C11_16
REMARK                            x       y       z     vdW  Elec       q    Type
REMARK                         _______ _______ _______ _____ _____    ______ ____
ROOT
ATOM      1  C8  UNL     1     -23.735   5.829 -39.673  0.00  0.00    +0.000 C 
ATOM      2  O2  UNL     1     -23.001   6.207 -40.590  0.00  0.00    +0.000 OA
ENDROOT
BRANCH   1   3
ATOM      3  C7  UNL     1     -24.673   4.656 -39.866  0.00  0.00    +0.000 C 
BRANCH   3   4
ATOM      4  C6  UNL     1     -25.485   4.351 -38.611  0.00  0.00    +0.000 C 
BRANCH   4   9
ATOM      5  N1  UNL     1     -28.688   2.431 -39.025  0.00  0.00    +0.000 N 
ATOM      6  C1  UNL     1     -29.228   2.963 -40.254  0.00  0.00    +0.000 C 
ATOM      7  C2  UNL     1     -28.932   4.441 -40.424  0.00  0.00    +0.000 C 
ATOM      8  C3  UNL     1     -27.440   4.687 -40.226  0.00  0.00    +0.000 C 
ATOM      9  C4  UNL     1     -27.008   4.234 -38.827  0.00  0.00    +0.000 C 
ATOM     10  C5  UNL     1     -27.469   2.806 -38.526  0.00  0.00    +0.000 C 
ATOM     11  O1  UNL     1     -26.857   2.044 -37.783  0.00  0.00    +0.000 OA
ATOM     12  H1  UNL     1     -28.917   1.471 -38.792  0.00  0.00    +0.000 HD
ENDBRANCH   4   9
ENDBRANCH   3   4
ENDBRANCH   1   3
BRANCH   1  13
ATOM     13  C9  UNL     1     -23.789   6.543 -38.324  0.00  0.00    +0.000 C 
BRANCH  13  14
ATOM     14  O3  UNL     1     -22.497   6.943 -37.876  0.00  0.00    +0.000 OA
BRANCH  14  15
ATOM     15  C10 UNL     1     -22.326   8.302 -37.822  0.00  0.00    +0.000 C 
ATOM     16  O4  UNL     1     -23.119   9.066 -37.282  0.00  0.00    +0.000 OA
BRANCH  15  17
ATOM     17  C11 UNL     1     -20.982   8.698 -38.487  0.00  0.00    +0.000 C 
ATOM     18  O5  UNL     1     -20.116   7.572 -38.607  0.00  0.00    +0.000 OA
ATOM     19  C12 UNL     1     -18.927   7.906 -39.311  0.00  0.00    +0.000 C 
ATOM     20  C13 UNL     1     -18.206   9.042 -38.607  0.00  0.00    +0.000 C 
ATOM     21  C14 UNL     1     -19.172  10.196 -38.404  0.00  0.00    +0.000 C 
ATOM     22  O6  UNL     1     -20.347   9.740 -37.745  0.00  0.00    +0.000 OA
ENDBRANCH  15  17
ENDBRANCH  14  15
ENDBRANCH  13  14
ENDBRANCH   1  13
TORSDOF 7
ENDMDL
MODEL 5
REMARK VINA RESULT:    -4.503     14.778     17.469
REMARK INTER + INTRA:          -7.381
REMARK INTER:                  -6.788
REMARK INTRA:                  -0.593
REMARK UNBOUND:                -1.034
REMARK  Name = /home/anacleto/Desktop/manuscript_Mpro/naturecomm/supplementary_file_S2/6-chemical-library/molecular_docking/3D_ligand_structure/428.pdb
REMARK  7 active torsions:
REMARK  status: ('A' for Active; 'I' for Inactive)
REMARK    1  A    between atoms: C4_5  and  C6_8
REMARK    2  A    between atoms: C6_8  and  C7_9
REMARK    3  A    between atoms: C7_9  and  C8_10
REMARK    4  A    between atoms: C8_10  and  C9_12
REMARK    5  A    between atoms: C9_12  and  O3_13
REMARK    6  A    between atoms: O3_13  and  C10_14
REMARK    7  A    between atoms: C10_14  and  C11_16
REMARK                            x       y       z     vdW  Elec       q    Type
REMARK                         _______ _______ _______ _____ _____    ______ ____
ROOT
ATOM      1  C8  UNL     1     -22.702  -4.267 -28.626  0.00  0.00    +0.000 C 
ATOM      2  O2  UNL     1     -22.256  -3.326 -27.962  0.00  0.00    +0.000 OA
ENDROOT
BRANCH   1   3
ATOM      3  C7  UNL     1     -24.064  -4.174 -29.281  0.00  0.00    +0.000 C 
BRANCH   3   4
ATOM      4  C6  UNL     1     -25.131  -3.652 -28.323  0.00  0.00    +0.000 C 
BRANCH   4   9
ATOM      5  N1  UNL     1     -28.645  -4.657 -27.449  0.00  0.00    +0.000 N 
ATOM      6  C1  UNL     1     -28.479  -5.364 -26.201  0.00  0.00    +0.000 C 
ATOM      7  C2  UNL     1     -27.183  -6.152 -26.151  0.00  0.00    +0.000 C 
ATOM      8  C3  UNL     1     -26.019  -5.241 -26.525  0.00  0.00    +0.000 C 
ATOM      9  C4  UNL     1     -26.220  -4.673 -27.934  0.00  0.00    +0.000 C 
ATOM     10  C5  UNL     1     -27.607  -4.046 -28.100  0.00  0.00    +0.000 C 
ATOM     11  O1  UNL     1     -27.834  -3.108 -28.860  0.00  0.00    +0.000 OA
ATOM     12  H1  UNL     1     -29.526  -4.177 -27.600  0.00  0.00    +0.000 HD
ENDBRANCH   4   9
ENDBRANCH   3   4
ENDBRANCH   1   3
BRANCH   1  13
ATOM     13  C9  UNL     1     -21.947  -5.585 -28.782  0.00  0.00    +0.000 C 
BRANCH  13  14
ATOM     14  O3  UNL     1     -20.640  -5.396 -29.314  0.00  0.00    +0.000 OA
BRANCH  14  15
ATOM     15  C10 UNL     1     -19.666  -6.099 -28.654  0.00  0.00    +0.000 C 
ATOM     16  O4  UNL     1     -19.192  -7.154 -29.064  0.00  0.00    +0.000 OA
BRANCH  15  17
ATOM     17  C11 UNL     1     -19.236  -5.340 -27.372  0.00  0.00    +0.000 C 
ATOM     18  O5  UNL     1     -18.800  -4.017 -27.679  0.00  0.00    +0.000 OA
ATOM     19  C12 UNL     1     -18.506  -3.283 -26.498  0.00  0.00    +0.000 C 
ATOM     20  C13 UNL     1     -17.445  -4.004 -25.685  0.00  0.00    +0.000 C 
ATOM     21  C14 UNL     1     -17.886  -5.438 -25.450  0.00  0.00    +0.000 C 
ATOM     22  O6  UNL     1     -18.210  -6.059 -26.688  0.00  0.00    +0.000 OA
ENDBRANCH  15  17
ENDBRANCH  14  15
ENDBRANCH  13  14
ENDBRANCH   1  13
TORSDOF 7
ENDMDL
MODEL 6
REMARK VINA RESULT:    -4.476      1.641      2.146
REMARK INTER + INTRA:          -7.342
REMARK INTER:                  -6.825
REMARK INTRA:                  -0.517
REMARK UNBOUND:                -1.034
REMARK  Name = /home/anacleto/Desktop/manuscript_Mpro/naturecomm/supplementary_file_S2/6-chemical-library/molecular_docking/3D_ligand_structure/428.pdb
REMARK  7 active torsions:
REMARK  status: ('A' for Active; 'I' for Inactive)
REMARK    1  A    between atoms: C4_5  and  C6_8
REMARK    2  A    between atoms: C6_8  and  C7_9
REMARK    3  A    between atoms: C7_9  and  C8_10
REMARK    4  A    between atoms: C8_10  and  C9_12
REMARK    5  A    between atoms: C9_12  and  O3_13
REMARK    6  A    between atoms: O3_13  and  C10_14
REMARK    7  A    between atoms: C10_14  and  C11_16
REMARK                            x       y       z     vdW  Elec       q    Type
REMARK                         _______ _______ _______ _____ _____    ______ ____
ROOT
ATOM      1  C8  UNL     1     -24.260   6.772 -40.122  0.00  0.00    +0.000 C 
ATOM      2  O2  UNL     1     -24.210   7.906 -40.607  0.00  0.00    +0.000 OA
ENDROOT
BRANCH   1   3
ATOM      3  C7  UNL     1     -23.669   6.487 -38.757  0.00  0.00    +0.000 C 
BRANCH   3   4
ATOM      4  C6  UNL     1     -23.100   7.741 -38.101  0.00  0.00    +0.000 C 
BRANCH   4   9
ATOM      5  N1  UNL     1     -19.780   9.409 -37.539  0.00  0.00    +0.000 N 
ATOM      6  C1  UNL     1     -18.971   8.893 -38.618  0.00  0.00    +0.000 C 
ATOM      7  C2  UNL     1     -19.311   7.454 -38.958  0.00  0.00    +0.000 C 
ATOM      8  C3  UNL     1     -20.814   7.323 -39.172  0.00  0.00    +0.000 C 
ATOM      9  C4  UNL     1     -21.569   7.742 -37.906  0.00  0.00    +0.000 C 
ATOM     10  C5  UNL     1     -21.109   9.112 -37.400  0.00  0.00    +0.000 C 
ATOM     11  O1  UNL     1     -21.844   9.886 -36.792  0.00  0.00    +0.000 OA
ATOM     12  H1  UNL     1     -19.557  10.334 -37.189  0.00  0.00    +0.000 HD
ENDBRANCH   4   9
ENDBRANCH   3   4
ENDBRANCH   1   3
BRANCH   1  13
ATOM     13  C9  UNL     1     -24.860   5.587 -40.877  0.00  0.00    +0.000 C 
BRANCH  13  14
ATOM     14  O3  UNL     1     -24.313   4.344 -40.447  0.00  0.00    +0.000 OA
BRANCH  14  15
ATOM     15  C10 UNL     1     -24.885   3.251 -41.045  0.00  0.00    +0.000 C 
ATOM     16  O4  UNL     1     -24.520   2.798 -42.125  0.00  0.00    +0.000 OA
BRANCH  15  17
ATOM     17  C11 UNL     1     -25.996   2.666 -40.136  0.00  0.00    +0.000 C 
ATOM     18  O5  UNL     1     -27.267   3.234 -40.446  0.00  0.00    +0.000 OA
ATOM     19  C12 UNL     1     -28.305   2.625 -39.689  0.00  0.00    +0.000 C 
ATOM     20  C13 UNL     1     -28.020   2.768 -38.204  0.00  0.00    +0.000 C 
ATOM     21  C14 UNL     1     -26.626   2.244 -37.910  0.00  0.00    +0.000 C 
ATOM     22  O6  UNL     1     -25.677   2.876 -38.760  0.00  0.00    +0.000 OA
ENDBRANCH  15  17
ENDBRANCH  14  15
ENDBRANCH  13  14
ENDBRANCH   1  13
TORSDOF 7
ENDMDL
MODEL 7
REMARK VINA RESULT:    -4.459     15.702     18.691
REMARK INTER + INTRA:          -7.318
REMARK INTER:                  -6.527
REMARK INTRA:                  -0.790
REMARK UNBOUND:                -1.034
REMARK  Name = /home/anacleto/Desktop/manuscript_Mpro/naturecomm/supplementary_file_S2/6-chemical-library/molecular_docking/3D_ligand_structure/428.pdb
REMARK  7 active torsions:
REMARK  status: ('A' for Active; 'I' for Inactive)
REMARK    1  A    between atoms: C4_5  and  C6_8
REMARK    2  A    between atoms: C6_8  and  C7_9
REMARK    3  A    between atoms: C7_9  and  C8_10
REMARK    4  A    between atoms: C8_10  and  C9_12
REMARK    5  A    between atoms: C9_12  and  O3_13
REMARK    6  A    between atoms: O3_13  and  C10_14
REMARK    7  A    between atoms: C10_14  and  C11_16
REMARK                            x       y       z     vdW  Elec       q    Type
REMARK                         _______ _______ _______ _____ _____    ______ ____
ROOT
ATOM      1  C8  UNL     1     -28.553  -5.933 -25.812  0.00  0.00    +0.000 C 
ATOM      2  O2  UNL     1     -29.582  -5.666 -26.439  0.00  0.00    +0.000 OA
ENDROOT
BRANCH   1   3
ATOM      3  C7  UNL     1     -28.621  -6.373 -24.365  0.00  0.00    +0.000 C 
BRANCH   3   4
ATOM      4  C6  UNL     1     -27.240  -6.648 -23.778  0.00  0.00    +0.000 C 
BRANCH   4   9
ATOM      5  N1  UNL     1     -24.954  -4.865 -21.387  0.00  0.00    +0.000 N 
ATOM      6  C1  UNL     1     -25.164  -5.576 -20.147  0.00  0.00    +0.000 C 
ATOM      7  C2  UNL     1     -26.598  -6.043 -19.984  0.00  0.00    +0.000 C 
ATOM      8  C3  UNL     1     -27.032  -6.802 -21.233  0.00  0.00    +0.000 C 
ATOM      9  C4  UNL     1     -26.924  -5.899 -22.467  0.00  0.00    +0.000 C 
ATOM     10  C5  UNL     1     -25.548  -5.235 -22.563  0.00  0.00    +0.000 C 
ATOM     11  O1  UNL     1     -25.023  -4.929 -23.631  0.00  0.00    +0.000 OA
ATOM     12  H1  UNL     1     -24.045  -4.442 -21.534  0.00  0.00    +0.000 HD
ENDBRANCH   4   9
ENDBRANCH   3   4
ENDBRANCH   1   3
BRANCH   1  13
ATOM     13  C9  UNL     1     -27.162  -5.784 -26.426  0.00  0.00    +0.000 C 
BRANCH  13  14
ATOM     14  O3  UNL     1     -26.803  -4.418 -26.615  0.00  0.00    +0.000 OA
BRANCH  14  15
ATOM     15  C10 UNL     1     -26.822  -4.018 -27.926  0.00  0.00    +0.000 C 
ATOM     16  O4  UNL     1     -27.843  -3.695 -28.525  0.00  0.00    +0.000 OA
BRANCH  15  17
ATOM     17  C11 UNL     1     -25.380  -3.989 -28.495  0.00  0.00    +0.000 C 
ATOM     18  O5  UNL     1     -25.093  -5.175 -29.233  0.00  0.00    +0.000 OA
ATOM     19  C12 UNL     1     -23.812  -5.107 -29.845  0.00  0.00    +0.000 C 
ATOM     20  C13 UNL     1     -22.742  -4.879 -28.792  0.00  0.00    +0.000 C 
ATOM     21  C14 UNL     1     -23.114  -3.666 -27.957  0.00  0.00    +0.000 C 
ATOM     22  O6  UNL     1     -24.431  -3.813 -27.442  0.00  0.00    +0.000 OA
ENDBRANCH  15  17
ENDBRANCH  14  15
ENDBRANCH  13  14
ENDBRANCH   1  13
TORSDOF 7
ENDMDL
MODEL 8
REMARK VINA RESULT:    -4.458     16.136     19.288
REMARK INTER + INTRA:          -7.316
REMARK INTER:                  -6.282
REMARK INTRA:                  -1.034
REMARK UNBOUND:                -1.034
REMARK  Name = /home/anacleto/Desktop/manuscript_Mpro/naturecomm/supplementary_file_S2/6-chemical-library/molecular_docking/3D_ligand_structure/428.pdb
REMARK  7 active torsions:
REMARK  status: ('A' for Active; 'I' for Inactive)
REMARK    1  A    between atoms: C4_5  and  C6_8
REMARK    2  A    between atoms: C6_8  and  C7_9
REMARK    3  A    between atoms: C7_9  and  C8_10
REMARK    4  A    between atoms: C8_10  and  C9_12
REMARK    5  A    between atoms: C9_12  and  O3_13
REMARK    6  A    between atoms: O3_13  and  C10_14
REMARK    7  A    between atoms: C10_14  and  C11_16
REMARK                            x       y       z     vdW  Elec       q    Type
REMARK                         _______ _______ _______ _____ _____    ______ ____
ROOT
ATOM      1  C8  UNL     1     -25.759  -5.789 -22.861  0.00  0.00    +0.000 C 
ATOM      2  O2  UNL     1     -26.824  -5.528 -22.294  0.00  0.00    +0.000 OA
ENDROOT
BRANCH   1   3
ATOM      3  C7  UNL     1     -25.734  -6.669 -24.094  0.00  0.00    +0.000 C 
BRANCH   3   4
ATOM      4  C6  UNL     1     -26.134  -5.909 -25.354  0.00  0.00    +0.000 C 
BRANCH   4   9
ATOM      5  N1  UNL     1     -29.591  -5.291 -26.692  0.00  0.00    +0.000 N 
ATOM      6  C1  UNL     1     -30.397  -6.238 -25.958  0.00  0.00    +0.000 C 
ATOM      7  C2  UNL     1     -29.659  -7.535 -25.684  0.00  0.00    +0.000 C 
ATOM      8  C3  UNL     1     -28.306  -7.227 -25.052  0.00  0.00    +0.000 C 
ATOM      9  C4  UNL     1     -27.470  -6.349 -25.990  0.00  0.00    +0.000 C 
ATOM     10  C5  UNL     1     -28.252  -5.122 -26.464  0.00  0.00    +0.000 C 
ATOM     11  O1  UNL     1     -27.718  -4.052 -26.745  0.00  0.00    +0.000 OA
ATOM     12  H1  UNL     1     -30.039  -4.432 -26.994  0.00  0.00    +0.000 HD
ENDBRANCH   4   9
ENDBRANCH   3   4
ENDBRANCH   1   3
BRANCH   1  13
ATOM     13  C9  UNL     1     -24.412  -5.300 -22.333  0.00  0.00    +0.000 C 
BRANCH  13  14
ATOM     14  O3  UNL     1     -23.345  -5.590 -23.232  0.00  0.00    +0.000 OA
BRANCH  14  15
ATOM     15  C10 UNL     1     -22.730  -4.474 -23.738  0.00  0.00    +0.000 C 
ATOM     16  O4  UNL     1     -22.353  -3.533 -23.048  0.00  0.00    +0.000 OA
BRANCH  15  17
ATOM     17  C11 UNL     1     -22.545  -4.617 -25.271  0.00  0.00    +0.000 C 
ATOM     18  O5  UNL     1     -23.446  -3.769 -25.980  0.00  0.00    +0.000 OA
ATOM     19  C12 UNL     1     -23.208  -3.816 -27.381  0.00  0.00    +0.000 C 
ATOM     20  C13 UNL     1     -23.334  -5.243 -27.883  0.00  0.00    +0.000 C 
ATOM     21  C14 UNL     1     -22.437  -6.145 -27.054  0.00  0.00    +0.000 C 
ATOM     22  O6  UNL     1     -22.719  -5.976 -25.671  0.00  0.00    +0.000 OA
ENDBRANCH  15  17
ENDBRANCH  14  15
ENDBRANCH  13  14
ENDBRANCH   1  13
TORSDOF 7
ENDMDL
MODEL 9
REMARK VINA RESULT:    -4.303     14.644     16.304
REMARK INTER + INTRA:          -7.098
REMARK INTER:                  -5.486
REMARK INTRA:                  -1.612
REMARK UNBOUND:                -1.034
REMARK  Name = /home/anacleto/Desktop/manuscript_Mpro/naturecomm/supplementary_file_S2/6-chemical-library/molecular_docking/3D_ligand_structure/428.pdb
REMARK  7 active torsions:
REMARK  status: ('A' for Active; 'I' for Inactive)
REMARK    1  A    between atoms: C4_5  and  C6_8
REMARK    2  A    between atoms: C6_8  and  C7_9
REMARK    3  A    between atoms: C7_9  and  C8_10
REMARK    4  A    between atoms: C8_10  and  C9_12
REMARK    5  A    between atoms: C9_12  and  O3_13
REMARK    6  A    between atoms: O3_13  and  C10_14
REMARK    7  A    between atoms: C10_14  and  C11_16
REMARK                            x       y       z     vdW  Elec       q    Type
REMARK                         _______ _______ _______ _____ _____    ______ ____
ROOT
ATOM      1  C8  UNL     1     -23.632  -7.438 -30.748  0.00  0.00    +0.000 C 
ATOM      2  O2  UNL     1     -24.185  -8.489 -31.088  0.00  0.00    +0.000 OA
ENDROOT
BRANCH   1   3
ATOM      3  C7  UNL     1     -22.124  -7.311 -30.787  0.00  0.00    +0.000 C 
BRANCH   3   4
ATOM      4  C6  UNL     1     -21.453  -8.015 -29.612  0.00  0.00    +0.000 C 
BRANCH   4   9
ATOM      5  N1  UNL     1     -21.778  -5.744 -26.636  0.00  0.00    +0.000 N 
ATOM      6  C1  UNL     1     -21.103  -4.542 -27.069  0.00  0.00    +0.000 C 
ATOM      7  C2  UNL     1     -19.914  -4.838 -27.964  0.00  0.00    +0.000 C 
ATOM      8  C3  UNL     1     -20.345  -5.768 -29.092  0.00  0.00    +0.000 C 
ATOM      9  C4  UNL     1     -20.894  -7.079 -28.520  0.00  0.00    +0.000 C 
ATOM     10  C5  UNL     1     -21.961  -6.827 -27.452  0.00  0.00    +0.000 C 
ATOM     11  O1  UNL     1     -22.890  -7.601 -27.234  0.00  0.00    +0.000 OA
ATOM     12  H1  UNL     1     -22.530  -5.640 -25.963  0.00  0.00    +0.000 HD
ENDBRANCH   4   9
ENDBRANCH   3   4
ENDBRANCH   1   3
BRANCH   1  13
ATOM     13  C9  UNL     1     -24.415  -6.238 -30.219  0.00  0.00    +0.000 C 
BRANCH  13  14
ATOM     14  O3  UNL     1     -23.595  -5.081 -30.083  0.00  0.00    +0.000 OA
BRANCH  14  15
ATOM     15  C10 UNL     1     -24.114  -4.131 -29.242  0.00  0.00    +0.000 C 
ATOM     16  O4  UNL     1     -23.746  -2.961 -29.227  0.00  0.00    +0.000 OA
BRANCH  15  17
ATOM     17  C11 UNL     1     -25.246  -4.745 -28.379  0.00  0.00    +0.000 C 
ATOM     18  O5  UNL     1     -26.433  -3.956 -28.447  0.00  0.00    +0.000 OA
ATOM     19  C12 UNL     1     -27.504  -4.571 -27.744  0.00  0.00    +0.000 C 
ATOM     20  C13 UNL     1     -27.114  -4.797 -26.294  0.00  0.00    +0.000 C 
ATOM     21  C14 UNL     1     -25.801  -5.557 -26.242  0.00  0.00    +0.000 C 
ATOM     22  O6  UNL     1     -24.819  -4.888 -27.024  0.00  0.00    +0.000 OA
ENDBRANCH  15  17
ENDBRANCH  14  15
ENDBRANCH  13  14
ENDBRANCH   1  13
TORSDOF 7
ENDMDL
