MODEL 1
REMARK VINA RESULT:    -5.580      0.000      0.000
REMARK INTER + INTRA:          -7.525
REMARK INTER:                  -7.181
REMARK INTRA:                  -0.344
REMARK UNBOUND:                -0.314
REMARK  Name = /home/anacleto/Desktop/manuscript_Mpro/naturecomm/supplementary_file_S2/6-chemical-library/molecular_docking/3D_ligand_structure/597.pdb
REMARK  5 active torsions:
REMARK  status: ('A' for Active; 'I' for Inactive)
REMARK    1  A    between atoms: C4_5  and  C5_6
REMARK    2  A    between atoms: C5_6  and  N1_7
REMARK    3  A    between atoms: C6_8  and  C7_10
REMARK    4  A    between atoms: C7_10  and  N2_11
REMARK    5  A    between atoms: N2_11  and  C8_12
REMARK                            x       y       z     vdW  Elec       q    Type
REMARK                         _______ _______ _______ _____ _____    ______ ____
ROOT
ATOM      1  N1  UNL     1     -37.291   3.076 -16.507  0.00  0.00    +0.000 N 
ATOM      2  C6  UNL     1     -37.852   3.220 -15.252  0.00  0.00    +0.000 C 
ATOM      3  O2  UNL     1     -38.741   2.498 -14.812  0.00  0.00    +0.000 OA
ATOM      4  H10 UNL     1     -36.439   3.617 -16.649  0.00  0.00    +0.000 HD
ENDROOT
BRANCH   1   5
ATOM      5  C5  UNL     1     -37.564   1.929 -17.344  0.00  0.00    +0.000 C 
BRANCH   5  10
ATOM      6  C1  UNL     1     -37.068  -0.556 -17.357  0.00  0.00    +0.000 C 
ATOM      7  O1  UNL     1     -35.956  -1.388 -17.721  0.00  0.00    +0.000 OA
ATOM      8  C2  UNL     1     -34.857  -0.542 -18.090  0.00  0.00    +0.000 C 
ATOM      9  C3  UNL     1     -35.404   0.865 -18.199  0.00  0.00    +0.000 C 
ATOM     10  C4  UNL     1     -36.513   0.845 -17.167  0.00  0.00    +0.000 C 
ENDBRANCH   5  10
ENDBRANCH   1   5
BRANCH   2  11
ATOM     11  C7  UNL     1     -37.282   4.414 -14.475  0.00  0.00    +0.000 C 
BRANCH  11  12
ATOM     12  N2  UNL     1     -37.197   5.590 -15.365  0.00  0.00    +0.000 N 
ATOM     13  H13 UNL     1     -36.222   5.848 -15.527  0.00  0.00    +0.000 HD
BRANCH  12  14
ATOM     14  C8  UNL     1     -37.940   6.736 -15.044  0.00  0.00    +0.000 A 
ATOM     15  C9  UNL     1     -39.177   6.708 -14.390  0.00  0.00    +0.000 A 
ATOM     16  C10 UNL     1     -39.906   7.883 -14.170  0.00  0.00    +0.000 A 
ATOM     17  C11 UNL     1     -39.422   9.105 -14.625  0.00  0.00    +0.000 A 
ATOM     18  C12 UNL     1     -38.213   9.150 -15.313  0.00  0.00    +0.000 A 
ATOM     19  C13 UNL     1     -37.489   7.973 -15.529  0.00  0.00    +0.000 A 
ENDBRANCH  12  14
ENDBRANCH  11  12
ENDBRANCH   2  11
TORSDOF 5
ENDMDL
MODEL 2
REMARK VINA RESULT:    -5.216      1.988      7.468
REMARK INTER + INTRA:          -7.054
REMARK INTER:                  -6.758
REMARK INTRA:                  -0.297
REMARK UNBOUND:                -0.314
REMARK  Name = /home/anacleto/Desktop/manuscript_Mpro/naturecomm/supplementary_file_S2/6-chemical-library/molecular_docking/3D_ligand_structure/597.pdb
REMARK  5 active torsions:
REMARK  status: ('A' for Active; 'I' for Inactive)
REMARK    1  A    between atoms: C4_5  and  C5_6
REMARK    2  A    between atoms: C5_6  and  N1_7
REMARK    3  A    between atoms: C6_8  and  C7_10
REMARK    4  A    between atoms: C7_10  and  N2_11
REMARK    5  A    between atoms: N2_11  and  C8_12
REMARK                            x       y       z     vdW  Elec       q    Type
REMARK                         _______ _______ _______ _____ _____    ______ ____
ROOT
ATOM      1  N1  UNL     1     -37.314   4.942 -15.214  0.00  0.00    +0.000 N 
ATOM      2  C6  UNL     1     -37.687   3.820 -14.498  0.00  0.00    +0.000 C 
ATOM      3  O2  UNL     1     -37.758   3.781 -13.274  0.00  0.00    +0.000 OA
ATOM      4  H10 UNL     1     -37.493   4.878 -16.215  0.00  0.00    +0.000 HD
ENDROOT
BRANCH   1   5
ATOM      5  C5  UNL     1     -37.166   6.238 -14.590  0.00  0.00    +0.000 C 
BRANCH   5  10
ATOM      6  C1  UNL     1     -39.154   7.764 -14.218  0.00  0.00    +0.000 C 
ATOM      7  O1  UNL     1     -39.575   9.052 -14.696  0.00  0.00    +0.000 OA
ATOM      8  C2  UNL     1     -38.633   9.502 -15.681  0.00  0.00    +0.000 C 
ATOM      9  C3  UNL     1     -37.449   8.561 -15.617  0.00  0.00    +0.000 C 
ATOM     10  C4  UNL     1     -38.109   7.262 -15.200  0.00  0.00    +0.000 C 
ENDBRANCH   5  10
ENDBRANCH   1   5
BRANCH   2  11
ATOM     11  C7  UNL     1     -37.957   2.602 -15.392  0.00  0.00    +0.000 C 
BRANCH  11  12
ATOM     12  N2  UNL     1     -37.274   2.778 -16.690  0.00  0.00    +0.000 N 
ATOM     13  H13 UNL     1     -37.591   3.634 -17.149  0.00  0.00    +0.000 HD
BRANCH  12  14
ATOM     14  C8  UNL     1     -37.287   1.718 -17.609  0.00  0.00    +0.000 A 
ATOM     15  C9  UNL     1     -38.377   1.406 -18.429  0.00  0.00    +0.000 A 
ATOM     16  C10 UNL     1     -38.354   0.286 -19.269  0.00  0.00    +0.000 A 
ATOM     17  C11 UNL     1     -37.250  -0.559 -19.281  0.00  0.00    +0.000 A 
ATOM     18  C12 UNL     1     -36.172  -0.290 -18.444  0.00  0.00    +0.000 A 
ATOM     19  C13 UNL     1     -36.199   0.831 -17.608  0.00  0.00    +0.000 A 
ENDBRANCH  12  14
ENDBRANCH  11  12
ENDBRANCH   2  11
TORSDOF 5
ENDMDL
MODEL 3
REMARK VINA RESULT:    -5.132     25.179     27.399
REMARK INTER + INTRA:          -6.945
REMARK INTER:                  -6.643
REMARK INTRA:                  -0.302
REMARK UNBOUND:                -0.314
REMARK  Name = /home/anacleto/Desktop/manuscript_Mpro/naturecomm/supplementary_file_S2/6-chemical-library/molecular_docking/3D_ligand_structure/597.pdb
REMARK  5 active torsions:
REMARK  status: ('A' for Active; 'I' for Inactive)
REMARK    1  A    between atoms: C4_5  and  C5_6
REMARK    2  A    between atoms: C5_6  and  N1_7
REMARK    3  A    between atoms: C6_8  and  C7_10
REMARK    4  A    between atoms: C7_10  and  N2_11
REMARK    5  A    between atoms: N2_11  and  C8_12
REMARK                            x       y       z     vdW  Elec       q    Type
REMARK                         _______ _______ _______ _____ _____    ______ ____
ROOT
ATOM      1  N1  UNL     1     -24.072   5.137 -38.673  0.00  0.00    +0.000 N 
ATOM      2  C6  UNL     1     -23.318   6.295 -38.694  0.00  0.00    +0.000 C 
ATOM      3  O2  UNL     1     -23.587   7.277 -39.379  0.00  0.00    +0.000 OA
ATOM      4  H10 UNL     1     -23.837   4.498 -37.916  0.00  0.00    +0.000 HD
ENDROOT
BRANCH   1   5
ATOM      5  C5  UNL     1     -25.366   5.051 -39.312  0.00  0.00    +0.000 C 
BRANCH   5  10
ATOM      6  C1  UNL     1     -27.664   3.987 -39.208  0.00  0.00    +0.000 C 
ATOM      7  O1  UNL     1     -28.220   2.773 -38.678  0.00  0.00    +0.000 OA
ATOM      8  C2  UNL     1     -27.184   2.064 -37.983  0.00  0.00    +0.000 C 
ATOM      9  C3  UNL     1     -25.879   2.753 -38.319  0.00  0.00    +0.000 C 
ATOM     10  C4  UNL     1     -26.328   4.187 -38.513  0.00  0.00    +0.000 C 
ENDBRANCH   5  10
ENDBRANCH   1   5
BRANCH   2  11
ATOM     11  C7  UNL     1     -22.072   6.214 -37.802  0.00  0.00    +0.000 C 
BRANCH  11  12
ATOM     12  N2  UNL     1     -20.861   6.412 -38.624  0.00  0.00    +0.000 N 
ATOM     13  H13 UNL     1     -20.228   5.616 -38.527  0.00  0.00    +0.000 HD
BRANCH  12  14
ATOM     14  C8  UNL     1     -20.139   7.607 -38.488  0.00  0.00    +0.000 A 
ATOM     15  C9  UNL     1     -20.662   8.776 -37.924  0.00  0.00    +0.000 A 
ATOM     16  C10 UNL     1     -19.915   9.960 -37.889  0.00  0.00    +0.000 A 
ATOM     17  C11 UNL     1     -18.641  10.002 -38.446  0.00  0.00    +0.000 A 
ATOM     18  C12 UNL     1     -18.118   8.862 -39.048  0.00  0.00    +0.000 A 
ATOM     19  C13 UNL     1     -18.868   7.682 -39.078  0.00  0.00    +0.000 A 
ENDBRANCH  12  14
ENDBRANCH  11  12
ENDBRANCH   2  11
TORSDOF 5
ENDMDL
MODEL 4
REMARK VINA RESULT:    -4.898     25.068     27.333
REMARK INTER + INTRA:          -6.643
REMARK INTER:                  -6.318
REMARK INTRA:                  -0.325
REMARK UNBOUND:                -0.314
REMARK  Name = /home/anacleto/Desktop/manuscript_Mpro/naturecomm/supplementary_file_S2/6-chemical-library/molecular_docking/3D_ligand_structure/597.pdb
REMARK  5 active torsions:
REMARK  status: ('A' for Active; 'I' for Inactive)
REMARK    1  A    between atoms: C4_5  and  C5_6
REMARK    2  A    between atoms: C5_6  and  N1_7
REMARK    3  A    between atoms: C6_8  and  C7_10
REMARK    4  A    between atoms: C7_10  and  N2_11
REMARK    5  A    between atoms: N2_11  and  C8_12
REMARK                            x       y       z     vdW  Elec       q    Type
REMARK                         _______ _______ _______ _____ _____    ______ ____
ROOT
ATOM      1  N1  UNL     1     -22.468   6.578 -38.681  0.00  0.00    +0.000 N 
ATOM      2  C6  UNL     1     -23.781   7.009 -38.699  0.00  0.00    +0.000 C 
ATOM      3  O2  UNL     1     -24.257   7.793 -37.884  0.00  0.00    +0.000 OA
ATOM      4  H10 UNL     1     -22.175   6.092 -39.527  0.00  0.00    +0.000 HD
ENDROOT
BRANCH   1   5
ATOM      5  C5  UNL     1     -21.476   7.170 -37.811  0.00  0.00    +0.000 C 
BRANCH   5  10
ATOM      6  C1  UNL     1     -20.874   9.621 -37.583  0.00  0.00    +0.000 C 
ATOM      7  O1  UNL     1     -19.792  10.465 -38.007  0.00  0.00    +0.000 OA
ATOM      8  C2  UNL     1     -18.900   9.687 -38.820  0.00  0.00    +0.000 C 
ATOM      9  C3  UNL     1     -19.324   8.242 -38.676  0.00  0.00    +0.000 C 
ATOM     10  C4  UNL     1     -20.817   8.379 -38.455  0.00  0.00    +0.000 C 
ENDBRANCH   5  10
ENDBRANCH   1   5
BRANCH   2  11
ATOM     11  C7  UNL     1     -24.606   6.367 -39.823  0.00  0.00    +0.000 C 
BRANCH  11  12
ATOM     12  N2  UNL     1     -25.992   6.153 -39.359  0.00  0.00    +0.000 N 
ATOM     13  H13 UNL     1     -26.224   6.807 -38.609  0.00  0.00    +0.000 HD
BRANCH  12  14
ATOM     14  C8  UNL     1     -26.391   4.858 -38.996  0.00  0.00    +0.000 A 
ATOM     15  C9  UNL     1     -27.714   4.496 -38.720  0.00  0.00    +0.000 A 
ATOM     16  C10 UNL     1     -28.035   3.204 -38.286  0.00  0.00    +0.000 A 
ATOM     17  C11 UNL     1     -27.033   2.259 -38.093  0.00  0.00    +0.000 A 
ATOM     18  C12 UNL     1     -25.707   2.610 -38.323  0.00  0.00    +0.000 A 
ATOM     19  C13 UNL     1     -25.392   3.901 -38.758  0.00  0.00    +0.000 A 
ENDBRANCH  12  14
ENDBRANCH  11  12
ENDBRANCH   2  11
TORSDOF 5
ENDMDL
MODEL 5
REMARK VINA RESULT:    -4.638     25.240     27.144
REMARK INTER + INTRA:          -6.308
REMARK INTER:                  -5.902
REMARK INTRA:                  -0.405
REMARK UNBOUND:                -0.314
REMARK  Name = /home/anacleto/Desktop/manuscript_Mpro/naturecomm/supplementary_file_S2/6-chemical-library/molecular_docking/3D_ligand_structure/597.pdb
REMARK  5 active torsions:
REMARK  status: ('A' for Active; 'I' for Inactive)
REMARK    1  A    between atoms: C4_5  and  C5_6
REMARK    2  A    between atoms: C5_6  and  N1_7
REMARK    3  A    between atoms: C6_8  and  C7_10
REMARK    4  A    between atoms: C7_10  and  N2_11
REMARK    5  A    between atoms: N2_11  and  C8_12
REMARK                            x       y       z     vdW  Elec       q    Type
REMARK                         _______ _______ _______ _____ _____    ______ ____
ROOT
ATOM      1  N1  UNL     1     -23.400   6.377 -39.270  0.00  0.00    +0.000 N 
ATOM      2  C6  UNL     1     -23.496   5.991 -40.594  0.00  0.00    +0.000 C 
ATOM      3  O2  UNL     1     -22.582   6.094 -41.406  0.00  0.00    +0.000 OA
ATOM      4  H10 UNL     1     -24.164   6.049 -38.682  0.00  0.00    +0.000 HD
ENDROOT
BRANCH   1   5
ATOM      5  C5  UNL     1     -22.140   6.754 -38.669  0.00  0.00    +0.000 C 
BRANCH   5  10
ATOM      6  C1  UNL     1     -23.493   8.711 -37.797  0.00  0.00    +0.000 C 
ATOM      7  O1  UNL     1     -23.247   9.843 -36.947  0.00  0.00    +0.000 OA
ATOM      8  C2  UNL     1     -21.855   9.857 -36.599  0.00  0.00    +0.000 C 
ATOM      9  C3  UNL     1     -21.277   8.532 -37.048  0.00  0.00    +0.000 C 
ATOM     10  C4  UNL     1     -22.133   8.218 -38.259  0.00  0.00    +0.000 C 
ENDBRANCH   5  10
ENDBRANCH   1   5
BRANCH   2  11
ATOM     11  C7  UNL     1     -24.888   5.462 -40.964  0.00  0.00    +0.000 C 
BRANCH  11  12
ATOM     12  N2  UNL     1     -25.815   5.673 -39.833  0.00  0.00    +0.000 N 
ATOM     13  H13 UNL     1     -25.395   6.291 -39.136  0.00  0.00    +0.000 HD
BRANCH  12  14
ATOM     14  C8  UNL     1     -26.371   4.553 -39.197  0.00  0.00    +0.000 A 
ATOM     15  C9  UNL     1     -25.618   3.555 -38.570  0.00  0.00    +0.000 A 
ATOM     16  C10 UNL     1     -26.230   2.421 -38.022  0.00  0.00    +0.000 A 
ATOM     17  C11 UNL     1     -27.608   2.254 -38.118  0.00  0.00    +0.000 A 
ATOM     18  C12 UNL     1     -28.372   3.214 -38.773  0.00  0.00    +0.000 A 
ATOM     19  C13 UNL     1     -27.754   4.345 -39.317  0.00  0.00    +0.000 A 
ENDBRANCH  12  14
ENDBRANCH  11  12
ENDBRANCH   2  11
TORSDOF 5
ENDMDL
MODEL 6
REMARK VINA RESULT:    -4.557     15.372     17.894
REMARK INTER + INTRA:          -6.202
REMARK INTER:                  -5.706
REMARK INTRA:                  -0.497
REMARK UNBOUND:                -0.314
REMARK  Name = /home/anacleto/Desktop/manuscript_Mpro/naturecomm/supplementary_file_S2/6-chemical-library/molecular_docking/3D_ligand_structure/597.pdb
REMARK  5 active torsions:
REMARK  status: ('A' for Active; 'I' for Inactive)
REMARK    1  A    between atoms: C4_5  and  C5_6
REMARK    2  A    between atoms: C5_6  and  N1_7
REMARK    3  A    between atoms: C6_8  and  C7_10
REMARK    4  A    between atoms: C7_10  and  N2_11
REMARK    5  A    between atoms: N2_11  and  C8_12
REMARK                            x       y       z     vdW  Elec       q    Type
REMARK                         _______ _______ _______ _____ _____    ______ ____
ROOT
ATOM      1  N1  UNL     1     -38.019  -3.047 -33.773  0.00  0.00    +0.000 N 
ATOM      2  C6  UNL     1     -38.836  -3.381 -32.709  0.00  0.00    +0.000 C 
ATOM      3  O2  UNL     1     -40.060  -3.433 -32.775  0.00  0.00    +0.000 OA
ATOM      4  H10 UNL     1     -37.031  -3.239 -33.618  0.00  0.00    +0.000 HD
ENDROOT
BRANCH   1   5
ATOM      5  C5  UNL     1     -38.526  -2.922 -35.122  0.00  0.00    +0.000 C 
BRANCH   5  10
ATOM      6  C1  UNL     1     -38.115  -0.517 -35.803  0.00  0.00    +0.000 C 
ATOM      7  O1  UNL     1     -36.970   0.284 -36.136  0.00  0.00    +0.000 OA
ATOM      8  C2  UNL     1     -35.809  -0.561 -36.140  0.00  0.00    +0.000 C 
ATOM      9  C3  UNL     1     -36.228  -1.883 -35.534  0.00  0.00    +0.000 C 
ATOM     10  C4  UNL     1     -37.683  -1.966 -35.949  0.00  0.00    +0.000 C 
ENDBRANCH   5  10
ENDBRANCH   1   5
BRANCH   2  11
ATOM     11  C7  UNL     1     -38.056  -3.634 -31.412  0.00  0.00    +0.000 C 
BRANCH  11  12
ATOM     12  N2  UNL     1     -38.745  -2.976 -30.283  0.00  0.00    +0.000 N 
ATOM     13  H13 UNL     1     -39.758  -3.044 -30.392  0.00  0.00    +0.000 HD
BRANCH  12  14
ATOM     14  C8  UNL     1     -38.393  -1.659 -29.952  0.00  0.00    +0.000 A 
ATOM     15  C9  UNL     1     -37.207  -1.307 -29.299  0.00  0.00    +0.000 A 
ATOM     16  C10 UNL     1     -36.951   0.019 -28.926  0.00  0.00    +0.000 A 
ATOM     17  C11 UNL     1     -37.893   1.011 -29.176  0.00  0.00    +0.000 A 
ATOM     18  C12 UNL     1     -39.096   0.676 -29.789  0.00  0.00    +0.000 A 
ATOM     19  C13 UNL     1     -39.345  -0.649 -30.160  0.00  0.00    +0.000 A 
ENDBRANCH  12  14
ENDBRANCH  11  12
ENDBRANCH   2  11
TORSDOF 5
ENDMDL
MODEL 7
REMARK VINA RESULT:    -4.543     24.909     26.365
REMARK INTER + INTRA:          -6.184
REMARK INTER:                  -5.714
REMARK INTRA:                  -0.470
REMARK UNBOUND:                -0.314
REMARK  Name = /home/anacleto/Desktop/manuscript_Mpro/naturecomm/supplementary_file_S2/6-chemical-library/molecular_docking/3D_ligand_structure/597.pdb
REMARK  5 active torsions:
REMARK  status: ('A' for Active; 'I' for Inactive)
REMARK    1  A    between atoms: C4_5  and  C5_6
REMARK    2  A    between atoms: C5_6  and  N1_7
REMARK    3  A    between atoms: C6_8  and  C7_10
REMARK    4  A    between atoms: C7_10  and  N2_11
REMARK    5  A    between atoms: N2_11  and  C8_12
REMARK                            x       y       z     vdW  Elec       q    Type
REMARK                         _______ _______ _______ _____ _____    ______ ____
ROOT
ATOM      1  N1  UNL     1     -26.444   6.667 -39.216  0.00  0.00    +0.000 N 
ATOM      2  C6  UNL     1     -26.601   8.039 -39.279  0.00  0.00    +0.000 C 
ATOM      3  O2  UNL     1     -27.664   8.596 -39.536  0.00  0.00    +0.000 OA
ATOM      4  H10 UNL     1     -25.564   6.366 -38.803  0.00  0.00    +0.000 HD
ENDROOT
BRANCH   1   5
ATOM      5  C5  UNL     1     -27.571   5.762 -39.252  0.00  0.00    +0.000 C 
BRANCH   5  10
ATOM      6  C1  UNL     1     -25.706   4.127 -38.735  0.00  0.00    +0.000 C 
ATOM      7  O1  UNL     1     -25.616   2.773 -38.264  0.00  0.00    +0.000 OA
ATOM      8  C2  UNL     1     -26.945   2.243 -38.148  0.00  0.00    +0.000 C 
ATOM      9  C3  UNL     1     -27.898   3.408 -38.312  0.00  0.00    +0.000 C 
ATOM     10  C4  UNL     1     -27.122   4.310 -39.251  0.00  0.00    +0.000 C 
ENDBRANCH   5  10
ENDBRANCH   1   5
BRANCH   2  11
ATOM     11  C7  UNL     1     -25.292   8.803 -39.043  0.00  0.00    +0.000 C 
BRANCH  11  12
ATOM     12  N2  UNL     1     -24.630   8.287 -37.827  0.00  0.00    +0.000 N 
ATOM     13  H13 UNL     1     -24.847   8.878 -37.022  0.00  0.00    +0.000 HD
BRANCH  12  14
ATOM     14  C8  UNL     1     -23.251   8.031 -37.865  0.00  0.00    +0.000 A 
ATOM     15  C9  UNL     1     -22.270   8.980 -37.558  0.00  0.00    +0.000 A 
ATOM     16  C10 UNL     1     -20.908   8.684 -37.692  0.00  0.00    +0.000 A 
ATOM     17  C11 UNL     1     -20.505   7.439 -38.164  0.00  0.00    +0.000 A 
ATOM     18  C12 UNL     1     -21.464   6.494 -38.513  0.00  0.00    +0.000 A 
ATOM     19  C13 UNL     1     -22.823   6.795 -38.376  0.00  0.00    +0.000 A 
ENDBRANCH  12  14
ENDBRANCH  11  12
ENDBRANCH   2  11
TORSDOF 5
ENDMDL
MODEL 8
REMARK VINA RESULT:    -4.445     23.223     25.400
REMARK INTER + INTRA:          -6.058
REMARK INTER:                  -5.745
REMARK INTRA:                  -0.314
REMARK UNBOUND:                -0.314
REMARK  Name = /home/anacleto/Desktop/manuscript_Mpro/naturecomm/supplementary_file_S2/6-chemical-library/molecular_docking/3D_ligand_structure/597.pdb
REMARK  5 active torsions:
REMARK  status: ('A' for Active; 'I' for Inactive)
REMARK    1  A    between atoms: C4_5  and  C5_6
REMARK    2  A    between atoms: C5_6  and  N1_7
REMARK    3  A    between atoms: C6_8  and  C7_10
REMARK    4  A    between atoms: C7_10  and  N2_11
REMARK    5  A    between atoms: N2_11  and  C8_12
REMARK                            x       y       z     vdW  Elec       q    Type
REMARK                         _______ _______ _______ _____ _____    ______ ____
ROOT
ATOM      1  N1  UNL     1     -28.436   8.622 -37.785  0.00  0.00    +0.000 N 
ATOM      2  C6  UNL     1     -28.783   7.726 -38.778  0.00  0.00    +0.000 C 
ATOM      3  O2  UNL     1     -28.777   7.993 -39.976  0.00  0.00    +0.000 OA
ATOM      4  H10 UNL     1     -28.300   8.199 -36.868  0.00  0.00    +0.000 HD
ENDROOT
BRANCH   1   5
ATOM      5  C5  UNL     1     -27.838   9.905 -38.082  0.00  0.00    +0.000 C 
BRANCH   5  10
ATOM      6  C1  UNL     1     -27.754  12.280 -37.204  0.00  0.00    +0.000 C 
ATOM      7  O1  UNL     1     -28.280  12.983 -36.067  0.00  0.00    +0.000 OA
ATOM      8  C2  UNL     1     -28.945  12.038 -35.216  0.00  0.00    +0.000 C 
ATOM      9  C3  UNL     1     -29.048  10.744 -35.994  0.00  0.00    +0.000 C 
ATOM     10  C4  UNL     1     -27.804  10.803 -36.856  0.00  0.00    +0.000 C 
ENDBRANCH   5  10
ENDBRANCH   1   5
BRANCH   2  11
ATOM     11  C7  UNL     1     -29.228   6.365 -38.227  0.00  0.00    +0.000 C 
BRANCH  11  12
ATOM     12  N2  UNL     1     -28.833   5.296 -39.167  0.00  0.00    +0.000 N 
ATOM     13  H13 UNL     1     -29.648   4.748 -39.451  0.00  0.00    +0.000 HD
BRANCH  12  14
ATOM     14  C8  UNL     1     -27.787   4.432 -38.808  0.00  0.00    +0.000 A 
ATOM     15  C9  UNL     1     -26.433   4.718 -39.010  0.00  0.00    +0.000 A 
ATOM     16  C10 UNL     1     -25.440   3.780 -38.701  0.00  0.00    +0.000 A 
ATOM     17  C11 UNL     1     -25.790   2.526 -38.210  0.00  0.00    +0.000 A 
ATOM     18  C12 UNL     1     -27.133   2.206 -38.040  0.00  0.00    +0.000 A 
ATOM     19  C13 UNL     1     -28.119   3.148 -38.348  0.00  0.00    +0.000 A 
ENDBRANCH  12  14
ENDBRANCH  11  12
ENDBRANCH   2  11
TORSDOF 5
ENDMDL
MODEL 9
REMARK VINA RESULT:    -4.400     16.509     17.543
REMARK INTER + INTRA:          -6.000
REMARK INTER:                  -5.155
REMARK INTRA:                  -0.845
REMARK UNBOUND:                -0.314
REMARK  Name = /home/anacleto/Desktop/manuscript_Mpro/naturecomm/supplementary_file_S2/6-chemical-library/molecular_docking/3D_ligand_structure/597.pdb
REMARK  5 active torsions:
REMARK  status: ('A' for Active; 'I' for Inactive)
REMARK    1  A    between atoms: C4_5  and  C5_6
REMARK    2  A    between atoms: C5_6  and  N1_7
REMARK    3  A    between atoms: C6_8  and  C7_10
REMARK    4  A    between atoms: C7_10  and  N2_11
REMARK    5  A    between atoms: N2_11  and  C8_12
REMARK                            x       y       z     vdW  Elec       q    Type
REMARK                         _______ _______ _______ _____ _____    ______ ____
ROOT
ATOM      1  N1  UNL     1     -27.141  -6.070 -25.253  0.00  0.00    +0.000 N 
ATOM      2  C6  UNL     1     -27.254  -5.168 -26.294  0.00  0.00    +0.000 C 
ATOM      3  O2  UNL     1     -28.314  -4.667 -26.655  0.00  0.00    +0.000 OA
ATOM      4  H10 UNL     1     -26.184  -6.241 -24.948  0.00  0.00    +0.000 HD
ENDROOT
BRANCH   1   5
ATOM      5  C5  UNL     1     -28.243  -6.355 -24.360  0.00  0.00    +0.000 C 
BRANCH   5  10
ATOM      6  C1  UNL     1     -27.596  -7.748 -22.345  0.00  0.00    +0.000 C 
ATOM      7  O1  UNL     1     -26.685  -7.615 -21.243  0.00  0.00    +0.000 OA
ATOM      8  C2  UNL     1     -26.073  -6.318 -21.314  0.00  0.00    +0.000 C 
ATOM      9  C3  UNL     1     -26.437  -5.734 -22.662  0.00  0.00    +0.000 C 
ATOM     10  C4  UNL     1     -27.800  -6.352 -22.906  0.00  0.00    +0.000 C 
ENDBRANCH   5  10
ENDBRANCH   1   5
BRANCH   2  11
ATOM     11  C7  UNL     1     -25.916  -4.890 -26.991  0.00  0.00    +0.000 C 
BRANCH  11  12
ATOM     12  N2  UNL     1     -25.337  -3.634 -26.470  0.00  0.00    +0.000 N 
ATOM     13  H13 UNL     1     -24.892  -3.105 -27.222  0.00  0.00    +0.000 HD
BRANCH  12  14
ATOM     14  C8  UNL     1     -24.477  -3.695 -25.364  0.00  0.00    +0.000 A 
ATOM     15  C9  UNL     1     -23.664  -4.794 -25.064  0.00  0.00    +0.000 A 
ATOM     16  C10 UNL     1     -22.887  -4.824 -23.900  0.00  0.00    +0.000 A 
ATOM     17  C11 UNL     1     -22.931  -3.765 -23.000  0.00  0.00    +0.000 A 
ATOM     18  C12 UNL     1     -23.762  -2.680 -23.258  0.00  0.00    +0.000 A 
ATOM     19  C13 UNL     1     -24.535  -2.655 -24.423  0.00  0.00    +0.000 A 
ENDBRANCH  12  14
ENDBRANCH  11  12
ENDBRANCH   2  11
TORSDOF 5
ENDMDL
