MODEL 1
REMARK VINA RESULT:    -4.423      0.000      0.000
REMARK INTER + INTRA:          -4.423
REMARK INTER:                  -4.423
REMARK INTRA:                   0.000
REMARK UNBOUND:                 0.000
REMARK  Name = /home/anacleto/Desktop/manuscript_Mpro/naturecomm/supplementary_file_S2/6-chemical-library/molecular_docking/3D_ligand_structure/140.pdb
REMARK  0 active torsions:
REMARK  status: ('A' for Active; 'I' for Inactive)
REMARK                            x       y       z     vdW  Elec       q    Type
REMARK                         _______ _______ _______ _____ _____    ______ ____
ROOT
ATOM      1  C1  UNL     1      16.853  12.507  -5.487  0.00  0.00    +0.000 C 
ATOM      2  C2  UNL     1      17.729  11.593  -4.657  0.00  0.00    +0.000 C 
ATOM      3  S1  UNL     1      16.966  11.203  -3.093  0.00  0.00    +0.000 S 
ATOM      4  O1  UNL     1      17.406  12.210  -2.141  0.00  0.00    +0.000 OA
ATOM      5  O2  UNL     1      17.215   9.797  -2.826  0.00  0.00    +0.000 OA
ATOM      6  C3  UNL     1      15.207  11.427  -3.322  0.00  0.00    +0.000 C 
ATOM      7  C4  UNL     1      14.811  11.230  -4.760  0.00  0.00    +0.000 A 
ATOM      8  C5  UNL     1      15.564  11.796  -5.805  0.00  0.00    +0.000 A 
ATOM      9  C6  UNL     1      13.618  10.557  -5.065  0.00  0.00    +0.000 A 
ATOM     10  C7  UNL     1      13.191  10.435  -6.387  0.00  0.00    +0.000 A 
ATOM     11  C8  UNL     1      13.940  10.999  -7.417  0.00  0.00    +0.000 A 
ATOM     12  C9  UNL     1      15.121  11.680  -7.129  0.00  0.00    +0.000 A 
ENDROOT
TORSDOF 0
ENDMDL
MODEL 2
REMARK VINA RESULT:    -4.307     15.023     16.420
REMARK INTER + INTRA:          -4.307
REMARK INTER:                  -4.307
REMARK INTRA:                   0.000
REMARK UNBOUND:                 0.000
REMARK  Name = /home/anacleto/Desktop/manuscript_Mpro/naturecomm/supplementary_file_S2/6-chemical-library/molecular_docking/3D_ligand_structure/140.pdb
REMARK  0 active torsions:
REMARK  status: ('A' for Active; 'I' for Inactive)
REMARK                            x       y       z     vdW  Elec       q    Type
REMARK                         _______ _______ _______ _____ _____    ______ ____
ROOT
ATOM      1  C1  UNL     1      22.808   5.671  10.111  0.00  0.00    +0.000 C 
ATOM      2  C2  UNL     1      23.541   4.781   9.130  0.00  0.00    +0.000 C 
ATOM      3  S1  UNL     1      22.621   3.292   8.788  0.00  0.00    +0.000 S 
ATOM      4  O1  UNL     1      23.050   2.294   9.755  0.00  0.00    +0.000 OA
ATOM      5  O2  UNL     1      22.742   3.022   7.366  0.00  0.00    +0.000 OA
ATOM      6  C3  UNL     1      20.908   3.667   9.143  0.00  0.00    +0.000 C 
ATOM      7  C4  UNL     1      20.623   5.136   8.984  0.00  0.00    +0.000 A 
ATOM      8  C5  UNL     1      21.502   6.106   9.499  0.00  0.00    +0.000 A 
ATOM      9  C6  UNL     1      19.415   5.549   8.402  0.00  0.00    +0.000 A 
ATOM     10  C7  UNL     1      19.095   6.904   8.320  0.00  0.00    +0.000 A 
ATOM     11  C8  UNL     1      19.969   7.859   8.833  0.00  0.00    +0.000 A 
ATOM     12  C9  UNL     1      21.167   7.463   9.424  0.00  0.00    +0.000 A 
ENDROOT
TORSDOF 0
ENDMDL
MODEL 3
REMARK VINA RESULT:    -4.293      1.169      2.487
REMARK INTER + INTRA:          -4.293
REMARK INTER:                  -4.293
REMARK INTRA:                   0.000
REMARK UNBOUND:                 0.000
REMARK  Name = /home/anacleto/Desktop/manuscript_Mpro/naturecomm/supplementary_file_S2/6-chemical-library/molecular_docking/3D_ligand_structure/140.pdb
REMARK  0 active torsions:
REMARK  status: ('A' for Active; 'I' for Inactive)
REMARK                            x       y       z     vdW  Elec       q    Type
REMARK                         _______ _______ _______ _____ _____    ______ ____
ROOT
ATOM      1  C1  UNL     1      15.507  10.973  -3.187  0.00  0.00    +0.000 C 
ATOM      2  C2  UNL     1      16.136  12.291  -2.786  0.00  0.00    +0.000 C 
ATOM      3  S1  UNL     1      17.596  12.637  -3.752  0.00  0.00    +0.000 S 
ATOM      4  O1  UNL     1      18.726  12.072  -3.033  0.00  0.00    +0.000 OA
ATOM      5  O2  UNL     1      17.578  14.052  -4.076  0.00  0.00    +0.000 OA
ATOM      6  C3  UNL     1      17.422  11.711  -5.273  0.00  0.00    +0.000 C 
ATOM      7  C4  UNL     1      15.976  11.472  -5.609  0.00  0.00    +0.000 A 
ATOM      8  C5  UNL     1      15.060  11.058  -4.623  0.00  0.00    +0.000 A 
ATOM      9  C6  UNL     1      15.548  11.563  -6.942  0.00  0.00    +0.000 A 
ATOM     10  C7  UNL     1      14.230  11.264  -7.286  0.00  0.00    +0.000 A 
ATOM     11  C8  UNL     1      13.330  10.855  -6.306  0.00  0.00    +0.000 A 
ATOM     12  C9  UNL     1      13.742  10.748  -4.979  0.00  0.00    +0.000 A 
ENDROOT
TORSDOF 0
ENDMDL
MODEL 4
REMARK VINA RESULT:    -4.230     15.700     17.289
REMARK INTER + INTRA:          -4.230
REMARK INTER:                  -4.230
REMARK INTRA:                   0.000
REMARK UNBOUND:                 0.000
REMARK  Name = /home/anacleto/Desktop/manuscript_Mpro/naturecomm/supplementary_file_S2/6-chemical-library/molecular_docking/3D_ligand_structure/140.pdb
REMARK  0 active torsions:
REMARK  status: ('A' for Active; 'I' for Inactive)
REMARK                            x       y       z     vdW  Elec       q    Type
REMARK                         _______ _______ _______ _____ _____    ______ ____
ROOT
ATOM      1  C1  UNL     1      18.596   4.515  11.495  0.00  0.00    +0.000 C 
ATOM      2  C2  UNL     1      17.613   5.168  12.442  0.00  0.00    +0.000 C 
ATOM      3  S1  UNL     1      18.341   6.570  13.271  0.00  0.00    +0.000 S 
ATOM      4  O1  UNL     1      18.939   6.075  14.500  0.00  0.00    +0.000 OA
ATOM      5  O2  UNL     1      17.334   7.616  13.325  0.00  0.00    +0.000 OA
ATOM      6  C3  UNL     1      19.678   7.133  12.224  0.00  0.00    +0.000 C 
ATOM      7  C4  UNL     1      19.434   6.777  10.783  0.00  0.00    +0.000 A 
ATOM      8  C5  UNL     1      18.970   5.499  10.419  0.00  0.00    +0.000 A 
ATOM      9  C6  UNL     1      19.768   7.695   9.775  0.00  0.00    +0.000 A 
ATOM     10  C7  UNL     1      19.627   7.354   8.430  0.00  0.00    +0.000 A 
ATOM     11  C8  UNL     1      19.168   6.087   8.077  0.00  0.00    +0.000 A 
ATOM     12  C9  UNL     1      18.844   5.161   9.066  0.00  0.00    +0.000 A 
ENDROOT
TORSDOF 0
ENDMDL
MODEL 5
REMARK VINA RESULT:    -4.225      1.863      2.136
REMARK INTER + INTRA:          -4.225
REMARK INTER:                  -4.225
REMARK INTRA:                   0.000
REMARK UNBOUND:                 0.000
REMARK  Name = /home/anacleto/Desktop/manuscript_Mpro/naturecomm/supplementary_file_S2/6-chemical-library/molecular_docking/3D_ligand_structure/140.pdb
REMARK  0 active torsions:
REMARK  status: ('A' for Active; 'I' for Inactive)
REMARK                            x       y       z     vdW  Elec       q    Type
REMARK                         _______ _______ _______ _____ _____    ______ ____
ROOT
ATOM      1  C1  UNL     1      16.653  12.203  -7.481  0.00  0.00    +0.000 C 
ATOM      2  C2  UNL     1      17.892  11.367  -7.241  0.00  0.00    +0.000 C 
ATOM      3  S1  UNL     1      18.430  11.471  -5.543  0.00  0.00    +0.000 S 
ATOM      4  O1  UNL     1      19.366  12.580  -5.461  0.00  0.00    +0.000 OA
ATOM      5  O2  UNL     1      18.845  10.140  -5.136  0.00  0.00    +0.000 OA
ATOM      6  C3  UNL     1      16.988  11.926  -4.587  0.00  0.00    +0.000 C 
ATOM      7  C4  UNL     1      15.719  11.478  -5.260  0.00  0.00    +0.000 A 
ATOM      8  C5  UNL     1      15.526  11.662  -6.642  0.00  0.00    +0.000 A 
ATOM      9  C6  UNL     1      14.669  10.961  -4.486  0.00  0.00    +0.000 A 
ATOM     10  C7  UNL     1      13.455  10.617  -5.079  0.00  0.00    +0.000 A 
ATOM     11  C8  UNL     1      13.269  10.802  -6.447  0.00  0.00    +0.000 A 
ATOM     12  C9  UNL     1      14.298  11.326  -7.226  0.00  0.00    +0.000 A 
ENDROOT
TORSDOF 0
ENDMDL
MODEL 6
REMARK VINA RESULT:    -4.183     16.151     17.631
REMARK INTER + INTRA:          -4.183
REMARK INTER:                  -4.183
REMARK INTRA:                   0.000
REMARK UNBOUND:                 0.000
REMARK  Name = /home/anacleto/Desktop/manuscript_Mpro/naturecomm/supplementary_file_S2/6-chemical-library/molecular_docking/3D_ligand_structure/140.pdb
REMARK  0 active torsions:
REMARK  status: ('A' for Active; 'I' for Inactive)
REMARK                            x       y       z     vdW  Elec       q    Type
REMARK                         _______ _______ _______ _____ _____    ______ ____
ROOT
ATOM      1  C1  UNL     1      21.605   6.625  11.241  0.00  0.00    +0.000 C 
ATOM      2  C2  UNL     1      21.344   7.124   9.836  0.00  0.00    +0.000 C 
ATOM      3  S1  UNL     1      19.907   6.344   9.123  0.00  0.00    +0.000 S 
ATOM      4  O1  UNL     1      20.369   5.151   8.433  0.00  0.00    +0.000 OA
ATOM      5  O2  UNL     1      19.174   7.364   8.395  0.00  0.00    +0.000 OA
ATOM      6  C3  UNL     1      18.898   5.801  10.497  0.00  0.00    +0.000 C 
ATOM      7  C4  UNL     1      19.135   6.644  11.720  0.00  0.00    +0.000 A 
ATOM      8  C5  UNL     1      20.438   6.995  12.119  0.00  0.00    +0.000 A 
ATOM      9  C6  UNL     1      18.051   7.004  12.535  0.00  0.00    +0.000 A 
ATOM     10  C7  UNL     1      18.259   7.715  13.717  0.00  0.00    +0.000 A 
ATOM     11  C8  UNL     1      19.551   8.058  14.107  0.00  0.00    +0.000 A 
ATOM     12  C9  UNL     1      20.638   7.697  13.313  0.00  0.00    +0.000 A 
ENDROOT
TORSDOF 0
ENDMDL
MODEL 7
REMARK VINA RESULT:    -4.175      2.621      3.954
REMARK INTER + INTRA:          -4.175
REMARK INTER:                  -4.175
REMARK INTRA:                   0.000
REMARK UNBOUND:                 0.000
REMARK  Name = /home/anacleto/Desktop/manuscript_Mpro/naturecomm/supplementary_file_S2/6-chemical-library/molecular_docking/3D_ligand_structure/140.pdb
REMARK  0 active torsions:
REMARK  status: ('A' for Active; 'I' for Inactive)
REMARK                            x       y       z     vdW  Elec       q    Type
REMARK                         _______ _______ _______ _____ _____    ______ ____
ROOT
ATOM      1  C1  UNL     1      15.864  11.555  -7.227  0.00  0.00    +0.000 C 
ATOM      2  C2  UNL     1      15.144  12.801  -6.758  0.00  0.00    +0.000 C 
ATOM      3  S1  UNL     1      14.174  12.481  -5.295  0.00  0.00    +0.000 S 
ATOM      4  O1  UNL     1      12.848  12.086  -5.741  0.00  0.00    +0.000 OA
ATOM      5  O2  UNL     1      14.330  13.622  -4.410  0.00  0.00    +0.000 OA
ATOM      6  C3  UNL     1      14.911  11.055  -4.506  0.00  0.00    +0.000 C 
ATOM      7  C4  UNL     1      16.373  10.935  -4.842  0.00  0.00    +0.000 A 
ATOM      8  C5  UNL     1      16.832  11.116  -6.160  0.00  0.00    +0.000 A 
ATOM      9  C6  UNL     1      17.283  10.540  -3.849  0.00  0.00    +0.000 A 
ATOM     10  C7  UNL     1      18.628  10.344  -4.159  0.00  0.00    +0.000 A 
ATOM     11  C8  UNL     1      19.076  10.523  -5.465  0.00  0.00    +0.000 A 
ATOM     12  C9  UNL     1      18.182  10.904  -6.464  0.00  0.00    +0.000 A 
ENDROOT
TORSDOF 0
ENDMDL
MODEL 8
REMARK VINA RESULT:    -3.968      1.451      1.896
REMARK INTER + INTRA:          -3.968
REMARK INTER:                  -3.968
REMARK INTRA:                   0.000
REMARK UNBOUND:                 0.000
REMARK  Name = /home/anacleto/Desktop/manuscript_Mpro/naturecomm/supplementary_file_S2/6-chemical-library/molecular_docking/3D_ligand_structure/140.pdb
REMARK  0 active torsions:
REMARK  status: ('A' for Active; 'I' for Inactive)
REMARK                            x       y       z     vdW  Elec       q    Type
REMARK                         _______ _______ _______ _____ _____    ______ ____
ROOT
ATOM      1  C1  UNL     1      16.307  13.470  -3.401  0.00  0.00    +0.000 C 
ATOM      2  C2  UNL     1      17.202  12.405  -2.805  0.00  0.00    +0.000 C 
ATOM      3  S1  UNL     1      16.302  10.896  -2.497  0.00  0.00    +0.000 S 
ATOM      4  O1  UNL     1      15.783  10.979  -1.141  0.00  0.00    +0.000 OA
ATOM      5  O2  UNL     1      17.163   9.789  -2.876  0.00  0.00    +0.000 OA
ATOM      6  C3  UNL     1      14.895  10.915  -3.602  0.00  0.00    +0.000 C 
ATOM      7  C4  UNL     1      15.174  11.737  -4.831  0.00  0.00    +0.000 A 
ATOM      8  C5  UNL     1      15.799  12.995  -4.737  0.00  0.00    +0.000 A 
ATOM      9  C6  UNL     1      14.715  11.294  -6.081  0.00  0.00    +0.000 A 
ATOM     10  C7  UNL     1      14.890  12.080  -7.219  0.00  0.00    +0.000 A 
ATOM     11  C8  UNL     1      15.508  13.324  -7.120  0.00  0.00    +0.000 A 
ATOM     12  C9  UNL     1      15.959  13.783  -5.883  0.00  0.00    +0.000 A 
ENDROOT
TORSDOF 0
ENDMDL
MODEL 9
REMARK VINA RESULT:    -3.967      1.812      2.074
REMARK INTER + INTRA:          -3.967
REMARK INTER:                  -3.967
REMARK INTRA:                   0.000
REMARK UNBOUND:                 0.000
REMARK  Name = /home/anacleto/Desktop/manuscript_Mpro/naturecomm/supplementary_file_S2/6-chemical-library/molecular_docking/3D_ligand_structure/140.pdb
REMARK  0 active torsions:
REMARK  status: ('A' for Active; 'I' for Inactive)
REMARK                            x       y       z     vdW  Elec       q    Type
REMARK                         _______ _______ _______ _____ _____    ______ ____
ROOT
ATOM      1  C1  UNL     1      16.312  13.803  -6.245  0.00  0.00    +0.000 C 
ATOM      2  C2  UNL     1      17.094  13.637  -4.960  0.00  0.00    +0.000 C 
ATOM      3  S1  UNL     1      16.078  13.966  -3.531  0.00  0.00    +0.000 S 
ATOM      4  O1  UNL     1      16.209  15.382  -3.232  0.00  0.00    +0.000 OA
ATOM      5  O2  UNL     1      16.413  12.977  -2.522  0.00  0.00    +0.000 OA
ATOM      6  C3  UNL     1      14.386  13.691  -4.045  0.00  0.00    +0.000 C 
ATOM      7  C4  UNL     1      14.310  12.710  -5.183  0.00  0.00    +0.000 A 
ATOM      8  C5  UNL     1      15.195  12.794  -6.274  0.00  0.00    +0.000 A 
ATOM      9  C6  UNL     1      13.280  11.757  -5.210  0.00  0.00    +0.000 A 
ATOM     10  C7  UNL     1      13.143  10.893  -6.296  0.00  0.00    +0.000 A 
ATOM     11  C8  UNL     1      14.020  10.981  -7.373  0.00  0.00    +0.000 A 
ATOM     12  C9  UNL     1      15.041  11.930  -7.366  0.00  0.00    +0.000 A 
ENDROOT
TORSDOF 0
ENDMDL
