MODEL 1
REMARK VINA RESULT:    -3.067      0.000      0.000
REMARK INTER + INTRA:          -3.067
REMARK INTER:                  -3.067
REMARK INTRA:                   0.000
REMARK UNBOUND:                 0.000
REMARK  Name = /home/anacleto/Desktop/manuscript_Mpro/naturecomm/supplementary_file_S2/6-chemical-library/molecular_docking/3D_ligand_structure/85.pdb
REMARK  0 active torsions:
REMARK  status: ('A' for Active; 'I' for Inactive)
REMARK                            x       y       z     vdW  Elec       q    Type
REMARK                         _______ _______ _______ _____ _____    ______ ____
ROOT
ATOM      1  C1  UNL     1     -35.109  12.757 -31.450  0.00  0.00    +0.000 C 
ATOM      2  C2  UNL     1     -36.235  12.408 -30.805  0.00  0.00    +0.000 C 
ATOM      3  C3  UNL     1     -37.063  11.210 -31.180  0.00  0.00    +0.000 C 
ATOM      4  C4  UNL     1     -36.509  10.440 -32.348  0.00  0.00    +0.000 C 
ATOM      5  C5  UNL     1     -35.384  10.789 -32.992  0.00  0.00    +0.000 C 
ATOM      6  C6  UNL     1     -34.556  11.987 -32.617  0.00  0.00    +0.000 C 
ENDROOT
TORSDOF 0
ENDMDL
MODEL 2
REMARK VINA RESULT:    -3.066      0.109      2.048
REMARK INTER + INTRA:          -3.066
REMARK INTER:                  -3.066
REMARK INTRA:                   0.000
REMARK UNBOUND:                 0.000
REMARK  Name = /home/anacleto/Desktop/manuscript_Mpro/naturecomm/supplementary_file_S2/6-chemical-library/molecular_docking/3D_ligand_structure/85.pdb
REMARK  0 active torsions:
REMARK  status: ('A' for Active; 'I' for Inactive)
REMARK                            x       y       z     vdW  Elec       q    Type
REMARK                         _______ _______ _______ _____ _____    ______ ____
ROOT
ATOM      1  C1  UNL     1     -35.015  12.717 -31.517  0.00  0.00    +0.000 C 
ATOM      2  C2  UNL     1     -34.593  11.937 -32.525  0.00  0.00    +0.000 C 
ATOM      3  C3  UNL     1     -35.335  10.714 -32.989  0.00  0.00    +0.000 C 
ATOM      4  C4  UNL     1     -36.596  10.448 -32.214  0.00  0.00    +0.000 C 
ATOM      5  C5  UNL     1     -37.018  11.229 -31.206  0.00  0.00    +0.000 C 
ATOM      6  C6  UNL     1     -36.276  12.452 -30.742  0.00  0.00    +0.000 C 
ENDROOT
TORSDOF 0
ENDMDL
MODEL 3
REMARK VINA RESULT:    -3.066      0.105      1.416
REMARK INTER + INTRA:          -3.066
REMARK INTER:                  -3.066
REMARK INTRA:                   0.000
REMARK UNBOUND:                 0.000
REMARK  Name = /home/anacleto/Desktop/manuscript_Mpro/naturecomm/supplementary_file_S2/6-chemical-library/molecular_docking/3D_ligand_structure/85.pdb
REMARK  0 active torsions:
REMARK  status: ('A' for Active; 'I' for Inactive)
REMARK                            x       y       z     vdW  Elec       q    Type
REMARK                         _______ _______ _______ _____ _____    ______ ____
ROOT
ATOM      1  C1  UNL     1     -34.588  12.015 -32.554  0.00  0.00    +0.000 C 
ATOM      2  C2  UNL     1     -35.051  12.726 -31.513  0.00  0.00    +0.000 C 
ATOM      3  C3  UNL     1     -36.313  12.379 -30.772  0.00  0.00    +0.000 C 
ATOM      4  C4  UNL     1     -37.007  11.159 -31.311  0.00  0.00    +0.000 C 
ATOM      5  C5  UNL     1     -36.545  10.448 -32.352  0.00  0.00    +0.000 C 
ATOM      6  C6  UNL     1     -35.283  10.795 -33.093  0.00  0.00    +0.000 C 
ENDROOT
TORSDOF 0
ENDMDL
MODEL 4
REMARK VINA RESULT:    -3.060      0.112      2.053
REMARK INTER + INTRA:          -3.060
REMARK INTER:                  -3.060
REMARK INTRA:                   0.000
REMARK UNBOUND:                 0.000
REMARK  Name = /home/anacleto/Desktop/manuscript_Mpro/naturecomm/supplementary_file_S2/6-chemical-library/molecular_docking/3D_ligand_structure/85.pdb
REMARK  0 active torsions:
REMARK  status: ('A' for Active; 'I' for Inactive)
REMARK                            x       y       z     vdW  Elec       q    Type
REMARK                         _______ _______ _______ _____ _____    ______ ____
ROOT
ATOM      1  C1  UNL     1     -36.623  10.484 -32.261  0.00  0.00    +0.000 C 
ATOM      2  C2  UNL     1     -37.050  11.197 -31.207  0.00  0.00    +0.000 C 
ATOM      3  C3  UNL     1     -36.328  12.406 -30.680  0.00  0.00    +0.000 C 
ATOM      4  C4  UNL     1     -35.079  12.740 -31.449  0.00  0.00    +0.000 C 
ATOM      5  C5  UNL     1     -34.651  12.027 -32.504  0.00  0.00    +0.000 C 
ATOM      6  C6  UNL     1     -35.374  10.818 -33.030  0.00  0.00    +0.000 C 
ENDROOT
TORSDOF 0
ENDMDL
MODEL 5
REMARK VINA RESULT:    -3.049     14.017     14.997
REMARK INTER + INTRA:          -3.049
REMARK INTER:                  -3.049
REMARK INTRA:                   0.000
REMARK UNBOUND:                 0.000
REMARK  Name = /home/anacleto/Desktop/manuscript_Mpro/naturecomm/supplementary_file_S2/6-chemical-library/molecular_docking/3D_ligand_structure/85.pdb
REMARK  0 active torsions:
REMARK  status: ('A' for Active; 'I' for Inactive)
REMARK                            x       y       z     vdW  Elec       q    Type
REMARK                         _______ _______ _______ _____ _____    ______ ____
ROOT
ATOM      1  C1  UNL     1     -25.434   2.747 -39.993  0.00  0.00    +0.000 C 
ATOM      2  C2  UNL     1     -26.565   2.565 -40.695  0.00  0.00    +0.000 C 
ATOM      3  C3  UNL     1     -27.902   2.314 -40.055  0.00  0.00    +0.000 C 
ATOM      4  C4  UNL     1     -27.850   2.283 -38.552  0.00  0.00    +0.000 C 
ATOM      5  C5  UNL     1     -26.720   2.464 -37.850  0.00  0.00    +0.000 C 
ATOM      6  C6  UNL     1     -25.383   2.716 -38.491  0.00  0.00    +0.000 C 
ENDROOT
TORSDOF 0
ENDMDL
MODEL 6
REMARK VINA RESULT:    -3.046     13.988     15.035
REMARK INTER + INTRA:          -3.046
REMARK INTER:                  -3.046
REMARK INTRA:                   0.000
REMARK UNBOUND:                 0.000
REMARK  Name = /home/anacleto/Desktop/manuscript_Mpro/naturecomm/supplementary_file_S2/6-chemical-library/molecular_docking/3D_ligand_structure/85.pdb
REMARK  0 active torsions:
REMARK  status: ('A' for Active; 'I' for Inactive)
REMARK                            x       y       z     vdW  Elec       q    Type
REMARK                         _______ _______ _______ _____ _____    ______ ____
ROOT
ATOM      1  C1  UNL     1     -26.637   2.610 -40.687  0.00  0.00    +0.000 C 
ATOM      2  C2  UNL     1     -25.482   2.779 -40.022  0.00  0.00    +0.000 C 
ATOM      3  C3  UNL     1     -25.378   2.726 -38.523  0.00  0.00    +0.000 C 
ATOM      4  C4  UNL     1     -26.692   2.467 -37.840  0.00  0.00    +0.000 C 
ATOM      5  C5  UNL     1     -27.847   2.297 -38.505  0.00  0.00    +0.000 C 
ATOM      6  C6  UNL     1     -27.951   2.350 -40.004  0.00  0.00    +0.000 C 
ENDROOT
TORSDOF 0
ENDMDL
MODEL 7
REMARK VINA RESULT:    -3.037     13.982     14.892
REMARK INTER + INTRA:          -3.037
REMARK INTER:                  -3.037
REMARK INTRA:                   0.000
REMARK UNBOUND:                 0.000
REMARK  Name = /home/anacleto/Desktop/manuscript_Mpro/naturecomm/supplementary_file_S2/6-chemical-library/molecular_docking/3D_ligand_structure/85.pdb
REMARK  0 active torsions:
REMARK  status: ('A' for Active; 'I' for Inactive)
REMARK                            x       y       z     vdW  Elec       q    Type
REMARK                         _______ _______ _______ _____ _____    ______ ____
ROOT
ATOM      1  C1  UNL     1     -26.597   2.463 -37.779  0.00  0.00    +0.000 C 
ATOM      2  C2  UNL     1     -27.787   2.261 -38.368  0.00  0.00    +0.000 C 
ATOM      3  C3  UNL     1     -27.986   2.287 -39.858  0.00  0.00    +0.000 C 
ATOM      4  C4  UNL     1     -26.722   2.562 -40.626  0.00  0.00    +0.000 C 
ATOM      5  C5  UNL     1     -25.532   2.764 -40.038  0.00  0.00    +0.000 C 
ATOM      6  C6  UNL     1     -25.334   2.738 -38.548  0.00  0.00    +0.000 C 
ENDROOT
TORSDOF 0
ENDMDL
MODEL 8
REMARK VINA RESULT:    -2.929     12.829     13.952
REMARK INTER + INTRA:          -2.929
REMARK INTER:                  -2.929
REMARK INTRA:                   0.000
REMARK UNBOUND:                 0.000
REMARK  Name = /home/anacleto/Desktop/manuscript_Mpro/naturecomm/supplementary_file_S2/6-chemical-library/molecular_docking/3D_ligand_structure/85.pdb
REMARK  0 active torsions:
REMARK  status: ('A' for Active; 'I' for Inactive)
REMARK                            x       y       z     vdW  Elec       q    Type
REMARK                         _______ _______ _______ _____ _____    ______ ____
ROOT
ATOM      1  C1  UNL     1     -25.341   3.871 -38.799  0.00  0.00    +0.000 C 
ATOM      2  C2  UNL     1     -25.656   2.650 -38.337  0.00  0.00    +0.000 C 
ATOM      3  C3  UNL     1     -27.066   2.214 -38.051  0.00  0.00    +0.000 C 
ATOM      4  C4  UNL     1     -28.091   3.278 -38.332  0.00  0.00    +0.000 C 
ATOM      5  C5  UNL     1     -27.777   4.499 -38.795  0.00  0.00    +0.000 C 
ATOM      6  C6  UNL     1     -26.366   4.935 -39.081  0.00  0.00    +0.000 C 
ENDROOT
TORSDOF 0
ENDMDL
MODEL 9
REMARK VINA RESULT:    -2.929     17.166     18.241
REMARK INTER + INTRA:          -2.929
REMARK INTER:                  -2.929
REMARK INTRA:                   0.000
REMARK UNBOUND:                 0.000
REMARK  Name = /home/anacleto/Desktop/manuscript_Mpro/naturecomm/supplementary_file_S2/6-chemical-library/molecular_docking/3D_ligand_structure/85.pdb
REMARK  0 active torsions:
REMARK  status: ('A' for Active; 'I' for Inactive)
REMARK                            x       y       z     vdW  Elec       q    Type
REMARK                         _______ _______ _______ _____ _____    ______ ____
ROOT
ATOM      1  C1  UNL     1     -38.571   9.050 -15.426  0.00  0.00    +0.000 C 
ATOM      2  C2  UNL     1     -37.293   8.643 -15.481  0.00  0.00    +0.000 C 
ATOM      3  C3  UNL     1     -36.543   8.114 -14.289  0.00  0.00    +0.000 C 
ATOM      4  C4  UNL     1     -37.363   8.087 -13.029  0.00  0.00    +0.000 C 
ATOM      5  C5  UNL     1     -38.642   8.495 -12.974  0.00  0.00    +0.000 C 
ATOM      6  C6  UNL     1     -39.391   9.023 -14.166  0.00  0.00    +0.000 C 
ENDROOT
TORSDOF 0
ENDMDL
