MODEL 1
REMARK VINA RESULT:    -5.478      0.000      0.000
REMARK INTER + INTRA:          -6.806
REMARK INTER:                  -6.290
REMARK INTRA:                  -0.516
REMARK UNBOUND:                -0.368
REMARK  Name = /home/anacleto/Desktop/manuscript_Mpro/naturecomm/supplementary_file_S2/6-chemical-library/molecular_docking/3D_ligand_structure/738.pdb
REMARK  3 active torsions:
REMARK  status: ('A' for Active; 'I' for Inactive)
REMARK    1  A    between atoms: C6_6  and  C7_7
REMARK    2  A    between atoms: C7_7  and  C8_9
REMARK    3  A    between atoms: C9_10  and  C10_11
REMARK                            x       y       z     vdW  Elec       q    Type
REMARK                         _______ _______ _______ _____ _____    ______ ____
ROOT
ATOM      1  C7  UNL     1      15.185  14.594  -1.888  0.00  0.00    +0.000 C 
ATOM      2  O1  UNL     1      16.066  14.544  -1.032  0.00  0.00    +0.000 OA
ENDROOT
BRANCH   1   8
ATOM      3  C1  UNL     1      14.778  16.991  -2.365  0.00  0.00    +0.000 A 
ATOM      4  C2  UNL     1      13.979  18.134  -2.427  0.00  0.00    +0.000 A 
ATOM      5  C3  UNL     1      12.643  18.070  -2.043  0.00  0.00    +0.000 A 
ATOM      6  C4  UNL     1      12.108  16.863  -1.598  0.00  0.00    +0.000 A 
ATOM      7  C5  UNL     1      12.907  15.714  -1.536  0.00  0.00    +0.000 A 
ATOM      8  C6  UNL     1      14.253  15.765  -1.919  0.00  0.00    +0.000 A 
ENDBRANCH   1   8
BRANCH   1   9
ATOM      9  C8  UNL     1      15.038  13.498  -2.891  0.00  0.00    +0.000 C 
ATOM     10  C9  UNL     1      14.691  13.805  -4.152  0.00  0.00    +0.000 C 
BRANCH  10  11
ATOM     11  C10 UNL     1      14.502  12.858  -5.267  0.00  0.00    +0.000 A 
ATOM     12  C11 UNL     1      13.374  12.021  -5.238  0.00  0.00    +0.000 A 
ATOM     13  C12 UNL     1      13.133  11.100  -6.261  0.00  0.00    +0.000 A 
ATOM     14  C13 UNL     1      14.016  11.001  -7.331  0.00  0.00    +0.000 A 
ATOM     15  C14 UNL     1      15.140  11.822  -7.377  0.00  0.00    +0.000 A 
ATOM     16  C15 UNL     1      15.381  12.743  -6.353  0.00  0.00    +0.000 A 
ENDBRANCH  10  11
ENDBRANCH   1   9
TORSDOF 3
ENDMDL
MODEL 2
REMARK VINA RESULT:    -5.432     15.934     17.879
REMARK INTER + INTRA:          -6.752
REMARK INTER:                  -6.417
REMARK INTRA:                  -0.335
REMARK UNBOUND:                -0.368
REMARK  Name = /home/anacleto/Desktop/manuscript_Mpro/naturecomm/supplementary_file_S2/6-chemical-library/molecular_docking/3D_ligand_structure/738.pdb
REMARK  3 active torsions:
REMARK  status: ('A' for Active; 'I' for Inactive)
REMARK    1  A    between atoms: C6_6  and  C7_7
REMARK    2  A    between atoms: C7_7  and  C8_9
REMARK    3  A    between atoms: C9_10  and  C10_11
REMARK                            x       y       z     vdW  Elec       q    Type
REMARK                         _______ _______ _______ _____ _____    ______ ____
ROOT
ATOM      1  C7  UNL     1      17.200   2.288   9.200  0.00  0.00    +0.000 C 
ATOM      2  O1  UNL     1      18.015   1.369   9.174  0.00  0.00    +0.000 OA
ENDROOT
BRANCH   1   8
ATOM      3  C1  UNL     1      15.201   1.224   8.196  0.00  0.00    +0.000 A 
ATOM      4  C2  UNL     1      13.846   0.886   8.168  0.00  0.00    +0.000 A 
ATOM      5  C3  UNL     1      13.007   1.293   9.202  0.00  0.00    +0.000 A 
ATOM      6  C4  UNL     1      13.524   2.037  10.261  0.00  0.00    +0.000 A 
ATOM      7  C5  UNL     1      14.882   2.377  10.291  0.00  0.00    +0.000 A 
ATOM      8  C6  UNL     1      15.738   1.974   9.257  0.00  0.00    +0.000 A 
ENDBRANCH   1   8
BRANCH   1   9
ATOM      9  C8  UNL     1      17.656   3.710   9.176  0.00  0.00    +0.000 C 
ATOM     10  C9  UNL     1      18.969   3.976   9.083  0.00  0.00    +0.000 C 
BRANCH  10  11
ATOM     11  C10 UNL     1      19.594   5.312   9.046  0.00  0.00    +0.000 A 
ATOM     12  C11 UNL     1      20.930   5.428   9.464  0.00  0.00    +0.000 A 
ATOM     13  C12 UNL     1      21.584   6.663   9.455  0.00  0.00    +0.000 A 
ATOM     14  C13 UNL     1      20.913   7.803   9.028  0.00  0.00    +0.000 A 
ATOM     15  C14 UNL     1      19.588   7.709   8.610  0.00  0.00    +0.000 A 
ATOM     16  C15 UNL     1      18.934   6.472   8.620  0.00  0.00    +0.000 A 
ENDBRANCH  10  11
ENDBRANCH   1   9
TORSDOF 3
ENDMDL
MODEL 3
REMARK VINA RESULT:    -5.412     17.142     18.758
REMARK INTER + INTRA:          -6.729
REMARK INTER:                  -6.348
REMARK INTRA:                  -0.380
REMARK UNBOUND:                -0.368
REMARK  Name = /home/anacleto/Desktop/manuscript_Mpro/naturecomm/supplementary_file_S2/6-chemical-library/molecular_docking/3D_ligand_structure/738.pdb
REMARK  3 active torsions:
REMARK  status: ('A' for Active; 'I' for Inactive)
REMARK    1  A    between atoms: C6_6  and  C7_7
REMARK    2  A    between atoms: C7_7  and  C8_9
REMARK    3  A    between atoms: C9_10  and  C10_11
REMARK                            x       y       z     vdW  Elec       q    Type
REMARK                         _______ _______ _______ _____ _____    ______ ____
ROOT
ATOM      1  C7  UNL     1      18.082   7.806  14.299  0.00  0.00    +0.000 C 
ATOM      2  O1  UNL     1      19.080   8.297  14.820  0.00  0.00    +0.000 OA
ENDROOT
BRANCH   1   8
ATOM      3  C1  UNL     1      15.678   8.026  14.860  0.00  0.00    +0.000 A 
ATOM      4  C2  UNL     1      14.538   7.730  15.609  0.00  0.00    +0.000 A 
ATOM      5  C3  UNL     1      14.616   6.829  16.668  0.00  0.00    +0.000 A 
ATOM      6  C4  UNL     1      15.834   6.227  16.975  0.00  0.00    +0.000 A 
ATOM      7  C5  UNL     1      16.980   6.523  16.226  0.00  0.00    +0.000 A 
ATOM      8  C6  UNL     1      16.915   7.427  15.157  0.00  0.00    +0.000 A 
ENDBRANCH   1   8
BRANCH   1   9
ATOM      9  C8  UNL     1      18.024   7.584  12.824  0.00  0.00    +0.000 C 
ATOM     10  C9  UNL     1      18.971   6.835  12.236  0.00  0.00    +0.000 C 
BRANCH  10  11
ATOM     11  C10 UNL     1      19.070   6.513  10.799  0.00  0.00    +0.000 A 
ATOM     12  C11 UNL     1      19.430   7.543   9.915  0.00  0.00    +0.000 A 
ATOM     13  C12 UNL     1      19.542   7.309   8.542  0.00  0.00    +0.000 A 
ATOM     14  C13 UNL     1      19.297   6.039   8.030  0.00  0.00    +0.000 A 
ATOM     15  C14 UNL     1      18.940   5.005   8.890  0.00  0.00    +0.000 A 
ATOM     16  C15 UNL     1      18.827   5.240  10.265  0.00  0.00    +0.000 A 
ENDBRANCH  10  11
ENDBRANCH   1   9
TORSDOF 3
ENDMDL
MODEL 4
REMARK VINA RESULT:    -5.380     15.948     17.473
REMARK INTER + INTRA:          -6.692
REMARK INTER:                  -6.278
REMARK INTRA:                  -0.414
REMARK UNBOUND:                -0.368
REMARK  Name = /home/anacleto/Desktop/manuscript_Mpro/naturecomm/supplementary_file_S2/6-chemical-library/molecular_docking/3D_ligand_structure/738.pdb
REMARK  3 active torsions:
REMARK  status: ('A' for Active; 'I' for Inactive)
REMARK    1  A    between atoms: C6_6  and  C7_7
REMARK    2  A    between atoms: C7_7  and  C8_9
REMARK    3  A    between atoms: C9_10  and  C10_11
REMARK                            x       y       z     vdW  Elec       q    Type
REMARK                         _______ _______ _______ _____ _____    ______ ____
ROOT
ATOM      1  C7  UNL     1      19.373   3.639   9.474  0.00  0.00    +0.000 C 
ATOM      2  O1  UNL     1      20.193   2.730   9.363  0.00  0.00    +0.000 OA
ENDROOT
BRANCH   1   8
ATOM      3  C1  UNL     1      18.884   5.953   8.733  0.00  0.00    +0.000 A 
ATOM      4  C2  UNL     1      19.213   7.293   8.524  0.00  0.00    +0.000 A 
ATOM      5  C3  UNL     1      20.479   7.760   8.867  0.00  0.00    +0.000 A 
ATOM      6  C4  UNL     1      21.413   6.885   9.417  0.00  0.00    +0.000 A 
ATOM      7  C5  UNL     1      21.086   5.540   9.627  0.00  0.00    +0.000 A 
ATOM      8  C6  UNL     1      19.816   5.057   9.287  0.00  0.00    +0.000 A 
ENDBRANCH   1   8
BRANCH   1   9
ATOM      9  C8  UNL     1      17.945   3.340   9.792  0.00  0.00    +0.000 C 
ATOM     10  C9  UNL     1      17.238   2.557   8.961  0.00  0.00    +0.000 C 
BRANCH  10  11
ATOM     11  C10 UNL     1      15.826   2.160   9.118  0.00  0.00    +0.000 A 
ATOM     12  C11 UNL     1      15.242   1.384   8.103  0.00  0.00    +0.000 A 
ATOM     13  C12 UNL     1      13.909   0.972   8.186  0.00  0.00    +0.000 A 
ATOM     14  C13 UNL     1      13.137   1.331   9.287  0.00  0.00    +0.000 A 
ATOM     15  C14 UNL     1      13.698   2.099  10.303  0.00  0.00    +0.000 A 
ATOM     16  C15 UNL     1      15.033   2.511  10.219  0.00  0.00    +0.000 A 
ENDBRANCH  10  11
ENDBRANCH   1   9
TORSDOF 3
ENDMDL
MODEL 5
REMARK VINA RESULT:    -5.283      3.223      4.165
REMARK INTER + INTRA:          -6.577
REMARK INTER:                  -6.233
REMARK INTRA:                  -0.345
REMARK UNBOUND:                -0.368
REMARK  Name = /home/anacleto/Desktop/manuscript_Mpro/naturecomm/supplementary_file_S2/6-chemical-library/molecular_docking/3D_ligand_structure/738.pdb
REMARK  3 active torsions:
REMARK  status: ('A' for Active; 'I' for Inactive)
REMARK    1  A    between atoms: C6_6  and  C7_7
REMARK    2  A    between atoms: C7_7  and  C8_9
REMARK    3  A    between atoms: C9_10  and  C10_11
REMARK                            x       y       z     vdW  Elec       q    Type
REMARK                         _______ _______ _______ _____ _____    ______ ____
ROOT
ATOM      1  C7  UNL     1      16.662  12.370  -1.229  0.00  0.00    +0.000 C 
ATOM      2  O1  UNL     1      16.299  11.451  -0.497  0.00  0.00    +0.000 OA
ENDROOT
BRANCH   1   8
ATOM      3  C1  UNL     1      18.883  13.215  -0.528  0.00  0.00    +0.000 A 
ATOM      4  C2  UNL     1      19.745  14.185  -0.012  0.00  0.00    +0.000 A 
ATOM      5  C3  UNL     1      19.244  15.425   0.374  0.00  0.00    +0.000 A 
ATOM      6  C4  UNL     1      17.884  15.693   0.243  0.00  0.00    +0.000 A 
ATOM      7  C5  UNL     1      17.017  14.722  -0.273  0.00  0.00    +0.000 A 
ATOM      8  C6  UNL     1      17.508  13.469  -0.666  0.00  0.00    +0.000 A 
ENDBRANCH   1   8
BRANCH   1   9
ATOM      9  C8  UNL     1      16.268  12.396  -2.668  0.00  0.00    +0.000 C 
ATOM     10  C9  UNL     1      15.433  11.454  -3.137  0.00  0.00    +0.000 C 
BRANCH  10  11
ATOM     11  C10 UNL     1      14.940  11.328  -4.522  0.00  0.00    +0.000 A 
ATOM     12  C11 UNL     1      15.711  11.892  -5.551  0.00  0.00    +0.000 A 
ATOM     13  C12 UNL     1      15.304  11.809  -6.886  0.00  0.00    +0.000 A 
ATOM     14  C13 UNL     1      14.119  11.160  -7.213  0.00  0.00    +0.000 A 
ATOM     15  C14 UNL     1      13.340  10.594  -6.207  0.00  0.00    +0.000 A 
ATOM     16  C15 UNL     1      13.748  10.678  -4.871  0.00  0.00    +0.000 A 
ENDBRANCH  10  11
ENDBRANCH   1   9
TORSDOF 3
ENDMDL
MODEL 6
REMARK VINA RESULT:    -5.151      3.262      6.925
REMARK INTER + INTRA:          -6.422
REMARK INTER:                  -6.055
REMARK INTRA:                  -0.367
REMARK UNBOUND:                -0.368
REMARK  Name = /home/anacleto/Desktop/manuscript_Mpro/naturecomm/supplementary_file_S2/6-chemical-library/molecular_docking/3D_ligand_structure/738.pdb
REMARK  3 active torsions:
REMARK  status: ('A' for Active; 'I' for Inactive)
REMARK    1  A    between atoms: C6_6  and  C7_7
REMARK    2  A    between atoms: C7_7  and  C8_9
REMARK    3  A    between atoms: C9_10  and  C10_11
REMARK                            x       y       z     vdW  Elec       q    Type
REMARK                         _______ _______ _______ _____ _____    ______ ____
ROOT
ATOM      1  C7  UNL     1      15.959  11.282  -2.960  0.00  0.00    +0.000 C 
ATOM      2  O1  UNL     1      16.084  10.232  -2.334  0.00  0.00    +0.000 OA
ENDROOT
BRANCH   1   8
ATOM      3  C1  UNL     1      16.216  11.637  -5.399  0.00  0.00    +0.000 A 
ATOM      4  C2  UNL     1      15.754  11.639  -6.716  0.00  0.00    +0.000 A 
ATOM      5  C3  UNL     1      14.445  11.255  -6.995  0.00  0.00    +0.000 A 
ATOM      6  C4  UNL     1      13.601  10.870  -5.955  0.00  0.00    +0.000 A 
ATOM      7  C5  UNL     1      14.061  10.868  -4.633  0.00  0.00    +0.000 A 
ATOM      8  C6  UNL     1      15.376  11.252  -4.338  0.00  0.00    +0.000 A 
ENDBRANCH   1   8
BRANCH   1   9
ATOM      9  C8  UNL     1      16.382  12.581  -2.358  0.00  0.00    +0.000 C 
ATOM     10  C9  UNL     1      17.210  12.575  -1.300  0.00  0.00    +0.000 C 
BRANCH  10  11
ATOM     11  C10 UNL     1      17.727  13.757  -0.583  0.00  0.00    +0.000 A 
ATOM     12  C11 UNL     1      16.819  14.774  -0.245  0.00  0.00    +0.000 A 
ATOM     13  C12 UNL     1      17.241  15.920   0.434  0.00  0.00    +0.000 A 
ATOM     14  C13 UNL     1      18.578  16.069   0.786  0.00  0.00    +0.000 A 
ATOM     15  C14 UNL     1      19.493  15.071   0.460  0.00  0.00    +0.000 A 
ATOM     16  C15 UNL     1      19.070  13.924  -0.220  0.00  0.00    +0.000 A 
ENDBRANCH  10  11
ENDBRANCH   1   9
TORSDOF 3
ENDMDL
MODEL 7
REMARK VINA RESULT:    -5.034      4.292      7.125
REMARK INTER + INTRA:          -6.285
REMARK INTER:                  -5.920
REMARK INTRA:                  -0.365
REMARK UNBOUND:                -0.368
REMARK  Name = /home/anacleto/Desktop/manuscript_Mpro/naturecomm/supplementary_file_S2/6-chemical-library/molecular_docking/3D_ligand_structure/738.pdb
REMARK  3 active torsions:
REMARK  status: ('A' for Active; 'I' for Inactive)
REMARK    1  A    between atoms: C6_6  and  C7_7
REMARK    2  A    between atoms: C7_7  and  C8_9
REMARK    3  A    between atoms: C9_10  and  C10_11
REMARK                            x       y       z     vdW  Elec       q    Type
REMARK                         _______ _______ _______ _____ _____    ______ ____
ROOT
ATOM      1  C7  UNL     1      16.530  11.117  -3.297  0.00  0.00    +0.000 C 
ATOM      2  O1  UNL     1      16.506  10.094  -2.617  0.00  0.00    +0.000 OA
ENDROOT
BRANCH   1   8
ATOM      3  C1  UNL     1      16.354  11.541  -5.732  0.00  0.00    +0.000 A 
ATOM      4  C2  UNL     1      15.653  11.638  -6.936  0.00  0.00    +0.000 A 
ATOM      5  C3  UNL     1      14.283  11.391  -6.964  0.00  0.00    +0.000 A 
ATOM      6  C4  UNL     1      13.617  11.048  -5.789  0.00  0.00    +0.000 A 
ATOM      7  C5  UNL     1      14.318  10.950  -4.581  0.00  0.00    +0.000 A 
ATOM      8  C6  UNL     1      15.697  11.196  -4.538  0.00  0.00    +0.000 A 
ENDBRANCH   1   8
BRANCH   1   9
ATOM      9  C8  UNL     1      17.383  12.276  -2.898  0.00  0.00    +0.000 C 
ATOM     10  C9  UNL     1      18.331  12.101  -1.962  0.00  0.00    +0.000 C 
BRANCH  10  11
ATOM     11  C10 UNL     1      19.258  13.127  -1.449  0.00  0.00    +0.000 A 
ATOM     12  C11 UNL     1      20.178  13.694  -2.346  0.00  0.00    +0.000 A 
ATOM     13  C12 UNL     1      21.085  14.672  -1.928  0.00  0.00    +0.000 A 
ATOM     14  C13 UNL     1      21.087  15.098  -0.604  0.00  0.00    +0.000 A 
ATOM     15  C14 UNL     1      20.183  14.548   0.300  0.00  0.00    +0.000 A 
ATOM     16  C15 UNL     1      19.275  13.570  -0.119  0.00  0.00    +0.000 A 
ENDBRANCH  10  11
ENDBRANCH   1   9
TORSDOF 3
ENDMDL
MODEL 8
REMARK VINA RESULT:    -4.836      2.545      3.819
REMARK INTER + INTRA:          -6.051
REMARK INTER:                  -5.614
REMARK INTRA:                  -0.437
REMARK UNBOUND:                -0.368
REMARK  Name = /home/anacleto/Desktop/manuscript_Mpro/naturecomm/supplementary_file_S2/6-chemical-library/molecular_docking/3D_ligand_structure/738.pdb
REMARK  3 active torsions:
REMARK  status: ('A' for Active; 'I' for Inactive)
REMARK    1  A    between atoms: C6_6  and  C7_7
REMARK    2  A    between atoms: C7_7  and  C8_9
REMARK    3  A    between atoms: C9_10  and  C10_11
REMARK                            x       y       z     vdW  Elec       q    Type
REMARK                         _______ _______ _______ _____ _____    ______ ____
ROOT
ATOM      1  C7  UNL     1      15.735  15.077  -1.326  0.00  0.00    +0.000 C 
ATOM      2  O1  UNL     1      14.864  15.876  -0.990  0.00  0.00    +0.000 OA
ENDROOT
BRANCH   1   8
ATOM      3  C1  UNL     1      17.948  14.045  -0.906  0.00  0.00    +0.000 A 
ATOM      4  C2  UNL     1      19.209  13.992  -0.307  0.00  0.00    +0.000 A 
ATOM      5  C3  UNL     1      19.605  14.999   0.568  0.00  0.00    +0.000 A 
ATOM      6  C4  UNL     1      18.741  16.057   0.843  0.00  0.00    +0.000 A 
ATOM      7  C5  UNL     1      17.476  16.112   0.245  0.00  0.00    +0.000 A 
ATOM      8  C6  UNL     1      17.064  15.105  -0.638  0.00  0.00    +0.000 A 
ENDBRANCH   1   8
BRANCH   1   9
ATOM      9  C8  UNL     1      15.478  14.082  -2.409  0.00  0.00    +0.000 C 
ATOM     10  C9  UNL     1      15.373  14.508  -3.679  0.00  0.00    +0.000 C 
BRANCH  10  11
ATOM     11  C10 UNL     1      15.123  13.671  -4.868  0.00  0.00    +0.000 A 
ATOM     12  C11 UNL     1      14.134  12.678  -4.780  0.00  0.00    +0.000 A 
ATOM     13  C12 UNL     1      13.845  11.849  -5.868  0.00  0.00    +0.000 A 
ATOM     14  C13 UNL     1      14.540  12.001  -7.063  0.00  0.00    +0.000 A 
ATOM     15  C14 UNL     1      15.524  12.981  -7.170  0.00  0.00    +0.000 A 
ATOM     16  C15 UNL     1      15.813  13.809  -6.080  0.00  0.00    +0.000 A 
ENDBRANCH  10  11
ENDBRANCH   1   9
TORSDOF 3
ENDMDL
MODEL 9
REMARK VINA RESULT:    -4.786      2.797      6.764
REMARK INTER + INTRA:          -5.994
REMARK INTER:                  -5.626
REMARK INTRA:                  -0.368
REMARK UNBOUND:                -0.368
REMARK  Name = /home/anacleto/Desktop/manuscript_Mpro/naturecomm/supplementary_file_S2/6-chemical-library/molecular_docking/3D_ligand_structure/738.pdb
REMARK  3 active torsions:
REMARK  status: ('A' for Active; 'I' for Inactive)
REMARK    1  A    between atoms: C6_6  and  C7_7
REMARK    2  A    between atoms: C7_7  and  C8_9
REMARK    3  A    between atoms: C9_10  and  C10_11
REMARK                            x       y       z     vdW  Elec       q    Type
REMARK                         _______ _______ _______ _____ _____    ______ ____
ROOT
ATOM      1  C7  UNL     1      14.862  14.078  -3.335  0.00  0.00    +0.000 C 
ATOM      2  O1  UNL     1      13.821  14.545  -2.880  0.00  0.00    +0.000 OA
ENDROOT
BRANCH   1   8
ATOM      3  C1  UNL     1      13.853  12.491  -4.948  0.00  0.00    +0.000 A 
ATOM      4  C2  UNL     1      13.771  11.850  -6.186  0.00  0.00    +0.000 A 
ATOM      5  C3  UNL     1      14.689  12.153  -7.187  0.00  0.00    +0.000 A 
ATOM      6  C4  UNL     1      15.687  13.096  -6.949  0.00  0.00    +0.000 A 
ATOM      7  C5  UNL     1      15.772  13.740  -5.708  0.00  0.00    +0.000 A 
ATOM      8  C6  UNL     1      14.854  13.444  -4.691  0.00  0.00    +0.000 A 
ENDBRANCH   1   8
BRANCH   1   9
ATOM      9  C8  UNL     1      16.130  14.139  -2.550  0.00  0.00    +0.000 C 
ATOM     10  C9  UNL     1      16.260  15.063  -1.584  0.00  0.00    +0.000 C 
BRANCH  10  11
ATOM     11  C10 UNL     1      17.434  15.266  -0.714  0.00  0.00    +0.000 A 
ATOM     12  C11 UNL     1      18.393  14.242  -0.649  0.00  0.00    +0.000 A 
ATOM     13  C12 UNL     1      19.530  14.367   0.154  0.00  0.00    +0.000 A 
ATOM     14  C13 UNL     1      19.727  15.520   0.907  0.00  0.00    +0.000 A 
ATOM     15  C14 UNL     1      18.788  16.547   0.855  0.00  0.00    +0.000 A 
ATOM     16  C15 UNL     1      17.650  16.420   0.051  0.00  0.00    +0.000 A 
ENDBRANCH  10  11
ENDBRANCH   1   9
TORSDOF 3
ENDMDL
