MODEL 1
REMARK VINA RESULT:    -3.824      0.000      0.000
REMARK INTER + INTRA:          -3.824
REMARK INTER:                  -3.824
REMARK INTRA:                   0.000
REMARK UNBOUND:                 0.000
REMARK  Name = /home/anacleto/Desktop/manuscript_Mpro/naturecomm/supplementary_file_S2/6-chemical-library/molecular_docking/3D_ligand_structure/294.pdb
REMARK  0 active torsions:
REMARK  status: ('A' for Active; 'I' for Inactive)
REMARK                            x       y       z     vdW  Elec       q    Type
REMARK                         _______ _______ _______ _____ _____    ______ ____
ROOT
ATOM      1  C1  UNL     1      13.790  12.305  -5.703  0.00  0.00    +0.000 A 
ATOM      2  C2  UNL     1      14.068  10.959  -5.377  0.00  0.00    +0.000 A 
ATOM      3  N1  UNL     1      14.622  10.821  -4.166  0.00  0.00    +0.000 NA
ATOM      4  N2  UNL     1      14.714  12.091  -3.734  0.00  0.00    +0.000 N 
ATOM      5  C3  UNL     1      14.212  13.019  -4.610  0.00  0.00    +0.000 A 
ATOM      6  C4  UNL     1      15.226  12.415  -2.418  0.00  0.00    +0.000 C 
ATOM      7  C5  UNL     1      15.571  13.900  -2.315  0.00  0.00    +0.000 C 
ATOM      8  C6  UNL     1      14.459  14.750  -2.932  0.00  0.00    +0.000 C 
ATOM      9  N3  UNL     1      14.218  14.341  -4.312  0.00  0.00    +0.000 N 
ATOM     10  H9  UNL     1      13.648  14.977  -4.865  0.00  0.00    +0.000 HD
ENDROOT
TORSDOF 0
ENDMDL
MODEL 2
REMARK VINA RESULT:    -3.760      1.298      2.393
REMARK INTER + INTRA:          -3.760
REMARK INTER:                  -3.760
REMARK INTRA:                   0.000
REMARK UNBOUND:                 0.000
REMARK  Name = /home/anacleto/Desktop/manuscript_Mpro/naturecomm/supplementary_file_S2/6-chemical-library/molecular_docking/3D_ligand_structure/294.pdb
REMARK  0 active torsions:
REMARK  status: ('A' for Active; 'I' for Inactive)
REMARK                            x       y       z     vdW  Elec       q    Type
REMARK                         _______ _______ _______ _____ _____    ______ ____
ROOT
ATOM      1  C1  UNL     1      13.506  10.294  -5.177  0.00  0.00    +0.000 A 
ATOM      2  C2  UNL     1      13.050  11.280  -6.080  0.00  0.00    +0.000 A 
ATOM      3  N1  UNL     1      13.519  12.501  -5.796  0.00  0.00    +0.000 NA
ATOM      4  N2  UNL     1      14.259  12.288  -4.694  0.00  0.00    +0.000 N 
ATOM      5  C3  UNL     1      14.299  10.979  -4.291  0.00  0.00    +0.000 A 
ATOM      6  C4  UNL     1      15.005  13.355  -4.057  0.00  0.00    +0.000 C 
ATOM      7  C5  UNL     1      15.446  12.950  -2.652  0.00  0.00    +0.000 C 
ATOM      8  C6  UNL     1      16.003  11.525  -2.656  0.00  0.00    +0.000 C 
ATOM      9  N3  UNL     1      15.017  10.600  -3.205  0.00  0.00    +0.000 N 
ATOM     10  H9  UNL     1      15.213   9.612  -3.060  0.00  0.00    +0.000 HD
ENDROOT
TORSDOF 0
ENDMDL
MODEL 3
REMARK VINA RESULT:    -3.702      2.012      3.784
REMARK INTER + INTRA:          -3.702
REMARK INTER:                  -3.702
REMARK INTRA:                   0.000
REMARK UNBOUND:                 0.000
REMARK  Name = /home/anacleto/Desktop/manuscript_Mpro/naturecomm/supplementary_file_S2/6-chemical-library/molecular_docking/3D_ligand_structure/294.pdb
REMARK  0 active torsions:
REMARK  status: ('A' for Active; 'I' for Inactive)
REMARK                            x       y       z     vdW  Elec       q    Type
REMARK                         _______ _______ _______ _____ _____    ______ ____
ROOT
ATOM      1  C1  UNL     1      15.357  10.993  -3.226  0.00  0.00    +0.000 A 
ATOM      2  C2  UNL     1      16.286  12.057  -3.223  0.00  0.00    +0.000 A 
ATOM      3  N1  UNL     1      16.313  12.727  -4.382  0.00  0.00    +0.000 NA
ATOM      4  N2  UNL     1      15.410  12.067  -5.129  0.00  0.00    +0.000 N 
ATOM      5  C3  UNL     1      14.795  11.030  -4.477  0.00  0.00    +0.000 A 
ATOM      6  C4  UNL     1      15.076  12.490  -6.474  0.00  0.00    +0.000 C 
ATOM      7  C5  UNL     1      14.327  11.389  -7.223  0.00  0.00    +0.000 C 
ATOM      8  C6  UNL     1      13.252  10.770  -6.328  0.00  0.00    +0.000 C 
ATOM      9  N3  UNL     1      13.848  10.278  -5.090  0.00  0.00    +0.000 N 
ATOM     10  H9  UNL     1      13.255   9.671  -4.527  0.00  0.00    +0.000 HD
ENDROOT
TORSDOF 0
ENDMDL
MODEL 4
REMARK VINA RESULT:    -3.536     15.352     16.722
REMARK INTER + INTRA:          -3.536
REMARK INTER:                  -3.536
REMARK INTRA:                   0.000
REMARK UNBOUND:                 0.000
REMARK  Name = /home/anacleto/Desktop/manuscript_Mpro/naturecomm/supplementary_file_S2/6-chemical-library/molecular_docking/3D_ligand_structure/294.pdb
REMARK  0 active torsions:
REMARK  status: ('A' for Active; 'I' for Inactive)
REMARK                            x       y       z     vdW  Elec       q    Type
REMARK                         _______ _______ _______ _____ _____    ______ ____
ROOT
ATOM      1  C1  UNL     1      18.807   7.545  12.178  0.00  0.00    +0.000 A 
ATOM      2  C2  UNL     1      18.203   6.356  12.642  0.00  0.00    +0.000 A 
ATOM      3  N1  UNL     1      18.306   5.346  11.769  0.00  0.00    +0.000 NA
ATOM      4  N2  UNL     1      18.961   5.908  10.738  0.00  0.00    +0.000 N 
ATOM      5  C3  UNL     1      19.301   7.220  10.940  0.00  0.00    +0.000 A 
ATOM      6  C4  UNL     1      19.334   5.146   9.564  0.00  0.00    +0.000 C 
ATOM      7  C5  UNL     1      19.722   6.071   8.412  0.00  0.00    +0.000 C 
ATOM      8  C6  UNL     1      20.629   7.197   8.913  0.00  0.00    +0.000 C 
ATOM      9  N3  UNL     1      19.979   7.923   9.999  0.00  0.00    +0.000 N 
ATOM     10  H9  UNL     1      20.411   8.808  10.256  0.00  0.00    +0.000 HD
ENDROOT
TORSDOF 0
ENDMDL
MODEL 5
REMARK VINA RESULT:    -3.517      2.760      3.554
REMARK INTER + INTRA:          -3.517
REMARK INTER:                  -3.517
REMARK INTRA:                   0.000
REMARK UNBOUND:                 0.000
REMARK  Name = /home/anacleto/Desktop/manuscript_Mpro/naturecomm/supplementary_file_S2/6-chemical-library/molecular_docking/3D_ligand_structure/294.pdb
REMARK  0 active torsions:
REMARK  status: ('A' for Active; 'I' for Inactive)
REMARK                            x       y       z     vdW  Elec       q    Type
REMARK                         _______ _______ _______ _____ _____    ______ ____
ROOT
ATOM      1  C1  UNL     1      13.850  11.354  -6.880  0.00  0.00    +0.000 A 
ATOM      2  C2  UNL     1      13.310  11.166  -5.588  0.00  0.00    +0.000 A 
ATOM      3  N1  UNL     1      14.250  10.977  -4.654  0.00  0.00    +0.000 NA
ATOM      4  N2  UNL     1      15.391  11.024  -5.365  0.00  0.00    +0.000 N 
ATOM      5  C3  UNL     1      15.208  11.266  -6.701  0.00  0.00    +0.000 A 
ATOM      6  C4  UNL     1      16.689  10.909  -4.733  0.00  0.00    +0.000 C 
ATOM      7  C5  UNL     1      17.777  10.623  -5.767  0.00  0.00    +0.000 C 
ATOM      8  C6  UNL     1      17.600  11.523  -6.991  0.00  0.00    +0.000 C 
ATOM      9  N3  UNL     1      16.262  11.358  -7.549  0.00  0.00    +0.000 N 
ATOM     10  H9  UNL     1      16.120  11.755  -8.476  0.00  0.00    +0.000 HD
ENDROOT
TORSDOF 0
ENDMDL
MODEL 6
REMARK VINA RESULT:    -3.439     15.312     16.606
REMARK INTER + INTRA:          -3.439
REMARK INTER:                  -3.439
REMARK INTRA:                   0.000
REMARK UNBOUND:                 0.000
REMARK  Name = /home/anacleto/Desktop/manuscript_Mpro/naturecomm/supplementary_file_S2/6-chemical-library/molecular_docking/3D_ligand_structure/294.pdb
REMARK  0 active torsions:
REMARK  status: ('A' for Active; 'I' for Inactive)
REMARK                            x       y       z     vdW  Elec       q    Type
REMARK                         _______ _______ _______ _____ _____    ______ ____
ROOT
ATOM      1  C1  UNL     1      19.968   7.777   8.856  0.00  0.00    +0.000 A 
ATOM      2  C2  UNL     1      19.111   6.797   8.305  0.00  0.00    +0.000 A 
ATOM      3  N1  UNL     1      19.302   5.583   8.835  0.00  0.00    +0.000 NA
ATOM      4  N2  UNL     1      20.300   5.793   9.711  0.00  0.00    +0.000 N 
ATOM      5  C3  UNL     1      20.723   7.095   9.775  0.00  0.00    +0.000 A 
ATOM      6  C4  UNL     1      20.807   4.733  10.559  0.00  0.00    +0.000 C 
ATOM      7  C5  UNL     1      22.150   5.121  11.176  0.00  0.00    +0.000 C 
ATOM      8  C6  UNL     1      22.104   6.560  11.694  0.00  0.00    +0.000 C 
ATOM      9  N3  UNL     1      21.713   7.470  10.623  0.00  0.00    +0.000 N 
ATOM     10  H9  UNL     1      21.853   8.460  10.815  0.00  0.00    +0.000 HD
ENDROOT
TORSDOF 0
ENDMDL
MODEL 7
REMARK VINA RESULT:    -3.418      2.788      4.164
REMARK INTER + INTRA:          -3.418
REMARK INTER:                  -3.418
REMARK INTRA:                   0.000
REMARK UNBOUND:                 0.000
REMARK  Name = /home/anacleto/Desktop/manuscript_Mpro/naturecomm/supplementary_file_S2/6-chemical-library/molecular_docking/3D_ligand_structure/294.pdb
REMARK  0 active torsions:
REMARK  status: ('A' for Active; 'I' for Inactive)
REMARK                            x       y       z     vdW  Elec       q    Type
REMARK                         _______ _______ _______ _____ _____    ______ ____
ROOT
ATOM      1  C1  UNL     1      17.706  11.043  -5.767  0.00  0.00    +0.000 A 
ATOM      2  C2  UNL     1      17.873  11.562  -7.070  0.00  0.00    +0.000 A 
ATOM      3  N1  UNL     1      16.710  11.819  -7.680  0.00  0.00    +0.000 NA
ATOM      4  N2  UNL     1      15.802  11.437  -6.764  0.00  0.00    +0.000 N 
ATOM      5  C3  UNL     1      16.347  10.982  -5.592  0.00  0.00    +0.000 A 
ATOM      6  C4  UNL     1      14.379  11.585  -6.992  0.00  0.00    +0.000 C 
ATOM      7  C5  UNL     1      13.576  10.757  -5.991  0.00  0.00    +0.000 C 
ATOM      8  C6  UNL     1      14.146  10.925  -4.581  0.00  0.00    +0.000 C 
ATOM      9  N3  UNL     1      15.562  10.575  -4.564  0.00  0.00    +0.000 N 
ATOM     10  H9  UNL     1      15.975  10.458  -3.641  0.00  0.00    +0.000 HD
ENDROOT
TORSDOF 0
ENDMDL
MODEL 8
REMARK VINA RESULT:    -3.326      1.178      3.081
REMARK INTER + INTRA:          -3.326
REMARK INTER:                  -3.326
REMARK INTRA:                   0.000
REMARK UNBOUND:                 0.000
REMARK  Name = /home/anacleto/Desktop/manuscript_Mpro/naturecomm/supplementary_file_S2/6-chemical-library/molecular_docking/3D_ligand_structure/294.pdb
REMARK  0 active torsions:
REMARK  status: ('A' for Active; 'I' for Inactive)
REMARK                            x       y       z     vdW  Elec       q    Type
REMARK                         _______ _______ _______ _____ _____    ______ ____
ROOT
ATOM      1  C1  UNL     1      15.116  14.368  -2.714  0.00  0.00    +0.000 A 
ATOM      2  C2  UNL     1      15.968  13.678  -1.823  0.00  0.00    +0.000 A 
ATOM      3  N1  UNL     1      16.082  12.377  -2.116  0.00  0.00    +0.000 NA
ATOM      4  N2  UNL     1      15.279  12.240  -3.186  0.00  0.00    +0.000 N 
ATOM      5  C3  UNL     1      14.690  13.408  -3.596  0.00  0.00    +0.000 A 
ATOM      6  C4  UNL     1      15.135  10.974  -3.876  0.00  0.00    +0.000 C 
ATOM      7  C5  UNL     1      13.916  10.989  -4.797  0.00  0.00    +0.000 C 
ATOM      8  C6  UNL     1      13.858  12.300  -5.585  0.00  0.00    +0.000 C 
ATOM      9  N3  UNL     1      13.865  13.438  -4.672  0.00  0.00    +0.000 N 
ATOM     10  H9  UNL     1      13.623  14.335  -5.087  0.00  0.00    +0.000 HD
ENDROOT
TORSDOF 0
ENDMDL
MODEL 9
REMARK VINA RESULT:    -3.138      4.897      6.169
REMARK INTER + INTRA:          -3.138
REMARK INTER:                  -3.138
REMARK INTRA:                   0.000
REMARK UNBOUND:                 0.000
REMARK  Name = /home/anacleto/Desktop/manuscript_Mpro/naturecomm/supplementary_file_S2/6-chemical-library/molecular_docking/3D_ligand_structure/294.pdb
REMARK  0 active torsions:
REMARK  status: ('A' for Active; 'I' for Inactive)
REMARK                            x       y       z     vdW  Elec       q    Type
REMARK                         _______ _______ _______ _____ _____    ______ ____
ROOT
ATOM      1  C1  UNL     1      19.127  12.791  -0.578  0.00  0.00    +0.000 A 
ATOM      2  C2  UNL     1      17.774  12.524  -0.882  0.00  0.00    +0.000 A 
ATOM      3  N1  UNL     1      16.963  13.547  -0.586  0.00  0.00    +0.000 NA
ATOM      4  N2  UNL     1      17.807  14.459  -0.072  0.00  0.00    +0.000 N 
ATOM      5  C3  UNL     1      19.119  14.062  -0.062  0.00  0.00    +0.000 A 
ATOM      6  C4  UNL     1      17.353  15.769   0.348  0.00  0.00    +0.000 C 
ATOM      7  C5  UNL     1      18.403  16.458   1.217  0.00  0.00    +0.000 C 
ATOM      8  C6  UNL     1      19.796  16.291   0.607  0.00  0.00    +0.000 C 
ATOM      9  N3  UNL     1      20.095  14.877   0.411  0.00  0.00    +0.000 N 
ATOM     10  H9  UNL     1      21.067  14.658   0.205  0.00  0.00    +0.000 HD
ENDROOT
TORSDOF 0
ENDMDL
