MODEL 1
REMARK VINA RESULT:    -4.985      0.000      0.000
REMARK INTER + INTRA:          -6.471
REMARK INTER:                  -6.082
REMARK INTRA:                  -0.389
REMARK UNBOUND:                -0.321
REMARK  Name = /home/anacleto/Desktop/manuscript_Mpro/naturecomm/supplementary_file_S2/6-chemical-library/molecular_docking/3D_ligand_structure/584.pdb
REMARK  4 active torsions:
REMARK  status: ('A' for Active; 'I' for Inactive)
REMARK    1  A    between atoms: C4_5  and  N1_6
REMARK    2  A    between atoms: C5_7  and  C6_9
REMARK    3  A    between atoms: C6_9  and  N2_10
REMARK    4  A    between atoms: C7_11  and  C8_13
REMARK                            x       y       z     vdW  Elec       q    Type
REMARK                         _______ _______ _______ _____ _____    ______ ____
ROOT
ATOM      1  C6  UNL     1      16.104  11.301  -1.148  0.00  0.00    +0.000 C 
ENDROOT
BRANCH   1   3
ATOM      2  N1  UNL     1      15.007  11.321  -3.334  0.00  0.00    +0.000 N 
ATOM      3  C5  UNL     1      16.107  10.886  -2.622  0.00  0.00    +0.000 C 
ATOM      4  O2  UNL     1      16.990  10.188  -3.114  0.00  0.00    +0.000 OA
ATOM      5  H8  UNL     1      14.242  11.759  -2.834  0.00  0.00    +0.000 HD
BRANCH   2  10
ATOM      6  C1  UNL     1      15.113  12.023  -5.731  0.00  0.00    +0.000 C 
ATOM      7  O1  UNL     1      14.192  11.876  -6.824  0.00  0.00    +0.000 OA
ATOM      8  C2  UNL     1      13.316  10.780  -6.525  0.00  0.00    +0.000 C 
ATOM      9  C3  UNL     1      13.355  10.605  -5.026  0.00  0.00    +0.000 C 
ATOM     10  C4  UNL     1      14.802  10.927  -4.715  0.00  0.00    +0.000 C 
ENDBRANCH   2  10
ENDBRANCH   1   3
BRANCH   1  11
ATOM     11  N2  UNL     1      16.813  12.548  -0.978  0.00  0.00    +0.000 N 
ATOM     12  C7  UNL     1      18.145  12.563  -0.627  0.00  0.00    +0.000 C 
ATOM     13  O3  UNL     1      18.868  11.573  -0.657  0.00  0.00    +0.000 OA
ATOM     14  H11 UNL     1      16.285  13.366  -0.685  0.00  0.00    +0.000 HD
BRANCH  12  15
ATOM     15  C8  UNL     1      18.607  13.876  -0.204  0.00  0.00    +0.000 A 
ATOM     16  C9  UNL     1      19.888  14.210   0.171  0.00  0.00    +0.000 A 
ATOM     17  O4  UNL     1      19.903  15.532   0.502  0.00  0.00    +0.000 OA
ATOM     18  C10 UNL     1      18.616  15.932   0.310  0.00  0.00    +0.000 A 
ATOM     19  N3  UNL     1      17.795  14.997  -0.111  0.00  0.00    +0.000 NA
ENDBRANCH  12  15
ENDBRANCH   1  11
TORSDOF 4
ENDMDL
MODEL 2
REMARK VINA RESULT:    -4.948      1.544      7.101
REMARK INTER + INTRA:          -6.426
REMARK INTER:                  -6.112
REMARK INTRA:                  -0.315
REMARK UNBOUND:                -0.321
REMARK  Name = /home/anacleto/Desktop/manuscript_Mpro/naturecomm/supplementary_file_S2/6-chemical-library/molecular_docking/3D_ligand_structure/584.pdb
REMARK  4 active torsions:
REMARK  status: ('A' for Active; 'I' for Inactive)
REMARK    1  A    between atoms: C4_5  and  N1_6
REMARK    2  A    between atoms: C5_7  and  C6_9
REMARK    3  A    between atoms: C6_9  and  N2_10
REMARK    4  A    between atoms: C7_11  and  C8_13
REMARK                            x       y       z     vdW  Elec       q    Type
REMARK                         _______ _______ _______ _____ _____    ______ ____
ROOT
ATOM      1  C6  UNL     1      15.752  11.666  -1.643  0.00  0.00    +0.000 C 
ENDROOT
BRANCH   1   3
ATOM      2  N1  UNL     1      17.148  13.409  -0.645  0.00  0.00    +0.000 N 
ATOM      3  C5  UNL     1      16.248  13.115  -1.649  0.00  0.00    +0.000 C 
ATOM      4  O2  UNL     1      15.844  13.952  -2.453  0.00  0.00    +0.000 OA
ATOM      5  H8  UNL     1      17.321  12.717   0.075  0.00  0.00    +0.000 HD
BRANCH   2  10
ATOM      6  C1  UNL     1      19.029  14.838   0.174  0.00  0.00    +0.000 C 
ATOM      7  O1  UNL     1      19.064  16.000   1.018  0.00  0.00    +0.000 OA
ATOM      8  C2  UNL     1      17.771  16.620   0.979  0.00  0.00    +0.000 C 
ATOM      9  C3  UNL     1      16.802  15.546   0.544  0.00  0.00    +0.000 C 
ATOM     10  C4  UNL     1      17.636  14.761  -0.446  0.00  0.00    +0.000 C 
ENDBRANCH   2  10
ENDBRANCH   1   3
BRANCH   1  11
ATOM     11  N2  UNL     1      15.024  11.380  -2.857  0.00  0.00    +0.000 N 
ATOM     12  C7  UNL     1      15.681  10.966  -3.994  0.00  0.00    +0.000 C 
ATOM     13  O3  UNL     1      16.849  10.597  -4.010  0.00  0.00    +0.000 OA
ATOM     14  H11 UNL     1      14.151  11.875  -3.024  0.00  0.00    +0.000 HD
BRANCH  12  15
ATOM     15  C8  UNL     1      14.846  11.022  -5.185  0.00  0.00    +0.000 A 
ATOM     16  C9  UNL     1      15.226  11.472  -6.430  0.00  0.00    +0.000 A 
ATOM     17  O4  UNL     1      14.154  11.368  -7.264  0.00  0.00    +0.000 OA
ATOM     18  C10 UNL     1      13.171  10.858  -6.473  0.00  0.00    +0.000 A 
ATOM     19  N3  UNL     1      13.517  10.628  -5.227  0.00  0.00    +0.000 NA
ENDBRANCH  12  15
ENDBRANCH   1  11
TORSDOF 4
ENDMDL
MODEL 3
REMARK VINA RESULT:    -4.883      1.573      6.846
REMARK INTER + INTRA:          -6.345
REMARK INTER:                  -5.914
REMARK INTRA:                  -0.431
REMARK UNBOUND:                -0.321
REMARK  Name = /home/anacleto/Desktop/manuscript_Mpro/naturecomm/supplementary_file_S2/6-chemical-library/molecular_docking/3D_ligand_structure/584.pdb
REMARK  4 active torsions:
REMARK  status: ('A' for Active; 'I' for Inactive)
REMARK    1  A    between atoms: C4_5  and  N1_6
REMARK    2  A    between atoms: C5_7  and  C6_9
REMARK    3  A    between atoms: C6_9  and  N2_10
REMARK    4  A    between atoms: C7_11  and  C8_13
REMARK                            x       y       z     vdW  Elec       q    Type
REMARK                         _______ _______ _______ _____ _____    ______ ____
ROOT
ATOM      1  C6  UNL     1      17.576  10.295  -2.680  0.00  0.00    +0.000 C 
ENDROOT
BRANCH   1   3
ATOM      2  N1  UNL     1      18.322  12.327  -1.539  0.00  0.00    +0.000 N 
ATOM      3  C5  UNL     1      17.329  11.371  -1.618  0.00  0.00    +0.000 C 
ATOM      4  O2  UNL     1      16.353  11.356  -0.873  0.00  0.00    +0.000 OA
ATOM      5  H8  UNL     1      19.172  12.195  -2.075  0.00  0.00    +0.000 HD
BRANCH   2  10
ATOM      6  C1  UNL     1      17.649  14.665  -0.966  0.00  0.00    +0.000 C 
ATOM      7  O1  UNL     1      18.344  15.738  -0.310  0.00  0.00    +0.000 OA
ATOM      8  C2  UNL     1      19.393  15.170   0.486  0.00  0.00    +0.000 C 
ATOM      9  C3  UNL     1      19.678  13.808  -0.101  0.00  0.00    +0.000 C 
ATOM     10  C4  UNL     1      18.294  13.357  -0.518  0.00  0.00    +0.000 C 
ENDBRANCH   2  10
ENDBRANCH   1   3
BRANCH   1  11
ATOM     11  N2  UNL     1      16.470  10.242  -3.607  0.00  0.00    +0.000 N 
ATOM     12  C7  UNL     1      16.439  11.053  -4.719  0.00  0.00    +0.000 C 
ATOM     13  O3  UNL     1      17.406  11.688  -5.126  0.00  0.00    +0.000 OA
ATOM     14  H11 UNL     1      15.557   9.969  -3.252  0.00  0.00    +0.000 HD
BRANCH  12  15
ATOM     15  C8  UNL     1      15.134  11.089  -5.360  0.00  0.00    +0.000 A 
ATOM     16  C9  UNL     1      14.877  11.398  -6.677  0.00  0.00    +0.000 A 
ATOM     17  O4  UNL     1      13.531  11.327  -6.876  0.00  0.00    +0.000 OA
ATOM     18  C10 UNL     1      13.038  10.977  -5.656  0.00  0.00    +0.000 A 
ATOM     19  N3  UNL     1      13.937  10.819  -4.712  0.00  0.00    +0.000 NA
ENDBRANCH  12  15
ENDBRANCH   1  11
TORSDOF 4
ENDMDL
MODEL 4
REMARK VINA RESULT:    -4.796      2.696      7.256
REMARK INTER + INTRA:          -6.239
REMARK INTER:                  -5.749
REMARK INTRA:                  -0.489
REMARK UNBOUND:                -0.321
REMARK  Name = /home/anacleto/Desktop/manuscript_Mpro/naturecomm/supplementary_file_S2/6-chemical-library/molecular_docking/3D_ligand_structure/584.pdb
REMARK  4 active torsions:
REMARK  status: ('A' for Active; 'I' for Inactive)
REMARK    1  A    between atoms: C4_5  and  N1_6
REMARK    2  A    between atoms: C5_7  and  C6_9
REMARK    3  A    between atoms: C6_9  and  N2_10
REMARK    4  A    between atoms: C7_11  and  C8_13
REMARK                            x       y       z     vdW  Elec       q    Type
REMARK                         _______ _______ _______ _____ _____    ______ ____
ROOT
ATOM      1  C6  UNL     1      14.064  15.446  -2.290  0.00  0.00    +0.000 C 
ENDROOT
BRANCH   1   3
ATOM      2  N1  UNL     1      16.208  15.248  -1.129  0.00  0.00    +0.000 N 
ATOM      3  C5  UNL     1      15.487  15.966  -2.062  0.00  0.00    +0.000 C 
ATOM      4  O2  UNL     1      15.929  16.962  -2.629  0.00  0.00    +0.000 OA
ATOM      5  H8  UNL     1      15.735  14.534  -0.587  0.00  0.00    +0.000 HD
BRANCH   2  10
ATOM      6  C1  UNL     1      18.542  14.530  -0.595  0.00  0.00    +0.000 C 
ATOM      7  O1  UNL     1      19.429  14.851   0.488  0.00  0.00    +0.000 OA
ATOM      8  C2  UNL     1      19.008  16.100   1.055  0.00  0.00    +0.000 C 
ATOM      9  C3  UNL     1      17.557  16.269   0.671  0.00  0.00    +0.000 C 
ATOM     10  C4  UNL     1      17.535  15.669  -0.720  0.00  0.00    +0.000 C 
ENDBRANCH   2  10
ENDBRANCH   1   3
BRANCH   1  11
ATOM     11  N2  UNL     1      13.986  14.734  -3.544  0.00  0.00    +0.000 N 
ATOM     12  C7  UNL     1      14.522  13.473  -3.676  0.00  0.00    +0.000 C 
ATOM     13  O3  UNL     1      14.885  12.784  -2.729  0.00  0.00    +0.000 OA
ATOM     14  H11 UNL     1      13.950  15.276  -4.404  0.00  0.00    +0.000 HD
BRANCH  12  15
ATOM     15  C8  UNL     1      14.626  13.041  -5.062  0.00  0.00    +0.000 A 
ATOM     16  C9  UNL     1      13.802  12.146  -5.705  0.00  0.00    +0.000 A 
ATOM     17  O4  UNL     1      14.240  12.008  -6.987  0.00  0.00    +0.000 OA
ATOM     18  C10 UNL     1      15.320  12.835  -7.055  0.00  0.00    +0.000 A 
ATOM     19  N3  UNL     1      15.602  13.480  -5.946  0.00  0.00    +0.000 NA
ENDBRANCH  12  15
ENDBRANCH   1  11
TORSDOF 4
ENDMDL
MODEL 5
REMARK VINA RESULT:    -4.747      2.723      3.191
REMARK INTER + INTRA:          -6.178
REMARK INTER:                  -5.792
REMARK INTRA:                  -0.386
REMARK UNBOUND:                -0.321
REMARK  Name = /home/anacleto/Desktop/manuscript_Mpro/naturecomm/supplementary_file_S2/6-chemical-library/molecular_docking/3D_ligand_structure/584.pdb
REMARK  4 active torsions:
REMARK  status: ('A' for Active; 'I' for Inactive)
REMARK    1  A    between atoms: C4_5  and  N1_6
REMARK    2  A    between atoms: C5_7  and  C6_9
REMARK    3  A    between atoms: C6_9  and  N2_10
REMARK    4  A    between atoms: C7_11  and  C8_13
REMARK                            x       y       z     vdW  Elec       q    Type
REMARK                         _______ _______ _______ _____ _____    ______ ____
ROOT
ATOM      1  C6  UNL     1      14.029  15.268  -2.338  0.00  0.00    +0.000 C 
ENDROOT
BRANCH   1   3
ATOM      2  N1  UNL     1      14.105  13.824  -4.310  0.00  0.00    +0.000 N 
ATOM      3  C5  UNL     1      14.497  13.966  -2.994  0.00  0.00    +0.000 C 
ATOM      4  O2  UNL     1      15.128  13.105  -2.387  0.00  0.00    +0.000 OA
ATOM      5  H8  UNL     1      13.458  14.497  -4.704  0.00  0.00    +0.000 HD
BRANCH   2  10
ATOM      6  C1  UNL     1      15.159  12.815  -6.340  0.00  0.00    +0.000 C 
ATOM      7  O1  UNL     1      14.690  11.847  -7.294  0.00  0.00    +0.000 OA
ATOM      8  C2  UNL     1      13.648  11.079  -6.675  0.00  0.00    +0.000 C 
ATOM      9  C3  UNL     1      13.116  11.925  -5.543  0.00  0.00    +0.000 C 
ATOM     10  C4  UNL     1      14.376  12.604  -5.047  0.00  0.00    +0.000 C 
ENDBRANCH   2  10
ENDBRANCH   1   3
BRANCH   1  11
ATOM     11  N2  UNL     1      15.000  15.717  -1.367  0.00  0.00    +0.000 N 
ATOM     12  C7  UNL     1      16.000  16.595  -1.721  0.00  0.00    +0.000 C 
ATOM     13  O3  UNL     1      16.015  17.222  -2.774  0.00  0.00    +0.000 OA
ATOM     14  H11 UNL     1      15.228  15.099  -0.593  0.00  0.00    +0.000 HD
BRANCH  12  15
ATOM     15  C8  UNL     1      17.050  16.695  -0.719  0.00  0.00    +0.000 A 
ATOM     16  C9  UNL     1      18.191  17.461  -0.802  0.00  0.00    +0.000 A 
ATOM     17  O4  UNL     1      18.915  17.269   0.335  0.00  0.00    +0.000 OA
ATOM     18  C10 UNL     1      18.170  16.386   1.054  0.00  0.00    +0.000 A 
ATOM     19  N3  UNL     1      17.048  16.006   0.485  0.00  0.00    +0.000 NA
ENDBRANCH  12  15
ENDBRANCH   1  11
TORSDOF 4
ENDMDL
MODEL 6
REMARK VINA RESULT:    -4.624      1.654      6.952
REMARK INTER + INTRA:          -6.026
REMARK INTER:                  -5.678
REMARK INTRA:                  -0.348
REMARK UNBOUND:                -0.321
REMARK  Name = /home/anacleto/Desktop/manuscript_Mpro/naturecomm/supplementary_file_S2/6-chemical-library/molecular_docking/3D_ligand_structure/584.pdb
REMARK  4 active torsions:
REMARK  status: ('A' for Active; 'I' for Inactive)
REMARK    1  A    between atoms: C4_5  and  N1_6
REMARK    2  A    between atoms: C5_7  and  C6_9
REMARK    3  A    between atoms: C6_9  and  N2_10
REMARK    4  A    between atoms: C7_11  and  C8_13
REMARK                            x       y       z     vdW  Elec       q    Type
REMARK                         _______ _______ _______ _____ _____    ______ ____
ROOT
ATOM      1  C6  UNL     1      16.492  11.870  -0.832  0.00  0.00    +0.000 C 
ENDROOT
BRANCH   1   3
ATOM      2  N1  UNL     1      18.568  13.160  -0.927  0.00  0.00    +0.000 N 
ATOM      3  C5  UNL     1      17.197  13.230  -0.785  0.00  0.00    +0.000 C 
ATOM      4  O2  UNL     1      16.595  14.283  -0.594  0.00  0.00    +0.000 OA
ATOM      5  H8  UNL     1      19.015  12.251  -0.926  0.00  0.00    +0.000 HD
BRANCH   2  10
ATOM      6  C1  UNL     1      20.566  14.396  -1.782  0.00  0.00    +0.000 C 
ATOM      7  O1  UNL     1      21.663  15.042  -1.114  0.00  0.00    +0.000 OA
ATOM      8  C2  UNL     1      21.247  15.360   0.221  0.00  0.00    +0.000 C 
ATOM      9  C3  UNL     1      20.096  14.434   0.537  0.00  0.00    +0.000 C 
ATOM     10  C4  UNL     1      19.396  14.345  -0.803  0.00  0.00    +0.000 C 
ENDBRANCH   2  10
ENDBRANCH   1   3
BRANCH   1  11
ATOM     11  N2  UNL     1      15.512  11.849  -1.893  0.00  0.00    +0.000 N 
ATOM     12  C7  UNL     1      15.683  11.045  -2.997  0.00  0.00    +0.000 C 
ATOM     13  O3  UNL     1      16.517  10.149  -3.065  0.00  0.00    +0.000 OA
ATOM     14  H11 UNL     1      14.961  12.688  -2.056  0.00  0.00    +0.000 HD
BRANCH  12  15
ATOM     15  C8  UNL     1      14.776  11.375  -4.086  0.00  0.00    +0.000 A 
ATOM     16  C9  UNL     1      13.814  10.554  -4.628  0.00  0.00    +0.000 A 
ATOM     17  O4  UNL     1      13.188  11.233  -5.628  0.00  0.00    +0.000 OA
ATOM     18  C10 UNL     1      13.812  12.443  -5.643  0.00  0.00    +0.000 A 
ATOM     19  N3  UNL     1      14.764  12.594  -4.750  0.00  0.00    +0.000 NA
ENDBRANCH  12  15
ENDBRANCH   1  11
TORSDOF 4
ENDMDL
MODEL 7
REMARK VINA RESULT:    -4.491     15.271     17.265
REMARK INTER + INTRA:          -5.862
REMARK INTER:                  -5.336
REMARK INTRA:                  -0.526
REMARK UNBOUND:                -0.321
REMARK  Name = /home/anacleto/Desktop/manuscript_Mpro/naturecomm/supplementary_file_S2/6-chemical-library/molecular_docking/3D_ligand_structure/584.pdb
REMARK  4 active torsions:
REMARK  status: ('A' for Active; 'I' for Inactive)
REMARK    1  A    between atoms: C4_5  and  N1_6
REMARK    2  A    between atoms: C5_7  and  C6_9
REMARK    3  A    between atoms: C6_9  and  N2_10
REMARK    4  A    between atoms: C7_11  and  C8_13
REMARK                            x       y       z     vdW  Elec       q    Type
REMARK                         _______ _______ _______ _____ _____    ______ ____
ROOT
ATOM      1  C6  UNL     1      22.583  15.604  10.700  0.00  0.00    +0.000 C 
ENDROOT
BRANCH   1   3
ATOM      2  N1  UNL     1      22.788  17.765  11.827  0.00  0.00    +0.000 N 
ATOM      3  C5  UNL     1      22.478  16.430  11.986  0.00  0.00    +0.000 C 
ATOM      4  O2  UNL     1      22.187  15.934  13.071  0.00  0.00    +0.000 OA
ATOM      5  H8  UNL     1      23.169  18.078  10.941  0.00  0.00    +0.000 HD
BRANCH   2  10
ATOM      6  C1  UNL     1      22.578  20.128  12.616  0.00  0.00    +0.000 C 
ATOM      7  O1  UNL     1      23.389  20.933  13.488  0.00  0.00    +0.000 OA
ATOM      8  C2  UNL     1      24.153  20.053  14.324  0.00  0.00    +0.000 C 
ATOM      9  C3  UNL     1      24.210  18.728  13.602  0.00  0.00    +0.000 C 
ATOM     10  C4  UNL     1      22.838  18.665  12.964  0.00  0.00    +0.000 C 
ENDBRANCH   2  10
ENDBRANCH   1   3
BRANCH   1  11
ATOM     11  N2  UNL     1      23.912  15.053  10.565  0.00  0.00    +0.000 N 
ATOM     12  C7  UNL     1      24.886  15.722   9.860  0.00  0.00    +0.000 C 
ATOM     13  O3  UNL     1      24.788  16.891   9.502  0.00  0.00    +0.000 OA
ATOM     14  H11 UNL     1      24.019  14.042  10.589  0.00  0.00    +0.000 HD
BRANCH  12  15
ATOM     15  C8  UNL     1      26.047  14.895   9.569  0.00  0.00    +0.000 A 
ATOM     16  C9  UNL     1      26.660  14.745   8.345  0.00  0.00    +0.000 A 
ATOM     17  O4  UNL     1      27.702  13.881   8.495  0.00  0.00    +0.000 OA
ATOM     18  C10 UNL     1      27.665  13.547   9.814  0.00  0.00    +0.000 A 
ATOM     19  N3  UNL     1      26.706  14.116  10.509  0.00  0.00    +0.000 NA
ENDBRANCH  12  15
ENDBRANCH   1  11
TORSDOF 4
ENDMDL
MODEL 8
REMARK VINA RESULT:    -4.421      1.598      6.877
REMARK INTER + INTRA:          -5.775
REMARK INTER:                  -5.435
REMARK INTRA:                  -0.341
REMARK UNBOUND:                -0.321
REMARK  Name = /home/anacleto/Desktop/manuscript_Mpro/naturecomm/supplementary_file_S2/6-chemical-library/molecular_docking/3D_ligand_structure/584.pdb
REMARK  4 active torsions:
REMARK  status: ('A' for Active; 'I' for Inactive)
REMARK    1  A    between atoms: C4_5  and  N1_6
REMARK    2  A    between atoms: C5_7  and  C6_9
REMARK    3  A    between atoms: C6_9  and  N2_10
REMARK    4  A    between atoms: C7_11  and  C8_13
REMARK                            x       y       z     vdW  Elec       q    Type
REMARK                         _______ _______ _______ _____ _____    ______ ____
ROOT
ATOM      1  C6  UNL     1      17.667  12.247  -0.878  0.00  0.00    +0.000 C 
ENDROOT
BRANCH   1   3
ATOM      2  N1  UNL     1      17.842  14.551  -0.077  0.00  0.00    +0.000 N 
ATOM      3  C5  UNL     1      18.510  13.512  -0.694  0.00  0.00    +0.000 C 
ATOM      4  O2  UNL     1      19.664  13.607  -1.102  0.00  0.00    +0.000 OA
ATOM      5  H8  UNL     1      16.848  14.460   0.095  0.00  0.00    +0.000 HD
BRANCH   2  10
ATOM      6  C1  UNL     1      18.180  16.522   1.424  0.00  0.00    +0.000 C 
ATOM      7  O1  UNL     1      18.096  17.938   1.194  0.00  0.00    +0.000 OA
ATOM      8  C2  UNL     1      18.276  18.174  -0.209  0.00  0.00    +0.000 C 
ATOM      9  C3  UNL     1      17.935  16.877  -0.903  0.00  0.00    +0.000 C 
ATOM     10  C4  UNL     1      18.462  15.853   0.081  0.00  0.00    +0.000 C 
ENDBRANCH   2  10
ENDBRANCH   1   3
BRANCH   1  11
ATOM     11  N2  UNL     1      16.591  12.492  -1.810  0.00  0.00    +0.000 N 
ATOM     12  C7  UNL     1      15.954  11.451  -2.446  0.00  0.00    +0.000 C 
ATOM     13  O3  UNL     1      16.077  10.275  -2.119  0.00  0.00    +0.000 OA
ATOM     14  H11 UNL     1      16.587  13.372  -2.321  0.00  0.00    +0.000 HD
BRANCH  12  15
ATOM     15  C8  UNL     1      15.123  11.886  -3.558  0.00  0.00    +0.000 A 
ATOM     16  C9  UNL     1      14.944  13.182  -3.988  0.00  0.00    +0.000 A 
ATOM     17  O4  UNL     1      14.088  13.164  -5.047  0.00  0.00    +0.000 OA
ATOM     18  C10 UNL     1      13.788  11.845  -5.204  0.00  0.00    +0.000 A 
ATOM     19  N3  UNL     1      14.372  11.032  -4.353  0.00  0.00    +0.000 NA
ENDBRANCH  12  15
ENDBRANCH   1  11
TORSDOF 4
ENDMDL
MODEL 9
REMARK VINA RESULT:    -4.390      5.097      7.041
REMARK INTER + INTRA:          -5.737
REMARK INTER:                  -5.417
REMARK INTRA:                  -0.321
REMARK UNBOUND:                -0.321
REMARK  Name = /home/anacleto/Desktop/manuscript_Mpro/naturecomm/supplementary_file_S2/6-chemical-library/molecular_docking/3D_ligand_structure/584.pdb
REMARK  4 active torsions:
REMARK  status: ('A' for Active; 'I' for Inactive)
REMARK    1  A    between atoms: C4_5  and  N1_6
REMARK    2  A    between atoms: C5_7  and  C6_9
REMARK    3  A    between atoms: C6_9  and  N2_10
REMARK    4  A    between atoms: C7_11  and  C8_13
REMARK                            x       y       z     vdW  Elec       q    Type
REMARK                         _______ _______ _______ _____ _____    ______ ____
ROOT
ATOM      1  C6  UNL     1      18.562  10.271  -6.703  0.00  0.00    +0.000 C 
ENDROOT
BRANCH   1   3
ATOM      2  N1  UNL     1      20.371   8.871  -5.836  0.00  0.00    +0.000 N 
ATOM      3  C5  UNL     1      19.463   9.043  -6.862  0.00  0.00    +0.000 C 
ATOM      4  O2  UNL     1      19.411   8.302  -7.841  0.00  0.00    +0.000 OA
ATOM      5  H8  UNL     1      20.465   9.600  -5.139  0.00  0.00    +0.000 HD
BRANCH   2  10
ATOM      6  C1  UNL     1      21.842   7.344  -4.512  0.00  0.00    +0.000 C 
ATOM      7  O1  UNL     1      23.231   6.996  -4.631  0.00  0.00    +0.000 OA
ATOM      8  C2  UNL     1      23.643   7.257  -5.980  0.00  0.00    +0.000 C 
ATOM      9  C3  UNL     1      22.660   8.260  -6.535  0.00  0.00    +0.000 C 
ATOM     10  C4  UNL     1      21.366   7.817  -5.883  0.00  0.00    +0.000 C 
ENDBRANCH   2  10
ENDBRANCH   1   3
BRANCH   1  11
ATOM     11  N2  UNL     1      17.904  10.246  -5.417  0.00  0.00    +0.000 N 
ATOM     12  C7  UNL     1      16.686  10.862  -5.234  0.00  0.00    +0.000 C 
ATOM     13  O3  UNL     1      15.979  11.261  -6.152  0.00  0.00    +0.000 OA
ATOM     14  H11 UNL     1      18.481  10.183  -4.582  0.00  0.00    +0.000 HD
BRANCH  12  15
ATOM     15  C8  UNL     1      16.326  11.002  -3.831  0.00  0.00    +0.000 A 
ATOM     16  C9  UNL     1      16.802  10.246  -2.784  0.00  0.00    +0.000 A 
ATOM     17  O4  UNL     1      16.214  10.689  -1.638  0.00  0.00    +0.000 OA
ATOM     18  C10 UNL     1      15.401  11.698  -2.055  0.00  0.00    +0.000 A 
ATOM     19  N3  UNL     1      15.422  11.937  -3.347  0.00  0.00    +0.000 NA
ENDBRANCH  12  15
ENDBRANCH   1  11
TORSDOF 4
ENDMDL
