MODEL 1
REMARK VINA RESULT:    -4.168      0.000      0.000
REMARK INTER + INTRA:          -4.168
REMARK INTER:                  -4.168
REMARK INTRA:                   0.000
REMARK UNBOUND:                 0.000
REMARK  Name = /home/anacleto/Desktop/manuscript_Mpro/naturecomm/supplementary_file_S2/6-chemical-library/molecular_docking/3D_ligand_structure/224.pdb
REMARK  0 active torsions:
REMARK  status: ('A' for Active; 'I' for Inactive)
REMARK                            x       y       z     vdW  Elec       q    Type
REMARK                         _______ _______ _______ _____ _____    ______ ____
ROOT
ATOM      1  N1  UNL     1     -38.313   9.817 -16.175  0.00  0.00    +0.000 N 
ATOM      2  C1  UNL     1     -39.664  10.174 -16.048  0.00  0.00    +0.000 A 
ATOM      3  O1  UNL     1     -40.277  10.958 -16.748  0.00  0.00    +0.000 OA
ATOM      4  N2  UNL     1     -40.170   9.451 -14.958  0.00  0.00    +0.000 N 
ATOM      5  C2  UNL     1     -39.146   8.671 -14.431  0.00  0.00    +0.000 A 
ATOM      6  C3  UNL     1     -38.000   8.895 -15.181  0.00  0.00    +0.000 A 
ATOM      7  C4  UNL     1     -39.110   7.796 -13.382  0.00  0.00    +0.000 A 
ATOM      8  N3  UNL     1     -37.964   7.144 -13.063  0.00  0.00    +0.000 NA
ATOM      9  C5  UNL     1     -36.856   7.392 -13.826  0.00  0.00    +0.000 A 
ATOM     10  C6  UNL     1     -36.815   8.264 -14.905  0.00  0.00    +0.000 A 
ATOM     11  H1  UNL     1     -37.700  10.190 -16.882  0.00  0.00    +0.000 HD
ATOM     12  H2  UNL     1     -41.123   9.514 -14.638  0.00  0.00    +0.000 HD
ENDROOT
TORSDOF 0
ENDMDL
MODEL 2
REMARK VINA RESULT:    -3.971     28.593     29.713
REMARK INTER + INTRA:          -3.971
REMARK INTER:                  -3.971
REMARK INTRA:                   0.000
REMARK UNBOUND:                 0.000
REMARK  Name = /home/anacleto/Desktop/manuscript_Mpro/naturecomm/supplementary_file_S2/6-chemical-library/molecular_docking/3D_ligand_structure/224.pdb
REMARK  0 active torsions:
REMARK  status: ('A' for Active; 'I' for Inactive)
REMARK                            x       y       z     vdW  Elec       q    Type
REMARK                         _______ _______ _______ _____ _____    ______ ____
ROOT
ATOM      1  N1  UNL     1     -20.632   6.433 -38.605  0.00  0.00    +0.000 N 
ATOM      2  C1  UNL     1     -21.910   6.545 -38.036  0.00  0.00    +0.000 A 
ATOM      3  O1  UNL     1     -22.733   5.657 -37.918  0.00  0.00    +0.000 OA
ATOM      4  N2  UNL     1     -22.053   7.880 -37.630  0.00  0.00    +0.000 N 
ATOM      5  C2  UNL     1     -20.885   8.566 -37.946  0.00  0.00    +0.000 A 
ATOM      6  C3  UNL     1     -20.007   7.675 -38.548  0.00  0.00    +0.000 A 
ATOM      7  C4  UNL     1     -20.512   9.868 -37.766  0.00  0.00    +0.000 A 
ATOM      8  N3  UNL     1     -19.291  10.301 -38.169  0.00  0.00    +0.000 NA
ATOM      9  C5  UNL     1     -18.454   9.392 -38.758  0.00  0.00    +0.000 A 
ATOM     10  C6  UNL     1     -18.761   8.056 -38.974  0.00  0.00    +0.000 A 
ATOM     11  H1  UNL     1     -20.262   5.576 -38.984  0.00  0.00    +0.000 HD
ATOM     12  H2  UNL     1     -22.880   8.245 -37.186  0.00  0.00    +0.000 HD
ENDROOT
TORSDOF 0
ENDMDL
MODEL 3
REMARK VINA RESULT:    -3.922     20.774     21.596
REMARK INTER + INTRA:          -3.922
REMARK INTER:                  -3.922
REMARK INTRA:                   0.000
REMARK UNBOUND:                 0.000
REMARK  Name = /home/anacleto/Desktop/manuscript_Mpro/naturecomm/supplementary_file_S2/6-chemical-library/molecular_docking/3D_ligand_structure/224.pdb
REMARK  0 active torsions:
REMARK  status: ('A' for Active; 'I' for Inactive)
REMARK                            x       y       z     vdW  Elec       q    Type
REMARK                         _______ _______ _______ _____ _____    ______ ____
ROOT
ATOM      1  N1  UNL     1     -27.143  -5.868 -25.514  0.00  0.00    +0.000 N 
ATOM      2  C1  UNL     1     -28.545  -5.877 -25.470  0.00  0.00    +0.000 A 
ATOM      3  O1  UNL     1     -29.244  -6.499 -24.693  0.00  0.00    +0.000 OA
ATOM      4  N2  UNL     1     -28.985  -5.029 -26.498  0.00  0.00    +0.000 N 
ATOM      5  C2  UNL     1     -27.871  -4.515 -27.154  0.00  0.00    +0.000 A 
ATOM      6  C3  UNL     1     -26.733  -5.031 -26.548  0.00  0.00    +0.000 A 
ATOM      7  C4  UNL     1     -27.746  -3.655 -28.208  0.00  0.00    +0.000 A 
ATOM      8  N3  UNL     1     -26.522  -3.300 -28.671  0.00  0.00    +0.000 NA
ATOM      9  C5  UNL     1     -25.425  -3.830 -28.048  0.00  0.00    +0.000 A 
ATOM     10  C6  UNL     1     -25.471  -4.707 -26.973  0.00  0.00    +0.000 A 
ATOM     11  H1  UNL     1     -26.561  -6.395 -24.883  0.00  0.00    +0.000 HD
ATOM     12  H2  UNL     1     -29.955  -4.848 -26.698  0.00  0.00    +0.000 HD
ENDROOT
TORSDOF 0
ENDMDL
MODEL 4
REMARK VINA RESULT:    -3.898      3.034      4.412
REMARK INTER + INTRA:          -3.898
REMARK INTER:                  -3.898
REMARK INTRA:                   0.000
REMARK UNBOUND:                 0.000
REMARK  Name = /home/anacleto/Desktop/manuscript_Mpro/naturecomm/supplementary_file_S2/6-chemical-library/molecular_docking/3D_ligand_structure/224.pdb
REMARK  0 active torsions:
REMARK  status: ('A' for Active; 'I' for Inactive)
REMARK                            x       y       z     vdW  Elec       q    Type
REMARK                         _______ _______ _______ _____ _____    ______ ____
ROOT
ATOM      1  N1  UNL     1     -39.051   5.553 -13.990  0.00  0.00    +0.000 N 
ATOM      2  C1  UNL     1     -37.902   4.895 -14.458  0.00  0.00    +0.000 A 
ATOM      3  O1  UNL     1     -37.614   3.726 -14.287  0.00  0.00    +0.000 OA
ATOM      4  N2  UNL     1     -37.151   5.850 -15.161  0.00  0.00    +0.000 N 
ATOM      5  C2  UNL     1     -37.830   7.063 -15.121  0.00  0.00    +0.000 A 
ATOM      6  C3  UNL     1     -39.002   6.882 -14.399  0.00  0.00    +0.000 A 
ATOM      7  C4  UNL     1     -37.538   8.292 -15.642  0.00  0.00    +0.000 A 
ATOM      8  N3  UNL     1     -38.380   9.340 -15.460  0.00  0.00    +0.000 NA
ATOM      9  C5  UNL     1     -39.525   9.121 -14.744  0.00  0.00    +0.000 A 
ATOM     10  C6  UNL     1     -39.890   7.904 -14.185  0.00  0.00    +0.000 A 
ATOM     11  H1  UNL     1     -39.771   5.103 -13.449  0.00  0.00    +0.000 HD
ATOM     12  H2  UNL     1     -36.271   5.651 -15.607  0.00  0.00    +0.000 HD
ENDROOT
TORSDOF 0
ENDMDL
MODEL 5
REMARK VINA RESULT:    -3.876     20.841     21.622
REMARK INTER + INTRA:          -3.876
REMARK INTER:                  -3.876
REMARK INTRA:                   0.000
REMARK UNBOUND:                 0.000
REMARK  Name = /home/anacleto/Desktop/manuscript_Mpro/naturecomm/supplementary_file_S2/6-chemical-library/molecular_docking/3D_ligand_structure/224.pdb
REMARK  0 active torsions:
REMARK  status: ('A' for Active; 'I' for Inactive)
REMARK                            x       y       z     vdW  Elec       q    Type
REMARK                         _______ _______ _______ _____ _____    ______ ____
ROOT
ATOM      1  N1  UNL     1     -28.995  -5.128 -26.489  0.00  0.00    +0.000 N 
ATOM      2  C1  UNL     1     -28.552  -5.978 -25.464  0.00  0.00    +0.000 A 
ATOM      3  O1  UNL     1     -29.248  -6.633 -24.710  0.00  0.00    +0.000 OA
ATOM      4  N2  UNL     1     -27.150  -5.927 -25.477  0.00  0.00    +0.000 N 
ATOM      5  C2  UNL     1     -26.749  -5.062 -26.491  0.00  0.00    +0.000 A 
ATOM      6  C3  UNL     1     -27.886  -4.568 -27.115  0.00  0.00    +0.000 A 
ATOM      7  C4  UNL     1     -25.514  -4.666 -26.919  0.00  0.00    +0.000 A 
ATOM      8  N3  UNL     1     -25.385  -3.794 -27.951  0.00  0.00    +0.000 NA
ATOM      9  C5  UNL     1     -26.529  -3.330 -28.540  0.00  0.00    +0.000 A 
ATOM     10  C6  UNL     1     -27.816  -3.686 -28.162  0.00  0.00    +0.000 A 
ATOM     11  H1  UNL     1     -29.966  -4.973 -26.705  0.00  0.00    +0.000 HD
ATOM     12  H2  UNL     1     -26.564  -6.445 -24.843  0.00  0.00    +0.000 HD
ENDROOT
TORSDOF 0
ENDMDL
MODEL 6
REMARK VINA RESULT:    -3.821     25.551     26.260
REMARK INTER + INTRA:          -3.821
REMARK INTER:                  -3.821
REMARK INTRA:                   0.000
REMARK UNBOUND:                 0.000
REMARK  Name = /home/anacleto/Desktop/manuscript_Mpro/naturecomm/supplementary_file_S2/6-chemical-library/molecular_docking/3D_ligand_structure/224.pdb
REMARK  0 active torsions:
REMARK  status: ('A' for Active; 'I' for Inactive)
REMARK                            x       y       z     vdW  Elec       q    Type
REMARK                         _______ _______ _______ _____ _____    ______ ____
ROOT
ATOM      1  N1  UNL     1     -19.551  -4.778 -25.525  0.00  0.00    +0.000 N 
ATOM      2  C1  UNL     1     -18.326  -4.211 -25.909  0.00  0.00    +0.000 A 
ATOM      3  O1  UNL     1     -17.347  -4.049 -25.204  0.00  0.00    +0.000 OA
ATOM      4  N2  UNL     1     -18.449  -3.867 -27.263  0.00  0.00    +0.000 N 
ATOM      5  C2  UNL     1     -19.725  -4.218 -27.694  0.00  0.00    +0.000 A 
ATOM      6  C3  UNL     1     -20.406  -4.780 -26.623  0.00  0.00    +0.000 A 
ATOM      7  C4  UNL     1     -20.345  -4.101 -28.905  0.00  0.00    +0.000 A 
ATOM      8  N3  UNL     1     -21.622  -4.528 -29.074  0.00  0.00    +0.000 NA
ATOM      9  C5  UNL     1     -22.259  -5.076 -27.995  0.00  0.00    +0.000 A 
ATOM     10  C6  UNL     1     -21.696  -5.229 -26.735  0.00  0.00    +0.000 A 
ATOM     11  H1  UNL     1     -19.743  -5.117 -24.596  0.00  0.00    +0.000 HD
ATOM     12  H2  UNL     1     -17.714  -3.438 -27.801  0.00  0.00    +0.000 HD
ENDROOT
TORSDOF 0
ENDMDL
MODEL 7
REMARK VINA RESULT:    -3.721     20.995     21.244
REMARK INTER + INTRA:          -3.721
REMARK INTER:                  -3.721
REMARK INTRA:                   0.000
REMARK UNBOUND:                 0.000
REMARK  Name = /home/anacleto/Desktop/manuscript_Mpro/naturecomm/supplementary_file_S2/6-chemical-library/molecular_docking/3D_ligand_structure/224.pdb
REMARK  0 active torsions:
REMARK  status: ('A' for Active; 'I' for Inactive)
REMARK                            x       y       z     vdW  Elec       q    Type
REMARK                         _______ _______ _______ _____ _____    ______ ____
ROOT
ATOM      1  N1  UNL     1     -26.419  -3.986 -27.207  0.00  0.00    +0.000 N 
ATOM      2  C1  UNL     1     -27.552  -3.701 -27.985  0.00  0.00    +0.000 A 
ATOM      3  O1  UNL     1     -27.613  -2.929 -28.924  0.00  0.00    +0.000 OA
ATOM      4  N2  UNL     1     -28.600  -4.479 -27.471  0.00  0.00    +0.000 N 
ATOM      5  C2  UNL     1     -28.113  -5.223 -26.400  0.00  0.00    +0.000 A 
ATOM      6  C3  UNL     1     -26.769  -4.920 -26.236  0.00  0.00    +0.000 A 
ATOM      7  C4  UNL     1     -28.712  -6.124 -25.566  0.00  0.00    +0.000 A 
ATOM      8  N3  UNL     1     -28.007  -6.728 -24.577  0.00  0.00    +0.000 NA
ATOM      9  C5  UNL     1     -26.684  -6.403 -24.448  0.00  0.00    +0.000 A 
ATOM     10  C6  UNL     1     -26.007  -5.499 -25.255  0.00  0.00    +0.000 A 
ATOM     11  H1  UNL     1     -25.518  -3.563 -27.356  0.00  0.00    +0.000 HD
ATOM     12  H2  UNL     1     -29.536  -4.474 -27.842  0.00  0.00    +0.000 HD
ENDROOT
TORSDOF 0
ENDMDL
MODEL 8
REMARK VINA RESULT:    -3.716     26.525     27.311
REMARK INTER + INTRA:          -3.716
REMARK INTER:                  -3.716
REMARK INTRA:                   0.000
REMARK UNBOUND:                 0.000
REMARK  Name = /home/anacleto/Desktop/manuscript_Mpro/naturecomm/supplementary_file_S2/6-chemical-library/molecular_docking/3D_ligand_structure/224.pdb
REMARK  0 active torsions:
REMARK  status: ('A' for Active; 'I' for Inactive)
REMARK                            x       y       z     vdW  Elec       q    Type
REMARK                         _______ _______ _______ _____ _____    ______ ____
ROOT
ATOM      1  N1  UNL     1     -24.859   8.167 -38.324  0.00  0.00    +0.000 N 
ATOM      2  C1  UNL     1     -25.643   9.281 -37.987  0.00  0.00    +0.000 A 
ATOM      3  O1  UNL     1     -26.831   9.426 -38.206  0.00  0.00    +0.000 OA
ATOM      4  N2  UNL     1     -24.791  10.194 -37.349  0.00  0.00    +0.000 N 
ATOM      5  C2  UNL     1     -23.513   9.646 -37.300  0.00  0.00    +0.000 A 
ATOM      6  C3  UNL     1     -23.553   8.395 -37.901  0.00  0.00    +0.000 A 
ATOM      7  C4  UNL     1     -22.335  10.116 -36.792  0.00  0.00    +0.000 A 
ATOM      8  N3  UNL     1     -21.202   9.374 -36.869  0.00  0.00    +0.000 NA
ATOM      9  C5  UNL     1     -21.283   8.147 -37.468  0.00  0.00    +0.000 A 
ATOM     10  C6  UNL     1     -22.441   7.602 -38.006  0.00  0.00    +0.000 A 
ATOM     11  H1  UNL     1     -25.218   7.353 -38.796  0.00  0.00    +0.000 HD
ATOM     12  H2  UNL     1     -25.090  11.089 -36.998  0.00  0.00    +0.000 HD
ENDROOT
TORSDOF 0
ENDMDL
MODEL 9
REMARK VINA RESULT:    -3.712     28.692     29.821
REMARK INTER + INTRA:          -3.712
REMARK INTER:                  -3.712
REMARK INTRA:                   0.000
REMARK UNBOUND:                 0.000
REMARK  Name = /home/anacleto/Desktop/manuscript_Mpro/naturecomm/supplementary_file_S2/6-chemical-library/molecular_docking/3D_ligand_structure/224.pdb
REMARK  0 active torsions:
REMARK  status: ('A' for Active; 'I' for Inactive)
REMARK                            x       y       z     vdW  Elec       q    Type
REMARK                         _______ _______ _______ _____ _____    ______ ____
ROOT
ATOM      1  N1  UNL     1     -21.750   8.372 -37.677  0.00  0.00    +0.000 N 
ATOM      2  C1  UNL     1     -21.752   9.644 -37.084  0.00  0.00    +0.000 A 
ATOM      3  O1  UNL     1     -22.645  10.134 -36.419  0.00  0.00    +0.000 OA
ATOM      4  N2  UNL     1     -20.524  10.240 -37.407  0.00  0.00    +0.000 N 
ATOM      5  C2  UNL     1     -19.790   9.348 -38.182  0.00  0.00    +0.000 A 
ATOM      6  C3  UNL     1     -20.544   8.195 -38.349  0.00  0.00    +0.000 A 
ATOM      7  C4  UNL     1     -18.550   9.434 -38.748  0.00  0.00    +0.000 A 
ATOM      8  N3  UNL     1     -18.046   8.404 -39.474  0.00  0.00    +0.000 NA
ATOM      9  C5  UNL     1     -18.820   7.285 -39.615  0.00  0.00    +0.000 A 
ATOM     10  C6  UNL     1     -20.086   7.123 -39.071  0.00  0.00    +0.000 A 
ATOM     11  H1  UNL     1     -22.515   7.721 -37.606  0.00  0.00    +0.000 HD
ATOM     12  H2  UNL     1     -20.254  11.163 -37.110  0.00  0.00    +0.000 HD
ENDROOT
TORSDOF 0
ENDMDL
