MODEL 1
REMARK VINA RESULT:    -4.389      0.000      0.000
REMARK INTER + INTRA:          -4.389
REMARK INTER:                  -4.389
REMARK INTRA:                   0.000
REMARK UNBOUND:                 0.000
REMARK  Name = /home/anacleto/Desktop/manuscript_Mpro/naturecomm/supplementary_file_S2/6-chemical-library/molecular_docking/3D_ligand_structure/197.pdb
REMARK  0 active torsions:
REMARK  status: ('A' for Active; 'I' for Inactive)
REMARK                            x       y       z     vdW  Elec       q    Type
REMARK                         _______ _______ _______ _____ _____    ______ ____
ROOT
ATOM      1  O1  UNL     1      13.125  10.216  -4.679  0.00  0.00    +0.000 OA
ATOM      2  C1  UNL     1      13.766  10.994  -5.356  0.00  0.00    +0.000 C 
ATOM      3  C2  UNL     1      13.829  11.052  -6.848  0.00  0.00    +0.000 C 
ATOM      4  C3  UNL     1      13.153  10.208  -7.634  0.00  0.00    +0.000 C 
ATOM      5  C4  UNL     1      14.749  12.177  -7.250  0.00  0.00    +0.000 C 
ATOM      6  C5  UNL     1      15.197  12.748  -5.937  0.00  0.00    +0.000 A 
ATOM      7  C6  UNL     1      14.632  12.067  -4.857  0.00  0.00    +0.000 A 
ATOM      8  C7  UNL     1      16.058  13.811  -5.713  0.00  0.00    +0.000 A 
ATOM      9  C8  UNL     1      16.336  14.171  -4.390  0.00  0.00    +0.000 A 
ATOM     10  C9  UNL     1      15.759  13.477  -3.312  0.00  0.00    +0.000 A 
ATOM     11  C10 UNL     1      14.892  12.406  -3.541  0.00  0.00    +0.000 A 
ENDROOT
TORSDOF 0
ENDMDL
MODEL 2
REMARK VINA RESULT:    -4.299     16.568     18.406
REMARK INTER + INTRA:          -4.299
REMARK INTER:                  -4.299
REMARK INTRA:                   0.000
REMARK UNBOUND:                 0.000
REMARK  Name = /home/anacleto/Desktop/manuscript_Mpro/naturecomm/supplementary_file_S2/6-chemical-library/molecular_docking/3D_ligand_structure/197.pdb
REMARK  0 active torsions:
REMARK  status: ('A' for Active; 'I' for Inactive)
REMARK                            x       y       z     vdW  Elec       q    Type
REMARK                         _______ _______ _______ _____ _____    ______ ____
ROOT
ATOM      1  O1  UNL     1      22.115   6.602  12.557  0.00  0.00    +0.000 OA
ATOM      2  C1  UNL     1      21.043   6.851  12.046  0.00  0.00    +0.000 C 
ATOM      3  C2  UNL     1      19.872   7.523  12.687  0.00  0.00    +0.000 C 
ATOM      4  C3  UNL     1      19.883   7.940  13.957  0.00  0.00    +0.000 C 
ATOM      5  C4  UNL     1      18.758   7.623  11.675  0.00  0.00    +0.000 C 
ATOM      6  C5  UNL     1      19.342   6.987  10.449  0.00  0.00    +0.000 A 
ATOM      7  C6  UNL     1      20.650   6.547  10.666  0.00  0.00    +0.000 A 
ATOM      8  C7  UNL     1      18.749   6.809   9.209  0.00  0.00    +0.000 A 
ATOM      9  C8  UNL     1      19.492   6.183   8.201  0.00  0.00    +0.000 A 
ATOM     10  C9  UNL     1      20.807   5.746   8.436  0.00  0.00    +0.000 A 
ATOM     11  C10 UNL     1      21.403   5.927   9.685  0.00  0.00    +0.000 A 
ENDROOT
TORSDOF 0
ENDMDL
MODEL 3
REMARK VINA RESULT:    -4.269     16.064     17.628
REMARK INTER + INTRA:          -4.269
REMARK INTER:                  -4.269
REMARK INTRA:                   0.000
REMARK UNBOUND:                 0.000
REMARK  Name = /home/anacleto/Desktop/manuscript_Mpro/naturecomm/supplementary_file_S2/6-chemical-library/molecular_docking/3D_ligand_structure/197.pdb
REMARK  0 active torsions:
REMARK  status: ('A' for Active; 'I' for Inactive)
REMARK                            x       y       z     vdW  Elec       q    Type
REMARK                         _______ _______ _______ _____ _____    ______ ____
ROOT
ATOM      1  O1  UNL     1      23.697   5.648   9.951  0.00  0.00    +0.000 OA
ATOM      2  C1  UNL     1      22.624   5.201   9.604  0.00  0.00    +0.000 C 
ATOM      3  C2  UNL     1      22.248   3.761   9.465  0.00  0.00    +0.000 C 
ATOM      4  C3  UNL     1      23.099   2.763   9.722  0.00  0.00    +0.000 C 
ATOM      5  C4  UNL     1      20.813   3.678   9.008  0.00  0.00    +0.000 C 
ATOM      6  C5  UNL     1      20.398   5.114   8.895  0.00  0.00    +0.000 A 
ATOM      7  C6  UNL     1      21.438   5.982   9.237  0.00  0.00    +0.000 A 
ATOM      8  C7  UNL     1      19.168   5.624   8.512  0.00  0.00    +0.000 A 
ATOM      9  C8  UNL     1      19.007   7.014   8.479  0.00  0.00    +0.000 A 
ATOM     10  C9  UNL     1      20.063   7.875   8.827  0.00  0.00    +0.000 A 
ATOM     11  C10 UNL     1      21.301   7.358   9.213  0.00  0.00    +0.000 A 
ENDROOT
TORSDOF 0
ENDMDL
MODEL 4
REMARK VINA RESULT:    -4.252     16.000     17.281
REMARK INTER + INTRA:          -4.252
REMARK INTER:                  -4.252
REMARK INTRA:                   0.000
REMARK UNBOUND:                 0.000
REMARK  Name = /home/anacleto/Desktop/manuscript_Mpro/naturecomm/supplementary_file_S2/6-chemical-library/molecular_docking/3D_ligand_structure/197.pdb
REMARK  0 active torsions:
REMARK  status: ('A' for Active; 'I' for Inactive)
REMARK                            x       y       z     vdW  Elec       q    Type
REMARK                         _______ _______ _______ _____ _____    ______ ____
ROOT
ATOM      1  O1  UNL     1      21.425   3.279  10.275  0.00  0.00    +0.000 OA
ATOM      2  C1  UNL     1      20.489   3.900   9.814  0.00  0.00    +0.000 C 
ATOM      3  C2  UNL     1      19.134   3.369   9.474  0.00  0.00    +0.000 C 
ATOM      4  C3  UNL     1      18.793   2.088   9.651  0.00  0.00    +0.000 C 
ATOM      5  C4  UNL     1      18.295   4.498   8.929  0.00  0.00    +0.000 C 
ATOM      6  C5  UNL     1      19.222   5.675   8.974  0.00  0.00    +0.000 A 
ATOM      7  C6  UNL     1      20.476   5.328   9.481  0.00  0.00    +0.000 A 
ATOM      8  C7  UNL     1      18.968   6.982   8.589  0.00  0.00    +0.000 A 
ATOM      9  C8  UNL     1      19.994   7.924   8.722  0.00  0.00    +0.000 A 
ATOM     10  C9  UNL     1      21.252   7.559   9.234  0.00  0.00    +0.000 A 
ATOM     11  C10 UNL     1      21.505   6.242   9.622  0.00  0.00    +0.000 A 
ENDROOT
TORSDOF 0
ENDMDL
MODEL 5
REMARK VINA RESULT:    -4.154      2.272      4.406
REMARK INTER + INTRA:          -4.154
REMARK INTER:                  -4.154
REMARK INTRA:                   0.000
REMARK UNBOUND:                 0.000
REMARK  Name = /home/anacleto/Desktop/manuscript_Mpro/naturecomm/supplementary_file_S2/6-chemical-library/molecular_docking/3D_ligand_structure/197.pdb
REMARK  0 active torsions:
REMARK  status: ('A' for Active; 'I' for Inactive)
REMARK                            x       y       z     vdW  Elec       q    Type
REMARK                         _______ _______ _______ _____ _____    ______ ____
ROOT
ATOM      1  O1  UNL     1      18.108  12.088  -5.318  0.00  0.00    +0.000 OA
ATOM      2  C1  UNL     1      17.074  11.689  -4.823  0.00  0.00    +0.000 C 
ATOM      3  C2  UNL     1      16.828  11.369  -3.383  0.00  0.00    +0.000 C 
ATOM      4  C3  UNL     1      17.769  11.494  -2.443  0.00  0.00    +0.000 C 
ATOM      5  C4  UNL     1      15.400  10.909  -3.228  0.00  0.00    +0.000 C 
ATOM      6  C5  UNL     1      14.856  10.981  -4.623  0.00  0.00    +0.000 A 
ATOM      7  C6  UNL     1      15.817  11.428  -5.532  0.00  0.00    +0.000 A 
ATOM      8  C7  UNL     1      13.579  10.670  -5.063  0.00  0.00    +0.000 A 
ATOM      9  C8  UNL     1      13.293  10.815  -6.426  0.00  0.00    +0.000 A 
ATOM     10  C9  UNL     1      14.272  11.266  -7.328  0.00  0.00    +0.000 A 
ATOM     11  C10 UNL     1      15.557  11.580  -6.882  0.00  0.00    +0.000 A 
ENDROOT
TORSDOF 0
ENDMDL
MODEL 6
REMARK VINA RESULT:    -4.150     16.848     18.224
REMARK INTER + INTRA:          -4.150
REMARK INTER:                  -4.150
REMARK INTRA:                   0.000
REMARK UNBOUND:                 0.000
REMARK  Name = /home/anacleto/Desktop/manuscript_Mpro/naturecomm/supplementary_file_S2/6-chemical-library/molecular_docking/3D_ligand_structure/197.pdb
REMARK  0 active torsions:
REMARK  status: ('A' for Active; 'I' for Inactive)
REMARK                            x       y       z     vdW  Elec       q    Type
REMARK                         _______ _______ _______ _____ _____    ______ ____
ROOT
ATOM      1  O1  UNL     1      16.409   3.633  11.354  0.00  0.00    +0.000 OA
ATOM      2  C1  UNL     1      16.097   3.146  10.286  0.00  0.00    +0.000 C 
ATOM      3  C2  UNL     1      16.827   3.274   8.988  0.00  0.00    +0.000 C 
ATOM      4  C3  UNL     1      17.958   3.976   8.860  0.00  0.00    +0.000 C 
ATOM      5  C4  UNL     1      16.075   2.503   7.933  0.00  0.00    +0.000 C 
ATOM      6  C5  UNL     1      14.904   1.940   8.680  0.00  0.00    +0.000 A 
ATOM      7  C6  UNL     1      14.921   2.310  10.026  0.00  0.00    +0.000 A 
ATOM      8  C7  UNL     1      13.880   1.142   8.194  0.00  0.00    +0.000 A 
ATOM      9  C8  UNL     1      12.881   0.730   9.083  0.00  0.00    +0.000 A 
ATOM     10  C9  UNL     1      12.912   1.111  10.436  0.00  0.00    +0.000 A 
ATOM     11  C10 UNL     1      13.945   1.914  10.923  0.00  0.00    +0.000 A 
ENDROOT
TORSDOF 0
ENDMDL
MODEL 7
REMARK VINA RESULT:    -4.029     16.970     18.235
REMARK INTER + INTRA:          -4.029
REMARK INTER:                  -4.029
REMARK INTRA:                   0.000
REMARK UNBOUND:                 0.000
REMARK  Name = /home/anacleto/Desktop/manuscript_Mpro/naturecomm/supplementary_file_S2/6-chemical-library/molecular_docking/3D_ligand_structure/197.pdb
REMARK  0 active torsions:
REMARK  status: ('A' for Active; 'I' for Inactive)
REMARK                            x       y       z     vdW  Elec       q    Type
REMARK                         _______ _______ _______ _____ _____    ______ ____
ROOT
ATOM      1  O1  UNL     1      13.078   1.233  11.277  0.00  0.00    +0.000 OA
ATOM      2  C1  UNL     1      13.605   1.009  10.208  0.00  0.00    +0.000 C 
ATOM      3  C2  UNL     1      13.284  -0.098   9.257  0.00  0.00    +0.000 C 
ATOM      4  C3  UNL     1      12.332  -1.006   9.498  0.00  0.00    +0.000 C 
ATOM      5  C4  UNL     1      14.192   0.014   8.058  0.00  0.00    +0.000 C 
ATOM      6  C5  UNL     1      15.031   1.218   8.367  0.00  0.00    +0.000 A 
ATOM      7  C6  UNL     1      14.692   1.783   9.598  0.00  0.00    +0.000 A 
ATOM      8  C7  UNL     1      16.039   1.781   7.601  0.00  0.00    +0.000 A 
ATOM      9  C8  UNL     1      16.693   2.916   8.094  0.00  0.00    +0.000 A 
ATOM     10  C9  UNL     1      16.339   3.473   9.336  0.00  0.00    +0.000 A 
ATOM     11  C10 UNL     1      15.324   2.904  10.106  0.00  0.00    +0.000 A 
ENDROOT
TORSDOF 0
ENDMDL
MODEL 8
REMARK VINA RESULT:    -4.019     17.054     18.677
REMARK INTER + INTRA:          -4.019
REMARK INTER:                  -4.019
REMARK INTRA:                   0.000
REMARK UNBOUND:                 0.000
REMARK  Name = /home/anacleto/Desktop/manuscript_Mpro/naturecomm/supplementary_file_S2/6-chemical-library/molecular_docking/3D_ligand_structure/197.pdb
REMARK  0 active torsions:
REMARK  status: ('A' for Active; 'I' for Inactive)
REMARK                            x       y       z     vdW  Elec       q    Type
REMARK                         _______ _______ _______ _____ _____    ______ ____
ROOT
ATOM      1  O1  UNL     1      22.611   6.064  10.809  0.00  0.00    +0.000 OA
ATOM      2  C1  UNL     1      21.427   6.327  10.771  0.00  0.00    +0.000 C 
ATOM      3  C2  UNL     1      20.494   6.124   9.620  0.00  0.00    +0.000 C 
ATOM      4  C3  UNL     1      20.888   5.605   8.452  0.00  0.00    +0.000 C 
ATOM      5  C4  UNL     1      19.119   6.593  10.024  0.00  0.00    +0.000 C 
ATOM      6  C5  UNL     1      19.311   7.064  11.435  0.00  0.00    +0.000 A 
ATOM      7  C6  UNL     1      20.633   6.910  11.857  0.00  0.00    +0.000 A 
ATOM      8  C7  UNL     1      18.366   7.599  12.296  0.00  0.00    +0.000 A 
ATOM      9  C8  UNL     1      18.776   7.973  13.581  0.00  0.00    +0.000 A 
ATOM     10  C9  UNL     1      20.111   7.811  13.992  0.00  0.00    +0.000 A 
ATOM     11  C10 UNL     1      21.061   7.272  13.122  0.00  0.00    +0.000 A 
ENDROOT
TORSDOF 0
ENDMDL
MODEL 9
REMARK VINA RESULT:    -3.949      2.774      3.743
REMARK INTER + INTRA:          -3.949
REMARK INTER:                  -3.949
REMARK INTRA:                   0.000
REMARK UNBOUND:                 0.000
REMARK  Name = /home/anacleto/Desktop/manuscript_Mpro/naturecomm/supplementary_file_S2/6-chemical-library/molecular_docking/3D_ligand_structure/197.pdb
REMARK  0 active torsions:
REMARK  status: ('A' for Active; 'I' for Inactive)
REMARK                            x       y       z     vdW  Elec       q    Type
REMARK                         _______ _______ _______ _____ _____    ______ ____
ROOT
ATOM      1  O1  UNL     1      17.444  10.233  -3.304  0.00  0.00    +0.000 OA
ATOM      2  C1  UNL     1      17.258  10.605  -4.444  0.00  0.00    +0.000 C 
ATOM      3  C2  UNL     1      18.278  10.729  -5.530  0.00  0.00    +0.000 C 
ATOM      4  C3  UNL     1      19.568  10.428  -5.350  0.00  0.00    +0.000 C 
ATOM      5  C4  UNL     1      17.595  11.229  -6.779  0.00  0.00    +0.000 C 
ATOM      6  C5  UNL     1      16.164  11.380  -6.358  0.00  0.00    +0.000 A 
ATOM      7  C6  UNL     1      15.977  11.022  -5.022  0.00  0.00    +0.000 A 
ATOM      8  C7  UNL     1      15.088  11.810  -7.118  0.00  0.00    +0.000 A 
ATOM      9  C8  UNL     1      13.829  11.873  -6.509  0.00  0.00    +0.000 A 
ATOM     10  C9  UNL     1      13.656  11.509  -5.162  0.00  0.00    +0.000 A 
ATOM     11  C10 UNL     1      14.742  11.076  -4.399  0.00  0.00    +0.000 A 
ENDROOT
TORSDOF 0
ENDMDL
