MODEL 1
REMARK VINA RESULT:    -4.323      0.000      0.000
REMARK INTER + INTRA:          -4.655
REMARK INTER:                  -4.552
REMARK INTRA:                  -0.103
REMARK UNBOUND:                -0.079
REMARK  Name = /home/anacleto/Desktop/manuscript_Mpro/naturecomm/supplementary_file_S2/6-chemical-library/molecular_docking/3D_ligand_structure/1374.pdb
REMARK  1 active torsions:
REMARK  status: ('A' for Active; 'I' for Inactive)
REMARK    1  A    between atoms: C3_5  and  C4_6
REMARK                            x       y       z     vdW  Elec       q    Type
REMARK                         _______ _______ _______ _____ _____    ______ ____
ROOT
ATOM      1  N1  UNL     1      16.385  10.278  -3.941  0.00  0.00    +0.000 N 
ATOM      2  C1  UNL     1      17.133  10.150  -2.806  0.00  0.00    +0.000 A 
ATOM      3  C2  UNL     1      16.483  10.914  -1.866  0.00  0.00    +0.000 A 
ATOM      4  N2  UNL     1      15.364  11.498  -2.402  0.00  0.00    +0.000 NA
ATOM      5  C3  UNL     1      15.322  11.101  -3.660  0.00  0.00    +0.000 A 
ATOM      6  H1  UNL     1      16.539   9.843  -4.842  0.00  0.00    +0.000 HD
ENDROOT
BRANCH   5   7
ATOM      7  C4  UNL     1      14.305  11.459  -4.691  0.00  0.00    +0.000 C 
ATOM      8  C5  UNL     1      14.905  12.267  -5.845  0.00  0.00    +0.000 C 
ATOM      9  C6  UNL     1      14.454  11.550  -7.109  0.00  0.00    +0.000 C 
ATOM     10  C7  UNL     1      13.290  10.697  -6.650  0.00  0.00    +0.000 C 
ATOM     11  N3  UNL     1      13.719  10.260  -5.324  0.00  0.00    +0.000 NA
ATOM     12  H11 UNL     1      12.917   9.953  -4.773  0.00  0.00    +0.000 HD
ENDBRANCH   5   7
TORSDOF 1
ENDMDL
MODEL 2
REMARK VINA RESULT:    -4.149      2.567      3.180
REMARK INTER + INTRA:          -4.470
REMARK INTER:                  -4.388
REMARK INTRA:                  -0.082
REMARK UNBOUND:                -0.079
REMARK  Name = /home/anacleto/Desktop/manuscript_Mpro/naturecomm/supplementary_file_S2/6-chemical-library/molecular_docking/3D_ligand_structure/1374.pdb
REMARK  1 active torsions:
REMARK  status: ('A' for Active; 'I' for Inactive)
REMARK    1  A    between atoms: C3_5  and  C4_6
REMARK                            x       y       z     vdW  Elec       q    Type
REMARK                         _______ _______ _______ _____ _____    ______ ____
ROOT
ATOM      1  N1  UNL     1      14.184  14.790  -3.929  0.00  0.00    +0.000 N 
ATOM      2  C1  UNL     1      14.496  15.402  -2.750  0.00  0.00    +0.000 A 
ATOM      3  C2  UNL     1      15.115  14.432  -2.000  0.00  0.00    +0.000 A 
ATOM      4  N2  UNL     1      15.188  13.252  -2.695  0.00  0.00    +0.000 NA
ATOM      5  C3  UNL     1      14.618  13.488  -3.860  0.00  0.00    +0.000 A 
ATOM      6  H1  UNL     1      13.735  15.192  -4.742  0.00  0.00    +0.000 HD
ENDROOT
BRANCH   5   7
ATOM      7  C4  UNL     1      14.427  12.530  -4.988  0.00  0.00    +0.000 C 
ATOM      8  C5  UNL     1      14.688  11.080  -4.570  0.00  0.00    +0.000 C 
ATOM      9  C6  UNL     1      13.465  10.305  -5.039  0.00  0.00    +0.000 C 
ATOM     10  C7  UNL     1      12.826  11.216  -6.065  0.00  0.00    +0.000 C 
ATOM     11  N3  UNL     1      13.037  12.541  -5.489  0.00  0.00    +0.000 NA
ATOM     12  H11 UNL     1      12.951  13.261  -6.208  0.00  0.00    +0.000 HD
ENDBRANCH   5   7
TORSDOF 1
ENDMDL
MODEL 3
REMARK VINA RESULT:    -4.146      1.323      4.191
REMARK INTER + INTRA:          -4.468
REMARK INTER:                  -4.366
REMARK INTRA:                  -0.102
REMARK UNBOUND:                -0.079
REMARK  Name = /home/anacleto/Desktop/manuscript_Mpro/naturecomm/supplementary_file_S2/6-chemical-library/molecular_docking/3D_ligand_structure/1374.pdb
REMARK  1 active torsions:
REMARK  status: ('A' for Active; 'I' for Inactive)
REMARK    1  A    between atoms: C3_5  and  C4_6
REMARK                            x       y       z     vdW  Elec       q    Type
REMARK                         _______ _______ _______ _____ _____    ______ ____
ROOT
ATOM      1  N1  UNL     1      14.255  10.517  -4.295  0.00  0.00    +0.000 N 
ATOM      2  C1  UNL     1      13.201  10.566  -5.161  0.00  0.00    +0.000 A 
ATOM      3  C2  UNL     1      13.719  11.090  -6.321  0.00  0.00    +0.000 A 
ATOM      4  N2  UNL     1      15.056  11.357  -6.180  0.00  0.00    +0.000 NA
ATOM      5  C3  UNL     1      15.362  11.005  -4.946  0.00  0.00    +0.000 A 
ATOM      6  H1  UNL     1      14.267  10.172  -3.344  0.00  0.00    +0.000 HD
ENDROOT
BRANCH   5   7
ATOM      7  C4  UNL     1      16.694  11.099  -4.280  0.00  0.00    +0.000 C 
ATOM      8  C5  UNL     1      16.615  11.796  -2.918  0.00  0.00    +0.000 C 
ATOM      9  C6  UNL     1      17.328  10.861  -1.951  0.00  0.00    +0.000 C 
ATOM     10  C7  UNL     1      18.147   9.960  -2.851  0.00  0.00    +0.000 C 
ATOM     11  N3  UNL     1      17.263   9.765  -3.997  0.00  0.00    +0.000 NA
ATOM     12  H11 UNL     1      17.795   9.454  -4.810  0.00  0.00    +0.000 HD
ENDBRANCH   5   7
TORSDOF 1
ENDMDL
MODEL 4
REMARK VINA RESULT:    -4.039      4.759      5.659
REMARK INTER + INTRA:          -4.354
REMARK INTER:                  -4.254
REMARK INTRA:                  -0.101
REMARK UNBOUND:                -0.079
REMARK  Name = /home/anacleto/Desktop/manuscript_Mpro/naturecomm/supplementary_file_S2/6-chemical-library/molecular_docking/3D_ligand_structure/1374.pdb
REMARK  1 active torsions:
REMARK  status: ('A' for Active; 'I' for Inactive)
REMARK    1  A    between atoms: C3_5  and  C4_6
REMARK                            x       y       z     vdW  Elec       q    Type
REMARK                         _______ _______ _______ _____ _____    ______ ____
ROOT
ATOM      1  N1  UNL     1      14.188  14.761  -4.021  0.00  0.00    +0.000 N 
ATOM      2  C1  UNL     1      14.713  13.660  -4.634  0.00  0.00    +0.000 A 
ATOM      3  C2  UNL     1      15.159  12.863  -3.607  0.00  0.00    +0.000 A 
ATOM      4  N2  UNL     1      14.917  13.451  -2.393  0.00  0.00    +0.000 NA
ATOM      5  C3  UNL     1      14.329  14.601  -2.664  0.00  0.00    +0.000 A 
ATOM      6  H1  UNL     1      13.746  15.563  -4.451  0.00  0.00    +0.000 HD
ENDROOT
BRANCH   5   7
ATOM      7  C4  UNL     1      13.863  15.633  -1.693  0.00  0.00    +0.000 C 
ATOM      8  C5  UNL     1      14.153  17.058  -2.174  0.00  0.00    +0.000 C 
ATOM      9  C6  UNL     1      12.829  17.798  -2.046  0.00  0.00    +0.000 C 
ATOM     10  C7  UNL     1      12.018  16.936  -1.101  0.00  0.00    +0.000 C 
ATOM     11  N3  UNL     1      12.399  15.583  -1.498  0.00  0.00    +0.000 NA
ATOM     12  H11 UNL     1      12.187  14.919  -0.753  0.00  0.00    +0.000 HD
ENDBRANCH   5   7
TORSDOF 1
ENDMDL
MODEL 5
REMARK VINA RESULT:    -4.004      7.312      8.467
REMARK INTER + INTRA:          -4.318
REMARK INTER:                  -4.220
REMARK INTRA:                  -0.098
REMARK UNBOUND:                -0.079
REMARK  Name = /home/anacleto/Desktop/manuscript_Mpro/naturecomm/supplementary_file_S2/6-chemical-library/molecular_docking/3D_ligand_structure/1374.pdb
REMARK  1 active torsions:
REMARK  status: ('A' for Active; 'I' for Inactive)
REMARK    1  A    between atoms: C3_5  and  C4_6
REMARK                            x       y       z     vdW  Elec       q    Type
REMARK                         _______ _______ _______ _____ _____    ______ ____
ROOT
ATOM      1  N1  UNL     1      11.938  19.237  -3.155  0.00  0.00    +0.000 N 
ATOM      2  C1  UNL     1      12.084  20.447  -3.768  0.00  0.00    +0.000 A 
ATOM      3  C2  UNL     1      13.407  20.777  -3.591  0.00  0.00    +0.000 A 
ATOM      4  N2  UNL     1      14.062  19.797  -2.889  0.00  0.00    +0.000 NA
ATOM      5  C3  UNL     1      13.156  18.874  -2.634  0.00  0.00    +0.000 A 
ATOM      6  H1  UNL     1      11.105  18.665  -3.092  0.00  0.00    +0.000 HD
ENDROOT
BRANCH   5   7
ATOM      7  C4  UNL     1      13.348  17.597  -1.885  0.00  0.00    +0.000 C 
ATOM      8  C5  UNL     1      12.039  17.068  -1.292  0.00  0.00    +0.000 C 
ATOM      9  C6  UNL     1      11.958  15.615  -1.739  0.00  0.00    +0.000 C 
ATOM     10  C7  UNL     1      13.379  15.276  -2.138  0.00  0.00    +0.000 C 
ATOM     11  N3  UNL     1      13.838  16.515  -2.763  0.00  0.00    +0.000 NA
ATOM     12  H11 UNL     1      14.858  16.545  -2.788  0.00  0.00    +0.000 HD
ENDBRANCH   5   7
TORSDOF 1
ENDMDL
MODEL 6
REMARK VINA RESULT:    -3.983      1.346      4.141
REMARK INTER + INTRA:          -4.296
REMARK INTER:                  -4.206
REMARK INTRA:                  -0.089
REMARK UNBOUND:                -0.079
REMARK  Name = /home/anacleto/Desktop/manuscript_Mpro/naturecomm/supplementary_file_S2/6-chemical-library/molecular_docking/3D_ligand_structure/1374.pdb
REMARK  1 active torsions:
REMARK  status: ('A' for Active; 'I' for Inactive)
REMARK    1  A    between atoms: C3_5  and  C4_6
REMARK                            x       y       z     vdW  Elec       q    Type
REMARK                         _______ _______ _______ _____ _____    ______ ____
ROOT
ATOM      1  N1  UNL     1      13.917  10.234  -4.929  0.00  0.00    +0.000 N 
ATOM      2  C1  UNL     1      13.085  10.837  -5.826  0.00  0.00    +0.000 A 
ATOM      3  C2  UNL     1      13.361  12.180  -5.719  0.00  0.00    +0.000 A 
ATOM      4  N2  UNL     1      14.338  12.402  -4.783  0.00  0.00    +0.000 NA
ATOM      5  C3  UNL     1      14.662  11.212  -4.315  0.00  0.00    +0.000 A 
ATOM      6  H1  UNL     1      14.016   9.246  -4.735  0.00  0.00    +0.000 HD
ENDROOT
BRANCH   5   7
ATOM      7  C4  UNL     1      15.673  10.895  -3.265  0.00  0.00    +0.000 C 
ATOM      8  C5  UNL     1      16.953  11.721  -3.422  0.00  0.00    +0.000 C 
ATOM      9  C6  UNL     1      17.207  12.327  -2.049  0.00  0.00    +0.000 C 
ATOM     10  C7  UNL     1      16.372  11.477  -1.114  0.00  0.00    +0.000 C 
ATOM     11  N3  UNL     1      15.176  11.210  -1.910  0.00  0.00    +0.000 NA
ATOM     12  H11 UNL     1      14.677  10.398  -1.544  0.00  0.00    +0.000 HD
ENDBRANCH   5   7
TORSDOF 1
ENDMDL
MODEL 7
REMARK VINA RESULT:    -3.895      2.607      3.942
REMARK INTER + INTRA:          -4.202
REMARK INTER:                  -4.115
REMARK INTRA:                  -0.087
REMARK UNBOUND:                -0.079
REMARK  Name = /home/anacleto/Desktop/manuscript_Mpro/naturecomm/supplementary_file_S2/6-chemical-library/molecular_docking/3D_ligand_structure/1374.pdb
REMARK  1 active torsions:
REMARK  status: ('A' for Active; 'I' for Inactive)
REMARK    1  A    between atoms: C3_5  and  C4_6
REMARK                            x       y       z     vdW  Elec       q    Type
REMARK                         _______ _______ _______ _____ _____    ______ ____
ROOT
ATOM      1  N1  UNL     1      14.830  10.581  -4.863  0.00  0.00    +0.000 N 
ATOM      2  C1  UNL     1      13.467  10.513  -4.832  0.00  0.00    +0.000 A 
ATOM      3  C2  UNL     1      13.053  11.199  -5.949  0.00  0.00    +0.000 A 
ATOM      4  N2  UNL     1      14.128  11.677  -6.653  0.00  0.00    +0.000 NA
ATOM      5  C3  UNL     1      15.195  11.293  -5.979  0.00  0.00    +0.000 A 
ATOM      6  H1  UNL     1      15.490  10.174  -4.213  0.00  0.00    +0.000 HD
ENDROOT
BRANCH   5   7
ATOM      7  C4  UNL     1      16.624  11.563  -6.313  0.00  0.00    +0.000 C 
ATOM      8  C5  UNL     1      17.586  10.680  -5.512  0.00  0.00    +0.000 C 
ATOM      9  C6  UNL     1      18.514  10.061  -6.548  0.00  0.00    +0.000 C 
ATOM     10  C7  UNL     1      18.346  10.947  -7.765  0.00  0.00    +0.000 C 
ATOM     11  N3  UNL     1      16.922  11.269  -7.730  0.00  0.00    +0.000 NA
ATOM     12  H11 UNL     1      16.731  12.103  -8.288  0.00  0.00    +0.000 HD
ENDBRANCH   5   7
TORSDOF 1
ENDMDL
MODEL 8
REMARK VINA RESULT:    -3.814     14.693     16.688
REMARK INTER + INTRA:          -4.116
REMARK INTER:                  -4.037
REMARK INTRA:                  -0.079
REMARK UNBOUND:                -0.079
REMARK  Name = /home/anacleto/Desktop/manuscript_Mpro/naturecomm/supplementary_file_S2/6-chemical-library/molecular_docking/3D_ligand_structure/1374.pdb
REMARK  1 active torsions:
REMARK  status: ('A' for Active; 'I' for Inactive)
REMARK    1  A    between atoms: C3_5  and  C4_6
REMARK                            x       y       z     vdW  Elec       q    Type
REMARK                         _______ _______ _______ _____ _____    ______ ____
ROOT
ATOM      1  N1  UNL     1      18.106   5.444  12.353  0.00  0.00    +0.000 N 
ATOM      2  C1  UNL     1      17.294   5.791  13.393  0.00  0.00    +0.000 A 
ATOM      3  C2  UNL     1      17.378   7.160  13.467  0.00  0.00    +0.000 A 
ATOM      4  N2  UNL     1      18.217   7.649  12.499  0.00  0.00    +0.000 NA
ATOM      5  C3  UNL     1      18.649   6.594  11.835  0.00  0.00    +0.000 A 
ATOM      6  H1  UNL     1      18.286   4.519  11.983  0.00  0.00    +0.000 HD
ENDROOT
BRANCH   5   7
ATOM      7  C4  UNL     1      19.597   6.573  10.683  0.00  0.00    +0.000 C 
ATOM      8  C5  UNL     1      18.997   5.894   9.448  0.00  0.00    +0.000 C 
ATOM      9  C6  UNL     1      19.219   6.876   8.307  0.00  0.00    +0.000 C 
ATOM     10  C7  UNL     1      20.300   7.802   8.826  0.00  0.00    +0.000 C 
ATOM     11  N3  UNL     1      19.952   7.936  10.238  0.00  0.00    +0.000 NA
ATOM     12  H11 UNL     1      20.757   8.260  10.775  0.00  0.00    +0.000 HD
ENDBRANCH   5   7
TORSDOF 1
ENDMDL
MODEL 9
REMARK VINA RESULT:    -3.811     14.120     15.426
REMARK INTER + INTRA:          -4.114
REMARK INTER:                  -4.032
REMARK INTRA:                  -0.082
REMARK UNBOUND:                -0.079
REMARK  Name = /home/anacleto/Desktop/manuscript_Mpro/naturecomm/supplementary_file_S2/6-chemical-library/molecular_docking/3D_ligand_structure/1374.pdb
REMARK  1 active torsions:
REMARK  status: ('A' for Active; 'I' for Inactive)
REMARK    1  A    between atoms: C3_5  and  C4_6
REMARK                            x       y       z     vdW  Elec       q    Type
REMARK                         _______ _______ _______ _____ _____    ______ ____
ROOT
ATOM      1  N1  UNL     1      18.641   6.032   8.009  0.00  0.00    +0.000 N 
ATOM      2  C1  UNL     1      19.240   7.195   8.398  0.00  0.00    +0.000 A 
ATOM      3  C2  UNL     1      19.517   7.022   9.733  0.00  0.00    +0.000 A 
ATOM      4  N2  UNL     1      19.103   5.786  10.159  0.00  0.00    +0.000 NA
ATOM      5  C3  UNL     1      18.574   5.202   9.101  0.00  0.00    +0.000 A 
ATOM      6  H1  UNL     1      18.310   5.778   7.087  0.00  0.00    +0.000 HD
ENDROOT
BRANCH   5   7
ATOM      7  C4  UNL     1      17.965   3.842   9.025  0.00  0.00    +0.000 C 
ATOM      8  C5  UNL     1      17.314   3.422  10.347  0.00  0.00    +0.000 C 
ATOM      9  C6  UNL     1      15.912   2.964   9.971  0.00  0.00    +0.000 C 
ATOM     10  C7  UNL     1      15.996   2.710   8.481  0.00  0.00    +0.000 C 
ATOM     11  N3  UNL     1      16.879   3.782   8.025  0.00  0.00    +0.000 NA
ATOM     12  H11 UNL     1      17.280   3.552   7.116  0.00  0.00    +0.000 HD
ENDBRANCH   5   7
TORSDOF 1
ENDMDL
