MODEL 1
REMARK VINA RESULT:    -5.215      0.000      0.000
REMARK INTER + INTRA:          -6.491
REMARK INTER:                  -6.180
REMARK INTRA:                  -0.311
REMARK UNBOUND:                -0.362
REMARK  Name = /home/anacleto/Desktop/manuscript_Mpro/naturecomm/supplementary_file_S2/6-chemical-library/molecular_docking/3D_ligand_structure/720.pdb
REMARK  3 active torsions:
REMARK  status: ('A' for Active; 'I' for Inactive)
REMARK    1  A    between atoms: C4_6  and  N3_7
REMARK    2  A    between atoms: C5_8  and  C6_10
REMARK    3  A    between atoms: C6_10  and  C7_11
REMARK                            x       y       z     vdW  Elec       q    Type
REMARK                         _______ _______ _______ _____ _____    ______ ____
ROOT
ATOM      1  N3  UNL     1     -23.578   7.059 -39.004  0.00  0.00    +0.000 N 
ATOM      2  C5  UNL     1     -23.727   5.732 -38.647  0.00  0.00    +0.000 C 
ATOM      3  O1  UNL     1     -23.355   5.242 -37.584  0.00  0.00    +0.000 OA
ATOM      4  H4  UNL     1     -23.902   7.326 -39.929  0.00  0.00    +0.000 HD
ENDROOT
BRANCH   1  10
ATOM      5  C1  UNL     1     -21.595   8.210 -38.028  0.00  0.00    +0.000 A 
ATOM      6  N1  UNL     1     -21.047   9.200 -37.283  0.00  0.00    +0.000 NA
ATOM      7  C2  UNL     1     -21.908  10.076 -36.746  0.00  0.00    +0.000 A 
ATOM      8  N2  UNL     1     -23.242  10.051 -36.880  0.00  0.00    +0.000 NA
ATOM      9  C3  UNL     1     -23.729   9.041 -37.632  0.00  0.00    +0.000 A 
ATOM     10  C4  UNL     1     -22.953   8.070 -38.244  0.00  0.00    +0.000 A 
ENDBRANCH   1  10
BRANCH   2  11
ATOM     11  C6  UNL     1     -24.485   4.881 -39.660  0.00  0.00    +0.000 C 
BRANCH  11  12
ATOM     12  C7  UNL     1     -25.726   4.205 -39.124  0.00  0.00    +0.000 A 
ATOM     13  C8  UNL     1     -25.675   2.872 -38.691  0.00  0.00    +0.000 A 
ATOM     14  C9  UNL     1     -26.825   2.239 -38.221  0.00  0.00    +0.000 A 
ATOM     15  C10 UNL     1     -28.034   2.929 -38.177  0.00  0.00    +0.000 A 
ATOM     16  C11 UNL     1     -28.094   4.257 -38.597  0.00  0.00    +0.000 A 
ATOM     17  C12 UNL     1     -26.946   4.894 -39.068  0.00  0.00    +0.000 A 
ENDBRANCH  11  12
ENDBRANCH   2  11
TORSDOF 3
ENDMDL
MODEL 2
REMARK VINA RESULT:    -4.999      2.430      6.865
REMARK INTER + INTRA:          -6.237
REMARK INTER:                  -6.040
REMARK INTRA:                  -0.197
REMARK UNBOUND:                -0.362
REMARK  Name = /home/anacleto/Desktop/manuscript_Mpro/naturecomm/supplementary_file_S2/6-chemical-library/molecular_docking/3D_ligand_structure/720.pdb
REMARK  3 active torsions:
REMARK  status: ('A' for Active; 'I' for Inactive)
REMARK    1  A    between atoms: C4_6  and  N3_7
REMARK    2  A    between atoms: C5_8  and  C6_10
REMARK    3  A    between atoms: C6_10  and  C7_11
REMARK                            x       y       z     vdW  Elec       q    Type
REMARK                         _______ _______ _______ _____ _____    ______ ____
ROOT
ATOM      1  N3  UNL     1     -24.258   4.867 -38.127  0.00  0.00    +0.000 N 
ATOM      2  C5  UNL     1     -23.352   5.829 -38.532  0.00  0.00    +0.000 C 
ATOM      3  O1  UNL     1     -23.458   6.516 -39.545  0.00  0.00    +0.000 OA
ATOM      4  H4  UNL     1     -24.033   4.348 -37.284  0.00  0.00    +0.000 HD
ENDROOT
BRANCH   1  10
ATOM      5  C1  UNL     1     -26.536   5.274 -39.050  0.00  0.00    +0.000 A 
ATOM      6  N1  UNL     1     -27.643   4.848 -39.705  0.00  0.00    +0.000 NA
ATOM      7  C2  UNL     1     -27.624   3.575 -40.126  0.00  0.00    +0.000 A 
ATOM      8  N2  UNL     1     -26.619   2.706 -39.952  0.00  0.00    +0.000 NA
ATOM      9  C3  UNL     1     -25.544   3.187 -39.292  0.00  0.00    +0.000 A 
ATOM     10  C4  UNL     1     -25.433   4.479 -38.805  0.00  0.00    +0.000 A 
ENDBRANCH   1  10
BRANCH   2  11
ATOM     11  C6  UNL     1     -22.194   6.059 -37.567  0.00  0.00    +0.000 C 
BRANCH  11  12
ATOM     12  C7  UNL     1     -21.370   7.297 -37.843  0.00  0.00    +0.000 A 
ATOM     13  C8  UNL     1     -20.244   7.226 -38.677  0.00  0.00    +0.000 A 
ATOM     14  C9  UNL     1     -19.468   8.362 -38.910  0.00  0.00    +0.000 A 
ATOM     15  C10 UNL     1     -19.809   9.575 -38.318  0.00  0.00    +0.000 A 
ATOM     16  C11 UNL     1     -20.931   9.657 -37.495  0.00  0.00    +0.000 A 
ATOM     17  C12 UNL     1     -21.709   8.524 -37.258  0.00  0.00    +0.000 A 
ENDBRANCH  11  12
ENDBRANCH   2  11
TORSDOF 3
ENDMDL
MODEL 3
REMARK VINA RESULT:    -4.758      2.183      6.600
REMARK INTER + INTRA:          -5.954
REMARK INTER:                  -5.703
REMARK INTRA:                  -0.252
REMARK UNBOUND:                -0.362
REMARK  Name = /home/anacleto/Desktop/manuscript_Mpro/naturecomm/supplementary_file_S2/6-chemical-library/molecular_docking/3D_ligand_structure/720.pdb
REMARK  3 active torsions:
REMARK  status: ('A' for Active; 'I' for Inactive)
REMARK    1  A    between atoms: C4_6  and  N3_7
REMARK    2  A    between atoms: C5_8  and  C6_10
REMARK    3  A    between atoms: C6_10  and  C7_11
REMARK                            x       y       z     vdW  Elec       q    Type
REMARK                         _______ _______ _______ _____ _____    ______ ____
ROOT
ATOM      1  N3  UNL     1     -24.908   5.312 -39.307  0.00  0.00    +0.000 N 
ATOM      2  C5  UNL     1     -23.804   5.620 -38.533  0.00  0.00    +0.000 C 
ATOM      3  O1  UNL     1     -23.535   5.102 -37.452  0.00  0.00    +0.000 OA
ATOM      4  H4  UNL     1     -25.028   5.839 -40.167  0.00  0.00    +0.000 HD
ENDROOT
BRANCH   1  10
ATOM      5  C1  UNL     1     -25.767   3.034 -38.780  0.00  0.00    +0.000 A 
ATOM      6  N1  UNL     1     -26.785   2.191 -38.481  0.00  0.00    +0.000 NA
ATOM      7  C2  UNL     1     -28.002   2.747 -38.391  0.00  0.00    +0.000 A 
ATOM      8  N2  UNL     1     -28.288   4.044 -38.572  0.00  0.00    +0.000 NA
ATOM      9  C3  UNL     1     -27.233   4.835 -38.868  0.00  0.00    +0.000 A 
ATOM     10  C4  UNL     1     -25.927   4.390 -38.990  0.00  0.00    +0.000 A 
ENDBRANCH   1  10
BRANCH   2  11
ATOM     11  C6  UNL     1     -22.849   6.630 -39.159  0.00  0.00    +0.000 C 
BRANCH  11  12
ATOM     12  C7  UNL     1     -22.566   7.850 -38.311  0.00  0.00    +0.000 A 
ATOM     13  C8  UNL     1     -23.620   8.663 -37.869  0.00  0.00    +0.000 A 
ATOM     14  C9  UNL     1     -23.358   9.804 -37.109  0.00  0.00    +0.000 A 
ATOM     15  C10 UNL     1     -22.047  10.141 -36.784  0.00  0.00    +0.000 A 
ATOM     16  C11 UNL     1     -20.994   9.335 -37.212  0.00  0.00    +0.000 A 
ATOM     17  C12 UNL     1     -21.250   8.193 -37.972  0.00  0.00    +0.000 A 
ENDBRANCH  11  12
ENDBRANCH   2  11
TORSDOF 3
ENDMDL
MODEL 4
REMARK VINA RESULT:    -4.711      3.853      5.987
REMARK INTER + INTRA:          -5.899
REMARK INTER:                  -5.573
REMARK INTRA:                  -0.326
REMARK UNBOUND:                -0.362
REMARK  Name = /home/anacleto/Desktop/manuscript_Mpro/naturecomm/supplementary_file_S2/6-chemical-library/molecular_docking/3D_ligand_structure/720.pdb
REMARK  3 active torsions:
REMARK  status: ('A' for Active; 'I' for Inactive)
REMARK    1  A    between atoms: C4_6  and  N3_7
REMARK    2  A    between atoms: C5_8  and  C6_10
REMARK    3  A    between atoms: C6_10  and  C7_11
REMARK                            x       y       z     vdW  Elec       q    Type
REMARK                         _______ _______ _______ _____ _____    ______ ____
ROOT
ATOM      1  N3  UNL     1     -19.029   9.887 -37.872  0.00  0.00    +0.000 N 
ATOM      2  C5  UNL     1     -20.345  10.199 -38.159  0.00  0.00    +0.000 C 
ATOM      3  O1  UNL     1     -20.726  10.783 -39.171  0.00  0.00    +0.000 OA
ATOM      4  H4  UNL     1     -18.848   9.430 -36.983  0.00  0.00    +0.000 HD
ENDROOT
BRANCH   1  10
ATOM      5  C1  UNL     1     -17.264   9.365 -39.551  0.00  0.00    +0.000 A 
ATOM      6  N1  UNL     1     -16.176   9.720 -40.277  0.00  0.00    +0.000 NA
ATOM      7  C2  UNL     1     -15.723  10.967 -40.084  0.00  0.00    +0.000 A 
ATOM      8  N2  UNL     1     -16.247  11.873 -39.247  0.00  0.00    +0.000 NA
ATOM      9  C3  UNL     1     -17.329  11.462 -38.552  0.00  0.00    +0.000 A 
ATOM     10  C4  UNL     1     -17.898  10.203 -38.654  0.00  0.00    +0.000 A 
ENDBRANCH   1  10
BRANCH   2  11
ATOM     11  C6  UNL     1     -21.357   9.689 -37.140  0.00  0.00    +0.000 C 
BRANCH  11  12
ATOM     12  C7  UNL     1     -22.104   8.440 -37.554  0.00  0.00    +0.000 A 
ATOM     13  C8  UNL     1     -21.436   7.209 -37.629  0.00  0.00    +0.000 A 
ATOM     14  C9  UNL     1     -22.117   6.061 -38.035  0.00  0.00    +0.000 A 
ATOM     15  C10 UNL     1     -23.467   6.131 -38.367  0.00  0.00    +0.000 A 
ATOM     16  C11 UNL     1     -24.142   7.348 -38.287  0.00  0.00    +0.000 A 
ATOM     17  C12 UNL     1     -23.465   8.499 -37.882  0.00  0.00    +0.000 A 
ENDBRANCH  11  12
ENDBRANCH   2  11
TORSDOF 3
ENDMDL
MODEL 5
REMARK VINA RESULT:    -4.539      9.265     10.582
REMARK INTER + INTRA:          -5.696
REMARK INTER:                  -5.384
REMARK INTRA:                  -0.312
REMARK UNBOUND:                -0.362
REMARK  Name = /home/anacleto/Desktop/manuscript_Mpro/naturecomm/supplementary_file_S2/6-chemical-library/molecular_docking/3D_ligand_structure/720.pdb
REMARK  3 active torsions:
REMARK  status: ('A' for Active; 'I' for Inactive)
REMARK    1  A    between atoms: C4_6  and  N3_7
REMARK    2  A    between atoms: C5_8  and  C6_10
REMARK    3  A    between atoms: C6_10  and  C7_11
REMARK                            x       y       z     vdW  Elec       q    Type
REMARK                         _______ _______ _______ _____ _____    ______ ____
ROOT
ATOM      1  N3  UNL     1     -30.291  12.556 -34.553  0.00  0.00    +0.000 N 
ATOM      2  C5  UNL     1     -31.650  12.638 -34.798  0.00  0.00    +0.000 C 
ATOM      3  O1  UNL     1     -32.189  12.385 -35.872  0.00  0.00    +0.000 OA
ATOM      4  H4  UNL     1     -29.973  12.825 -33.627  0.00  0.00    +0.000 HD
ENDROOT
BRANCH   1  10
ATOM      5  C1  UNL     1     -28.512  13.082 -36.216  0.00  0.00    +0.000 A 
ATOM      6  N1  UNL     1     -27.562  12.690 -37.100  0.00  0.00    +0.000 NA
ATOM      7  C2  UNL     1     -27.398  11.367 -37.238  0.00  0.00    +0.000 A 
ATOM      8  N2  UNL     1     -28.085  10.418 -36.587  0.00  0.00    +0.000 NA
ATOM      9  C3  UNL     1     -29.018  10.869 -35.720  0.00  0.00    +0.000 A 
ATOM     10  C4  UNL     1     -29.289  12.206 -35.482  0.00  0.00    +0.000 A 
ENDBRANCH   1  10
BRANCH   2  11
ATOM     11  C6  UNL     1     -32.494  13.003 -33.582  0.00  0.00    +0.000 C 
BRANCH  11  12
ATOM     12  C7  UNL     1     -33.838  12.314 -33.509  0.00  0.00    +0.000 A 
ATOM     13  C8  UNL     1     -35.005  12.998 -33.879  0.00  0.00    +0.000 A 
ATOM     14  C9  UNL     1     -36.248  12.371 -33.787  0.00  0.00    +0.000 A 
ATOM     15  C10 UNL     1     -36.338  11.059 -33.327  0.00  0.00    +0.000 A 
ATOM     16  C11 UNL     1     -35.182  10.369 -32.965  0.00  0.00    +0.000 A 
ATOM     17  C12 UNL     1     -33.937  10.991 -33.055  0.00  0.00    +0.000 A 
ENDBRANCH  11  12
ENDBRANCH   2  11
TORSDOF 3
ENDMDL
MODEL 6
REMARK VINA RESULT:    -4.437      4.049      6.854
REMARK INTER + INTRA:          -5.576
REMARK INTER:                  -5.245
REMARK INTRA:                  -0.331
REMARK UNBOUND:                -0.362
REMARK  Name = /home/anacleto/Desktop/manuscript_Mpro/naturecomm/supplementary_file_S2/6-chemical-library/molecular_docking/3D_ligand_structure/720.pdb
REMARK  3 active torsions:
REMARK  status: ('A' for Active; 'I' for Inactive)
REMARK    1  A    between atoms: C4_6  and  N3_7
REMARK    2  A    between atoms: C5_8  and  C6_10
REMARK    3  A    between atoms: C6_10  and  C7_11
REMARK                            x       y       z     vdW  Elec       q    Type
REMARK                         _______ _______ _______ _____ _____    ______ ____
ROOT
ATOM      1  N3  UNL     1     -27.796   3.912 -39.694  0.00  0.00    +0.000 N 
ATOM      2  C5  UNL     1     -27.129   2.886 -39.050  0.00  0.00    +0.000 C 
ATOM      3  O1  UNL     1     -27.645   2.092 -38.268  0.00  0.00    +0.000 OA
ATOM      4  H4  UNL     1     -27.241   4.517 -40.292  0.00  0.00    +0.000 HD
ENDROOT
BRANCH   1  10
ATOM      5  C1  UNL     1     -29.708   5.012 -38.535  0.00  0.00    +0.000 A 
ATOM      6  N1  UNL     1     -31.027   5.306 -38.443  0.00  0.00    +0.000 NA
ATOM      7  C2  UNL     1     -31.808   4.813 -39.415  0.00  0.00    +0.000 A 
ATOM      8  N2  UNL     1     -31.398   4.066 -40.449  0.00  0.00    +0.000 NA
ATOM      9  C3  UNL     1     -30.074   3.806 -40.487  0.00  0.00    +0.000 A 
ATOM     10  C4  UNL     1     -29.157   4.252 -39.550  0.00  0.00    +0.000 A 
ENDBRANCH   1  10
BRANCH   2  11
ATOM     11  C6  UNL     1     -25.663   2.736 -39.440  0.00  0.00    +0.000 C 
BRANCH  11  12
ATOM     12  C7  UNL     1     -24.889   4.033 -39.524  0.00  0.00    +0.000 A 
ATOM     13  C8  UNL     1     -24.549   4.731 -38.356  0.00  0.00    +0.000 A 
ATOM     14  C9  UNL     1     -23.859   5.941 -38.434  0.00  0.00    +0.000 A 
ATOM     15  C10 UNL     1     -23.500   6.462 -39.674  0.00  0.00    +0.000 A 
ATOM     16  C11 UNL     1     -23.825   5.771 -40.840  0.00  0.00    +0.000 A 
ATOM     17  C12 UNL     1     -24.516   4.561 -40.768  0.00  0.00    +0.000 A 
ENDBRANCH  11  12
ENDBRANCH   2  11
TORSDOF 3
ENDMDL
MODEL 7
REMARK VINA RESULT:    -4.318     16.884     18.359
REMARK INTER + INTRA:          -5.437
REMARK INTER:                  -5.095
REMARK INTRA:                  -0.342
REMARK UNBOUND:                -0.362
REMARK  Name = /home/anacleto/Desktop/manuscript_Mpro/naturecomm/supplementary_file_S2/6-chemical-library/molecular_docking/3D_ligand_structure/720.pdb
REMARK  3 active torsions:
REMARK  status: ('A' for Active; 'I' for Inactive)
REMARK    1  A    between atoms: C4_6  and  N3_7
REMARK    2  A    between atoms: C5_8  and  C6_10
REMARK    3  A    between atoms: C6_10  and  C7_11
REMARK                            x       y       z     vdW  Elec       q    Type
REMARK                         _______ _______ _______ _____ _____    ______ ____
ROOT
ATOM      1  N3  UNL     1     -24.446  -5.560 -23.505  0.00  0.00    +0.000 N 
ATOM      2  C5  UNL     1     -24.443  -4.465 -24.348  0.00  0.00    +0.000 C 
ATOM      3  O1  UNL     1     -24.460  -3.292 -23.981  0.00  0.00    +0.000 OA
ATOM      4  H4  UNL     1     -24.462  -6.477 -23.941  0.00  0.00    +0.000 HD
ENDROOT
BRANCH   1  10
ATOM      5  C1  UNL     1     -23.422  -5.515 -21.234  0.00  0.00    +0.000 A 
ATOM      6  N1  UNL     1     -23.533  -5.497 -19.883  0.00  0.00    +0.000 NA
ATOM      7  C2  UNL     1     -24.783  -5.499 -19.397  0.00  0.00    +0.000 A 
ATOM      8  N2  UNL     1     -25.909  -5.520 -20.124  0.00  0.00    +0.000 NA
ATOM      9  C3  UNL     1     -25.734  -5.538 -21.463  0.00  0.00    +0.000 A 
ATOM     10  C4  UNL     1     -24.502  -5.537 -22.095  0.00  0.00    +0.000 A 
ENDBRANCH   1  10
BRANCH   2  11
ATOM     11  C6  UNL     1     -24.334  -4.803 -25.831  0.00  0.00    +0.000 C 
BRANCH  11  12
ATOM     12  C7  UNL     1     -25.559  -4.472 -26.652  0.00  0.00    +0.000 A 
ATOM     13  C8  UNL     1     -26.818  -4.960 -26.273  0.00  0.00    +0.000 A 
ATOM     14  C9  UNL     1     -27.945  -4.677 -27.045  0.00  0.00    +0.000 A 
ATOM     15  C10 UNL     1     -27.827  -3.905 -28.198  0.00  0.00    +0.000 A 
ATOM     16  C11 UNL     1     -26.581  -3.407 -28.578  0.00  0.00    +0.000 A 
ATOM     17  C12 UNL     1     -25.451  -3.688 -27.809  0.00  0.00    +0.000 A 
ENDBRANCH  11  12
ENDBRANCH   2  11
TORSDOF 3
ENDMDL
MODEL 8
REMARK VINA RESULT:    -4.306      2.671      6.479
REMARK INTER + INTRA:          -5.423
REMARK INTER:                  -5.090
REMARK INTRA:                  -0.333
REMARK UNBOUND:                -0.362
REMARK  Name = /home/anacleto/Desktop/manuscript_Mpro/naturecomm/supplementary_file_S2/6-chemical-library/molecular_docking/3D_ligand_structure/720.pdb
REMARK  3 active torsions:
REMARK  status: ('A' for Active; 'I' for Inactive)
REMARK    1  A    between atoms: C4_6  and  N3_7
REMARK    2  A    between atoms: C5_8  and  C6_10
REMARK    3  A    between atoms: C6_10  and  C7_11
REMARK                            x       y       z     vdW  Elec       q    Type
REMARK                         _______ _______ _______ _____ _____    ______ ____
ROOT
ATOM      1  N3  UNL     1     -25.858   5.853 -39.848  0.00  0.00    +0.000 N 
ATOM      2  C5  UNL     1     -24.669   5.502 -39.235  0.00  0.00    +0.000 C 
ATOM      3  O1  UNL     1     -24.563   4.705 -38.307  0.00  0.00    +0.000 OA
ATOM      4  H4  UNL     1     -25.808   6.549 -40.585  0.00  0.00    +0.000 HD
ENDROOT
BRANCH   1  10
ATOM      5  C1  UNL     1     -27.700   4.176 -39.841  0.00  0.00    +0.000 A 
ATOM      6  N1  UNL     1     -28.950   3.789 -39.487  0.00  0.00    +0.000 NA
ATOM      7  C2  UNL     1     -29.656   4.671 -38.766  0.00  0.00    +0.000 A 
ATOM      8  N2  UNL     1     -29.236   5.883 -38.377  0.00  0.00    +0.000 NA
ATOM      9  C3  UNL     1     -27.984   6.213 -38.760  0.00  0.00    +0.000 A 
ATOM     10  C4  UNL     1     -27.148   5.397 -39.504  0.00  0.00    +0.000 A 
ENDBRANCH   1  10
BRANCH   2  11
ATOM     11  C6  UNL     1     -23.425   6.128 -39.855  0.00  0.00    +0.000 C 
BRANCH  11  12
ATOM     12  C7  UNL     1     -22.654   7.054 -38.941  0.00  0.00    +0.000 A 
ATOM     13  C8  UNL     1     -23.305   8.119 -38.302  0.00  0.00    +0.000 A 
ATOM     14  C9  UNL     1     -22.589   8.990 -37.479  0.00  0.00    +0.000 A 
ATOM     15  C10 UNL     1     -21.223   8.805 -37.286  0.00  0.00    +0.000 A 
ATOM     16  C11 UNL     1     -20.569   7.744 -37.911  0.00  0.00    +0.000 A 
ATOM     17  C12 UNL     1     -21.280   6.871 -38.735  0.00  0.00    +0.000 A 
ENDBRANCH  11  12
ENDBRANCH   2  11
TORSDOF 3
ENDMDL
MODEL 9
REMARK VINA RESULT:    -4.252     14.404     15.855
REMARK INTER + INTRA:          -5.360
REMARK INTER:                  -4.998
REMARK INTRA:                  -0.362
REMARK UNBOUND:                -0.362
REMARK  Name = /home/anacleto/Desktop/manuscript_Mpro/naturecomm/supplementary_file_S2/6-chemical-library/molecular_docking/3D_ligand_structure/720.pdb
REMARK  3 active torsions:
REMARK  status: ('A' for Active; 'I' for Inactive)
REMARK    1  A    between atoms: C4_6  and  N3_7
REMARK    2  A    between atoms: C5_8  and  C6_10
REMARK    3  A    between atoms: C6_10  and  C7_11
REMARK                            x       y       z     vdW  Elec       q    Type
REMARK                         _______ _______ _______ _____ _____    ______ ____
ROOT
ATOM      1  N3  UNL     1     -23.593  -5.029 -28.536  0.00  0.00    +0.000 N 
ATOM      2  C5  UNL     1     -24.380  -3.894 -28.582  0.00  0.00    +0.000 C 
ATOM      3  O1  UNL     1     -24.167  -2.916 -29.296  0.00  0.00    +0.000 OA
ATOM      4  H4  UNL     1     -23.866  -5.752 -27.878  0.00  0.00    +0.000 HD
ENDROOT
BRANCH   1  10
ATOM      5  C1  UNL     1     -22.295  -5.913 -30.470  0.00  0.00    +0.000 A 
ATOM      6  N1  UNL     1     -21.123  -6.109 -31.121  0.00  0.00    +0.000 NA
ATOM      7  C2  UNL     1     -20.029  -5.621 -30.521  0.00  0.00    +0.000 A 
ATOM      8  N2  UNL     1     -20.000  -4.968 -29.350  0.00  0.00    +0.000 NA
ATOM      9  C3  UNL     1     -21.198  -4.804 -28.749  0.00  0.00    +0.000 A 
ATOM     10  C4  UNL     1     -22.403  -5.258 -29.259  0.00  0.00    +0.000 A 
ENDBRANCH   1  10
BRANCH   2  11
ATOM     11  C6  UNL     1     -25.633  -3.952 -27.716  0.00  0.00    +0.000 C 
BRANCH  11  12
ATOM     12  C7  UNL     1     -25.384  -4.231 -26.251  0.00  0.00    +0.000 A 
ATOM     13  C8  UNL     1     -24.503  -3.422 -25.517  0.00  0.00    +0.000 A 
ATOM     14  C9  UNL     1     -24.252  -3.695 -24.172  0.00  0.00    +0.000 A 
ATOM     15  C10 UNL     1     -24.877  -4.772 -23.548  0.00  0.00    +0.000 A 
ATOM     16  C11 UNL     1     -25.760  -5.576 -24.267  0.00  0.00    +0.000 A 
ATOM     17  C12 UNL     1     -26.014  -5.308 -25.613  0.00  0.00    +0.000 A 
ENDBRANCH  11  12
ENDBRANCH   2  11
TORSDOF 3
ENDMDL
