MODEL 1
REMARK VINA RESULT:    -5.111      0.000      0.000
REMARK INTER + INTRA:          -7.020
REMARK INTER:                  -5.780
REMARK INTRA:                  -1.240
REMARK UNBOUND:                -0.714
REMARK  Name = /home/anacleto/Desktop/manuscript_Mpro/naturecomm/supplementary_file_S2/6-chemical-library/molecular_docking/3D_ligand_structure/607.pdb
REMARK  4 active torsions:
REMARK  status: ('A' for Active; 'I' for Inactive)
REMARK    1  A    between atoms: C5_6  and  O2_7
REMARK    2  A    between atoms: O2_7  and  C6_8
REMARK    3  A    between atoms: C6_8  and  C7_10
REMARK    4  A    between atoms: C8_11  and  C9_12
REMARK                            x       y       z     vdW  Elec       q    Type
REMARK                         _______ _______ _______ _____ _____    ______ ____
ROOT
ATOM      1  C6  UNL     1     -28.251   2.569 -38.900  0.00  0.00    +0.000 C 
ATOM      2  O3  UNL     1     -28.681   1.865 -39.794  0.00  0.00    +0.000 OA
ENDROOT
BRANCH   1   3
ATOM      3  C7  UNL     1     -27.138   2.256 -37.976  0.00  0.00    +0.000 C 
ATOM      4  C8  UNL     1     -25.856   2.638 -38.099  0.00  0.00    +0.000 C 
BRANCH   4   5
ATOM      5  C9  UNL     1     -25.270   3.481 -39.145  0.00  0.00    +0.000 A 
ATOM      6  C10 UNL     1     -24.877   4.786 -38.832  0.00  0.00    +0.000 A 
ATOM      7  C11 UNL     1     -24.354   5.623 -39.821  0.00  0.00    +0.000 A 
ATOM      8  C12 UNL     1     -24.227   5.161 -41.130  0.00  0.00    +0.000 A 
ATOM      9  C13 UNL     1     -24.625   3.864 -41.451  0.00  0.00    +0.000 A 
ATOM     10  C14 UNL     1     -25.149   3.027 -40.463  0.00  0.00    +0.000 A 
ENDBRANCH   4   5
ENDBRANCH   1   3
BRANCH   1  11
ATOM     11  O2  UNL     1     -28.715   3.802 -38.565  0.00  0.00    +0.000 OA
BRANCH  11  17
ATOM     12  C1  UNL     1     -30.413   5.491 -39.051  0.00  0.00    +0.000 C 
ATOM     13  O1  UNL     1     -29.877   6.492 -38.176  0.00  0.00    +0.000 OA
ATOM     14  C2  UNL     1     -28.516   6.849 -38.410  0.00  0.00    +0.000 C 
ATOM     15  C3  UNL     1     -28.127   6.742 -39.875  0.00  0.00    +0.000 C 
ATOM     16  C4  UNL     1     -28.279   5.309 -40.384  0.00  0.00    +0.000 C 
ATOM     17  C5  UNL     1     -29.364   4.531 -39.630  0.00  0.00    +0.000 C 
ENDBRANCH  11  17
ENDBRANCH   1  11
TORSDOF 4
ENDMDL
MODEL 2
REMARK VINA RESULT:    -5.026      3.857      5.931
REMARK INTER + INTRA:          -6.914
REMARK INTER:                  -6.342
REMARK INTRA:                  -0.572
REMARK UNBOUND:                -0.714
REMARK  Name = /home/anacleto/Desktop/manuscript_Mpro/naturecomm/supplementary_file_S2/6-chemical-library/molecular_docking/3D_ligand_structure/607.pdb
REMARK  4 active torsions:
REMARK  status: ('A' for Active; 'I' for Inactive)
REMARK    1  A    between atoms: C5_6  and  O2_7
REMARK    2  A    between atoms: O2_7  and  C6_8
REMARK    3  A    between atoms: C6_8  and  C7_10
REMARK    4  A    between atoms: C8_11  and  C9_12
REMARK                            x       y       z     vdW  Elec       q    Type
REMARK                         _______ _______ _______ _____ _____    ______ ____
ROOT
ATOM      1  C6  UNL     1     -23.499   6.065 -38.371  0.00  0.00    +0.000 C 
ATOM      2  O3  UNL     1     -23.222   5.296 -37.470  0.00  0.00    +0.000 OA
ENDROOT
BRANCH   1   3
ATOM      3  C7  UNL     1     -23.769   5.721 -39.785  0.00  0.00    +0.000 C 
ATOM      4  C8  UNL     1     -24.763   4.947 -40.250  0.00  0.00    +0.000 C 
BRANCH   4   5
ATOM      5  C9  UNL     1     -25.827   4.298 -39.480  0.00  0.00    +0.000 A 
ATOM      6  C10 UNL     1     -25.628   3.002 -38.992  0.00  0.00    +0.000 A 
ATOM      7  C11 UNL     1     -26.643   2.347 -38.290  0.00  0.00    +0.000 A 
ATOM      8  C12 UNL     1     -27.866   2.981 -38.079  0.00  0.00    +0.000 A 
ATOM      9  C13 UNL     1     -28.076   4.269 -38.570  0.00  0.00    +0.000 A 
ATOM     10  C14 UNL     1     -27.062   4.924 -39.273  0.00  0.00    +0.000 A 
ENDBRANCH   4   5
ENDBRANCH   1   3
BRANCH   1  11
ATOM     11  O2  UNL     1     -23.614   7.415 -38.258  0.00  0.00    +0.000 OA
BRANCH  11  17
ATOM     12  C1  UNL     1     -23.009   9.629 -39.098  0.00  0.00    +0.000 C 
ATOM     13  O1  UNL     1     -23.350  10.337 -37.898  0.00  0.00    +0.000 OA
ATOM     14  C2  UNL     1     -22.697   9.888 -36.713  0.00  0.00    +0.000 C 
ATOM     15  C3  UNL     1     -21.304   9.347 -36.981  0.00  0.00    +0.000 C 
ATOM     16  C4  UNL     1     -21.350   8.140 -37.917  0.00  0.00    +0.000 C 
ATOM     17  C5  UNL     1     -22.552   8.182 -38.868  0.00  0.00    +0.000 C 
ENDBRANCH  11  17
ENDBRANCH   1  11
TORSDOF 4
ENDMDL
MODEL 3
REMARK VINA RESULT:    -4.751      4.412      5.815
REMARK INTER + INTRA:          -6.576
REMARK INTER:                  -5.317
REMARK INTRA:                  -1.259
REMARK UNBOUND:                -0.714
REMARK  Name = /home/anacleto/Desktop/manuscript_Mpro/naturecomm/supplementary_file_S2/6-chemical-library/molecular_docking/3D_ligand_structure/607.pdb
REMARK  4 active torsions:
REMARK  status: ('A' for Active; 'I' for Inactive)
REMARK    1  A    between atoms: C5_6  and  O2_7
REMARK    2  A    between atoms: O2_7  and  C6_8
REMARK    3  A    between atoms: C6_8  and  C7_10
REMARK    4  A    between atoms: C8_11  and  C9_12
REMARK                            x       y       z     vdW  Elec       q    Type
REMARK                         _______ _______ _______ _____ _____    ______ ____
ROOT
ATOM      1  C6  UNL     1     -23.988   6.193 -39.328  0.00  0.00    +0.000 C 
ATOM      2  O3  UNL     1     -23.940   5.853 -40.496  0.00  0.00    +0.000 OA
ENDROOT
BRANCH   1   3
ATOM      3  C7  UNL     1     -23.287   5.562 -38.187  0.00  0.00    +0.000 C 
ATOM      4  C8  UNL     1     -22.139   5.969 -37.622  0.00  0.00    +0.000 C 
BRANCH   4   5
ATOM      5  C9  UNL     1     -21.336   7.144 -37.971  0.00  0.00    +0.000 A 
ATOM      6  C10 UNL     1     -20.462   7.076 -39.062  0.00  0.00    +0.000 A 
ATOM      7  C11 UNL     1     -19.656   8.170 -39.390  0.00  0.00    +0.000 A 
ATOM      8  C12 UNL     1     -19.715   9.334 -38.625  0.00  0.00    +0.000 A 
ATOM      9  C13 UNL     1     -20.576   9.405 -37.531  0.00  0.00    +0.000 A 
ATOM     10  C14 UNL     1     -21.382   8.312 -37.202  0.00  0.00    +0.000 A 
ENDBRANCH   4   5
ENDBRANCH   1   3
BRANCH   1  11
ATOM     11  O2  UNL     1     -24.706   7.234 -38.831  0.00  0.00    +0.000 OA
BRANCH  11  17
ATOM     12  C1  UNL     1     -26.230   9.090 -39.286  0.00  0.00    +0.000 C 
ATOM     13  O1  UNL     1     -26.015   9.763 -38.039  0.00  0.00    +0.000 OA
ATOM     14  C2  UNL     1     -24.659  10.089 -37.741  0.00  0.00    +0.000 C 
ATOM     15  C3  UNL     1     -23.841  10.385 -38.986  0.00  0.00    +0.000 C 
ATOM     16  C4  UNL     1     -23.787   9.171 -39.913  0.00  0.00    +0.000 C 
ATOM     17  C5  UNL     1     -25.025   8.276 -39.780  0.00  0.00    +0.000 C 
ENDBRANCH  11  17
ENDBRANCH   1  11
TORSDOF 4
ENDMDL
MODEL 4
REMARK VINA RESULT:    -4.682      3.193      5.142
REMARK INTER + INTRA:          -6.490
REMARK INTER:                  -6.094
REMARK INTRA:                  -0.396
REMARK UNBOUND:                -0.714
REMARK  Name = /home/anacleto/Desktop/manuscript_Mpro/naturecomm/supplementary_file_S2/6-chemical-library/molecular_docking/3D_ligand_structure/607.pdb
REMARK  4 active torsions:
REMARK  status: ('A' for Active; 'I' for Inactive)
REMARK    1  A    between atoms: C5_6  and  O2_7
REMARK    2  A    between atoms: O2_7  and  C6_8
REMARK    3  A    between atoms: C6_8  and  C7_10
REMARK    4  A    between atoms: C8_11  and  C9_12
REMARK                            x       y       z     vdW  Elec       q    Type
REMARK                         _______ _______ _______ _____ _____    ______ ____
ROOT
ATOM      1  C6  UNL     1     -24.303   5.191 -38.560  0.00  0.00    +0.000 C 
ATOM      2  O3  UNL     1     -23.593   5.096 -37.576  0.00  0.00    +0.000 OA
ENDROOT
BRANCH   1   3
ATOM      3  C7  UNL     1     -24.033   5.984 -39.781  0.00  0.00    +0.000 C 
ATOM      4  C8  UNL     1     -23.468   7.201 -39.842  0.00  0.00    +0.000 C 
BRANCH   4   5
ATOM      5  C9  UNL     1     -22.954   8.006 -38.732  0.00  0.00    +0.000 A 
ATOM      6  C10 UNL     1     -23.801   8.924 -38.101  0.00  0.00    +0.000 A 
ATOM      7  C11 UNL     1     -23.322   9.732 -37.067  0.00  0.00    +0.000 A 
ATOM      8  C12 UNL     1     -21.992   9.633 -36.663  0.00  0.00    +0.000 A 
ATOM      9  C13 UNL     1     -21.139   8.728 -37.293  0.00  0.00    +0.000 A 
ATOM     10  C14 UNL     1     -21.617   7.919 -38.327  0.00  0.00    +0.000 A 
ENDBRANCH   4   5
ENDBRANCH   1   3
BRANCH   1  11
ATOM     11  O2  UNL     1     -25.504   4.580 -38.736  0.00  0.00    +0.000 OA
BRANCH  11  17
ATOM     12  C1  UNL     1     -26.609   2.582 -37.863  0.00  0.00    +0.000 C 
ATOM     13  O1  UNL     1     -27.922   2.932 -38.319  0.00  0.00    +0.000 OA
ATOM     14  C2  UNL     1     -28.041   3.185 -39.718  0.00  0.00    +0.000 C 
ATOM     15  C3  UNL     1     -27.076   2.354 -40.546  0.00  0.00    +0.000 C 
ATOM     16  C4  UNL     1     -25.625   2.667 -40.185  0.00  0.00    +0.000 C 
ATOM     17  C5  UNL     1     -25.471   3.135 -38.732  0.00  0.00    +0.000 C 
ENDBRANCH  11  17
ENDBRANCH   1  11
TORSDOF 4
ENDMDL
MODEL 5
REMARK VINA RESULT:    -4.671      3.227      5.225
REMARK INTER + INTRA:          -6.477
REMARK INTER:                  -5.898
REMARK INTRA:                  -0.578
REMARK UNBOUND:                -0.714
REMARK  Name = /home/anacleto/Desktop/manuscript_Mpro/naturecomm/supplementary_file_S2/6-chemical-library/molecular_docking/3D_ligand_structure/607.pdb
REMARK  4 active torsions:
REMARK  status: ('A' for Active; 'I' for Inactive)
REMARK    1  A    between atoms: C5_6  and  O2_7
REMARK    2  A    between atoms: O2_7  and  C6_8
REMARK    3  A    between atoms: C6_8  and  C7_10
REMARK    4  A    between atoms: C8_11  and  C9_12
REMARK                            x       y       z     vdW  Elec       q    Type
REMARK                         _______ _______ _______ _____ _____    ______ ____
ROOT
ATOM      1  C6  UNL     1     -24.510   5.084 -41.596  0.00  0.00    +0.000 C 
ATOM      2  O3  UNL     1     -25.210   5.875 -42.200  0.00  0.00    +0.000 OA
ENDROOT
BRANCH   1   3
ATOM      3  C7  UNL     1     -24.297   3.655 -41.919  0.00  0.00    +0.000 C 
ATOM      4  C8  UNL     1     -24.895   2.601 -41.341  0.00  0.00    +0.000 C 
BRANCH   4   5
ATOM      5  C9  UNL     1     -25.918   2.616 -40.292  0.00  0.00    +0.000 A 
ATOM      6  C10 UNL     1     -25.523   2.596 -38.950  0.00  0.00    +0.000 A 
ATOM      7  C11 UNL     1     -26.481   2.569 -37.933  0.00  0.00    +0.000 A 
ATOM      8  C12 UNL     1     -27.837   2.553 -38.251  0.00  0.00    +0.000 A 
ATOM      9  C13 UNL     1     -28.238   2.562 -39.586  0.00  0.00    +0.000 A 
ATOM     10  C14 UNL     1     -27.282   2.589 -40.605  0.00  0.00    +0.000 A 
ENDBRANCH   4   5
ENDBRANCH   1   3
BRANCH   1  11
ATOM     11  O2  UNL     1     -23.774   5.358 -40.487  0.00  0.00    +0.000 OA
BRANCH  11  17
ATOM     12  C1  UNL     1     -23.935   7.360 -39.094  0.00  0.00    +0.000 C 
ATOM     13  O1  UNL     1     -23.547   6.718 -37.872  0.00  0.00    +0.000 OA
ATOM     14  C2  UNL     1     -22.290   6.044 -37.903  0.00  0.00    +0.000 C 
ATOM     15  C3  UNL     1     -21.293   6.709 -38.837  0.00  0.00    +0.000 C 
ATOM     16  C4  UNL     1     -21.803   6.714 -40.278  0.00  0.00    +0.000 C 
ATOM     17  C5  UNL     1     -23.334   6.729 -40.357  0.00  0.00    +0.000 C 
ENDBRANCH  11  17
ENDBRANCH   1  11
TORSDOF 4
ENDMDL
MODEL 6
REMARK VINA RESULT:    -4.605     15.622     17.441
REMARK INTER + INTRA:          -6.395
REMARK INTER:                  -5.565
REMARK INTRA:                  -0.830
REMARK UNBOUND:                -0.714
REMARK  Name = /home/anacleto/Desktop/manuscript_Mpro/naturecomm/supplementary_file_S2/6-chemical-library/molecular_docking/3D_ligand_structure/607.pdb
REMARK  4 active torsions:
REMARK  status: ('A' for Active; 'I' for Inactive)
REMARK    1  A    between atoms: C5_6  and  O2_7
REMARK    2  A    between atoms: O2_7  and  C6_8
REMARK    3  A    between atoms: C6_8  and  C7_10
REMARK    4  A    between atoms: C8_11  and  C9_12
REMARK                            x       y       z     vdW  Elec       q    Type
REMARK                         _______ _______ _______ _____ _____    ______ ____
ROOT
ATOM      1  C6  UNL     1     -38.817  -3.078 -27.167  0.00  0.00    +0.000 C 
ATOM      2  O3  UNL     1     -38.635  -4.227 -27.524  0.00  0.00    +0.000 OA
ENDROOT
BRANCH   1   3
ATOM      3  C7  UNL     1     -38.829  -2.567 -25.778  0.00  0.00    +0.000 C 
ATOM      4  C8  UNL     1     -37.803  -2.565 -24.911  0.00  0.00    +0.000 C 
BRANCH   4   5
ATOM      5  C9  UNL     1     -36.433  -3.027 -25.145  0.00  0.00    +0.000 A 
ATOM      6  C10 UNL     1     -36.110  -4.366 -24.898  0.00  0.00    +0.000 A 
ATOM      7  C11 UNL     1     -34.800  -4.820 -25.074  0.00  0.00    +0.000 A 
ATOM      8  C12 UNL     1     -33.806  -3.938 -25.491  0.00  0.00    +0.000 A 
ATOM      9  C13 UNL     1     -34.118  -2.601 -25.731  0.00  0.00    +0.000 A 
ATOM     10  C14 UNL     1     -35.426  -2.145 -25.554  0.00  0.00    +0.000 A 
ENDBRANCH   4   5
ENDBRANCH   1   3
BRANCH   1  11
ATOM     11  O2  UNL     1     -39.050  -2.019 -27.986  0.00  0.00    +0.000 OA
BRANCH  11  17
ATOM     12  C1  UNL     1     -38.860  -1.320 -30.321  0.00  0.00    +0.000 C 
ATOM     13  O1  UNL     1     -39.436  -0.021 -30.131  0.00  0.00    +0.000 OA
ATOM     14  C2  UNL     1     -38.799   0.797 -29.151  0.00  0.00    +0.000 C 
ATOM     15  C3  UNL     1     -37.306   0.536 -29.051  0.00  0.00    +0.000 C 
ATOM     16  C4  UNL     1     -37.023  -0.909 -28.641  0.00  0.00    +0.000 C 
ATOM     17  C5  UNL     1     -38.128  -1.872 -29.090  0.00  0.00    +0.000 C 
ENDBRANCH  11  17
ENDBRANCH   1  11
TORSDOF 4
ENDMDL
MODEL 7
REMARK VINA RESULT:    -4.553      2.304      4.266
REMARK INTER + INTRA:          -6.331
REMARK INTER:                  -5.067
REMARK INTRA:                  -1.264
REMARK UNBOUND:                -0.714
REMARK  Name = /home/anacleto/Desktop/manuscript_Mpro/naturecomm/supplementary_file_S2/6-chemical-library/molecular_docking/3D_ligand_structure/607.pdb
REMARK  4 active torsions:
REMARK  status: ('A' for Active; 'I' for Inactive)
REMARK    1  A    between atoms: C5_6  and  O2_7
REMARK    2  A    between atoms: O2_7  and  C6_8
REMARK    3  A    between atoms: C6_8  and  C7_10
REMARK    4  A    between atoms: C8_11  and  C9_12
REMARK                            x       y       z     vdW  Elec       q    Type
REMARK                         _______ _______ _______ _____ _____    ______ ____
ROOT
ATOM      1  C6  UNL     1     -27.849   7.172 -39.364  0.00  0.00    +0.000 C 
ATOM      2  O3  UNL     1     -28.181   7.754 -40.380  0.00  0.00    +0.000 OA
ENDROOT
BRANCH   1   3
ATOM      3  C7  UNL     1     -28.701   6.318 -38.507  0.00  0.00    +0.000 C 
ATOM      4  C8  UNL     1     -28.596   4.990 -38.336  0.00  0.00    +0.000 C 
BRANCH   4   5
ATOM      5  C9  UNL     1     -27.601   4.087 -38.919  0.00  0.00    +0.000 A 
ATOM      6  C10 UNL     1     -26.600   3.551 -38.102  0.00  0.00    +0.000 A 
ATOM      7  C11 UNL     1     -25.615   2.721 -38.644  0.00  0.00    +0.000 A 
ATOM      8  C12 UNL     1     -25.621   2.428 -40.006  0.00  0.00    +0.000 A 
ATOM      9  C13 UNL     1     -26.610   2.966 -40.829  0.00  0.00    +0.000 A 
ATOM     10  C14 UNL     1     -27.595   3.797 -40.289  0.00  0.00    +0.000 A 
ENDBRANCH   4   5
ENDBRANCH   1   3
BRANCH   1  11
ATOM     11  O2  UNL     1     -26.610   7.193 -38.804  0.00  0.00    +0.000 OA
BRANCH  11  17
ATOM     12  C1  UNL     1     -24.425   8.285 -38.868  0.00  0.00    +0.000 C 
ATOM     13  O1  UNL     1     -23.807   7.430 -37.897  0.00  0.00    +0.000 OA
ATOM     14  C2  UNL     1     -23.848   6.035 -38.189  0.00  0.00    +0.000 C 
ATOM     15  C3  UNL     1     -23.809   5.749 -39.681  0.00  0.00    +0.000 C 
ATOM     16  C4  UNL     1     -25.012   6.364 -40.394  0.00  0.00    +0.000 C 
ATOM     17  C5  UNL     1     -25.541   7.614 -39.681  0.00  0.00    +0.000 C 
ENDBRANCH  11  17
ENDBRANCH   1  11
TORSDOF 4
ENDMDL
MODEL 8
REMARK VINA RESULT:    -4.519     14.836     17.150
REMARK INTER + INTRA:          -6.290
REMARK INTER:                  -5.690
REMARK INTRA:                  -0.599
REMARK UNBOUND:                -0.714
REMARK  Name = /home/anacleto/Desktop/manuscript_Mpro/naturecomm/supplementary_file_S2/6-chemical-library/molecular_docking/3D_ligand_structure/607.pdb
REMARK  4 active torsions:
REMARK  status: ('A' for Active; 'I' for Inactive)
REMARK    1  A    between atoms: C5_6  and  O2_7
REMARK    2  A    between atoms: O2_7  and  C6_8
REMARK    3  A    between atoms: C6_8  and  C7_10
REMARK    4  A    between atoms: C8_11  and  C9_12
REMARK                            x       y       z     vdW  Elec       q    Type
REMARK                         _______ _______ _______ _____ _____    ______ ____
ROOT
ATOM      1  C6  UNL     1     -22.791  -4.100 -28.110  0.00  0.00    +0.000 C 
ATOM      2  O3  UNL     1     -22.856  -2.973 -28.564  0.00  0.00    +0.000 OA
ENDROOT
BRANCH   1   3
ATOM      3  C7  UNL     1     -23.924  -4.968 -27.713  0.00  0.00    +0.000 C 
ATOM      4  C8  UNL     1     -24.407  -5.145 -26.473  0.00  0.00    +0.000 C 
BRANCH   4   5
ATOM      5  C9  UNL     1     -23.960  -4.498 -25.237  0.00  0.00    +0.000 A 
ATOM      6  C10 UNL     1     -24.536  -3.283 -24.852  0.00  0.00    +0.000 A 
ATOM      7  C11 UNL     1     -24.098  -2.627 -23.699  0.00  0.00    +0.000 A 
ATOM      8  C12 UNL     1     -23.075  -3.178 -22.929  0.00  0.00    +0.000 A 
ATOM      9  C13 UNL     1     -22.489  -4.383 -23.311  0.00  0.00    +0.000 A 
ATOM     10  C14 UNL     1     -22.926  -5.040 -24.464  0.00  0.00    +0.000 A 
ENDBRANCH   4   5
ENDBRANCH   1   3
BRANCH   1  11
ATOM     11  O2  UNL     1     -21.649  -4.797 -27.871  0.00  0.00    +0.000 OA
BRANCH  11  17
ATOM     12  C1  UNL     1     -19.268  -4.352 -27.548  0.00  0.00    +0.000 C 
ATOM     13  O1  UNL     1     -18.928  -5.681 -27.130  0.00  0.00    +0.000 OA
ATOM     14  C2  UNL     1     -19.280  -6.722 -28.039  0.00  0.00    +0.000 C 
ATOM     15  C3  UNL     1     -19.222  -6.275 -29.490  0.00  0.00    +0.000 C 
ATOM     16  C4  UNL     1     -20.202  -5.134 -29.758  0.00  0.00    +0.000 C 
ATOM     17  C5  UNL     1     -20.461  -4.280 -28.511  0.00  0.00    +0.000 C 
ENDBRANCH  11  17
ENDBRANCH   1  11
TORSDOF 4
ENDMDL
MODEL 9
REMARK VINA RESULT:    -4.415      3.599      5.913
REMARK INTER + INTRA:          -6.162
REMARK INTER:                  -5.448
REMARK INTRA:                  -0.714
REMARK UNBOUND:                -0.714
REMARK  Name = /home/anacleto/Desktop/manuscript_Mpro/naturecomm/supplementary_file_S2/6-chemical-library/molecular_docking/3D_ligand_structure/607.pdb
REMARK  4 active torsions:
REMARK  status: ('A' for Active; 'I' for Inactive)
REMARK    1  A    between atoms: C5_6  and  O2_7
REMARK    2  A    between atoms: O2_7  and  C6_8
REMARK    3  A    between atoms: C6_8  and  C7_10
REMARK    4  A    between atoms: C8_11  and  C9_12
REMARK                            x       y       z     vdW  Elec       q    Type
REMARK                         _______ _______ _______ _____ _____    ______ ____
ROOT
ATOM      1  C6  UNL     1     -25.284   7.749 -38.796  0.00  0.00    +0.000 C 
ATOM      2  O3  UNL     1     -26.152   8.299 -38.142  0.00  0.00    +0.000 OA
ENDROOT
BRANCH   1   3
ATOM      3  C7  UNL     1     -25.401   7.236 -40.180  0.00  0.00    +0.000 C 
ATOM      4  C8  UNL     1     -25.746   5.993 -40.551  0.00  0.00    +0.000 C 
BRANCH   4   5
ATOM      5  C9  UNL     1     -26.123   4.872 -39.686  0.00  0.00    +0.000 A 
ATOM      6  C10 UNL     1     -27.426   4.807 -39.179  0.00  0.00    +0.000 A 
ATOM      7  C11 UNL     1     -27.797   3.770 -38.320  0.00  0.00    +0.000 A 
ATOM      8  C12 UNL     1     -26.868   2.797 -37.956  0.00  0.00    +0.000 A 
ATOM      9  C13 UNL     1     -25.565   2.861 -38.449  0.00  0.00    +0.000 A 
ATOM     10  C14 UNL     1     -25.192   3.898 -39.309  0.00  0.00    +0.000 A 
ENDBRANCH   4   5
ENDBRANCH   1   3
BRANCH   1  11
ATOM     11  O2  UNL     1     -24.016   7.492 -38.379  0.00  0.00    +0.000 OA
BRANCH  11  17
ATOM     12  C1  UNL     1     -22.480   9.262 -39.072  0.00  0.00    +0.000 C 
ATOM     13  O1  UNL     1     -21.905   9.471 -37.775  0.00  0.00    +0.000 OA
ATOM     14  C2  UNL     1     -21.336   8.317 -37.161  0.00  0.00    +0.000 C 
ATOM     15  C3  UNL     1     -20.755   7.342 -38.171  0.00  0.00    +0.000 C 
ATOM     16  C4  UNL     1     -21.833   6.824 -39.122  0.00  0.00    +0.000 C 
ATOM     17  C5  UNL     1     -22.973   7.829 -39.320  0.00  0.00    +0.000 C 
ENDBRANCH  11  17
ENDBRANCH   1  11
TORSDOF 4
ENDMDL
