MODEL 1
REMARK VINA RESULT:    -4.994      0.000      0.000
REMARK INTER + INTRA:          -6.318
REMARK INTER:                  -6.048
REMARK INTRA:                  -0.270
REMARK UNBOUND:                -0.449
REMARK  Name = /home/anacleto/Desktop/manuscript_Mpro/naturecomm/supplementary_file_S2/6-chemical-library/molecular_docking/3D_ligand_structure/575.pdb
REMARK  3 active torsions:
REMARK  status: ('A' for Active; 'I' for Inactive)
REMARK    1  A    between atoms: C6_6  and  C7_7
REMARK    2  A    between atoms: C7_7  and  S1_8
REMARK    3  A    between atoms: S1_8  and  N1_11
REMARK                            x       y       z     vdW  Elec       q    Type
REMARK                         _______ _______ _______ _____ _____    ______ ____
ROOT
ATOM      1  S1  UNL     1     -22.689   6.487 -38.577  0.00  0.00    +0.000 S 
ATOM      2  O1  UNL     1     -21.908   6.506 -39.799  0.00  0.00    +0.000 OA
ATOM      3  O2  UNL     1     -22.395   5.551 -37.512  0.00  0.00    +0.000 OA
ENDROOT
BRANCH   1   4
ATOM      4  N1  UNL     1     -22.593   8.058 -37.900  0.00  0.00    +0.000 NA
ATOM      5  C8  UNL     1     -21.381   8.363 -37.096  0.00  0.00    +0.000 C 
ATOM      6  C9  UNL     1     -20.258   9.046 -37.875  0.00  0.00    +0.000 C 
ATOM      7  C10 UNL     1     -20.567  10.451 -38.404  0.00  0.00    +0.000 C 
ATOM      8  N2  UNL     1     -21.699  11.075 -37.736  0.00  0.00    +0.000 NA
ATOM      9  C11 UNL     1     -23.001  10.559 -38.197  0.00  0.00    +0.000 C 
ATOM     10  C12 UNL     1     -23.070   9.140 -38.807  0.00  0.00    +0.000 C 
ATOM     11  H14 UNL     1     -21.677  12.084 -37.876  0.00  0.00    +0.000 HD
ENDBRANCH   1   4
BRANCH   1  12
ATOM     12  C7  UNL     1     -24.435   6.403 -39.013  0.00  0.00    +0.000 C 
BRANCH  12  18
ATOM     13  C1  UNL     1     -24.591   4.620 -40.797  0.00  0.00    +0.000 A 
ATOM     14  C2  UNL     1     -24.902   3.323 -41.209  0.00  0.00    +0.000 A 
ATOM     15  C3  UNL     1     -25.397   2.399 -40.292  0.00  0.00    +0.000 A 
ATOM     16  C4  UNL     1     -25.584   2.770 -38.962  0.00  0.00    +0.000 A 
ATOM     17  C5  UNL     1     -25.273   4.065 -38.547  0.00  0.00    +0.000 A 
ATOM     18  C6  UNL     1     -24.770   5.003 -39.459  0.00  0.00    +0.000 A 
ENDBRANCH  12  18
ENDBRANCH   1  12
TORSDOF 3
ENDMDL
MODEL 2
REMARK VINA RESULT:    -4.951      1.895      2.554
REMARK INTER + INTRA:          -6.268
REMARK INTER:                  -5.973
REMARK INTRA:                  -0.295
REMARK UNBOUND:                -0.449
REMARK  Name = /home/anacleto/Desktop/manuscript_Mpro/naturecomm/supplementary_file_S2/6-chemical-library/molecular_docking/3D_ligand_structure/575.pdb
REMARK  3 active torsions:
REMARK  status: ('A' for Active; 'I' for Inactive)
REMARK    1  A    between atoms: C6_6  and  C7_7
REMARK    2  A    between atoms: C7_7  and  S1_8
REMARK    3  A    between atoms: S1_8  and  N1_11
REMARK                            x       y       z     vdW  Elec       q    Type
REMARK                         _______ _______ _______ _____ _____    ______ ____
ROOT
ATOM      1  S1  UNL     1     -24.407   6.078 -39.123  0.00  0.00    +0.000 S 
ATOM      2  O1  UNL     1     -25.718   6.678 -38.979  0.00  0.00    +0.000 OA
ATOM      3  O2  UNL     1     -23.740   6.029 -40.407  0.00  0.00    +0.000 OA
ENDROOT
BRANCH   1   4
ATOM      4  N1  UNL     1     -23.359   6.906 -38.049  0.00  0.00    +0.000 NA
ATOM      5  C8  UNL     1     -22.042   6.271 -37.782  0.00  0.00    +0.000 C 
ATOM      6  C9  UNL     1     -20.904   6.774 -38.671  0.00  0.00    +0.000 C 
ATOM      7  C10 UNL     1     -20.514   8.245 -38.492  0.00  0.00    +0.000 C 
ATOM      8  N2  UNL     1     -20.984   8.810 -37.237  0.00  0.00    +0.000 NA
ATOM      9  C11 UNL     1     -22.421   9.141 -37.252  0.00  0.00    +0.000 C 
ATOM     10  C12 UNL     1     -23.352   8.385 -38.228  0.00  0.00    +0.000 C 
ATOM     11  H14 UNL     1     -20.456   9.653 -37.011  0.00  0.00    +0.000 HD
ENDBRANCH   1   4
BRANCH   1  12
ATOM     12  C7  UNL     1     -24.440   4.437 -38.379  0.00  0.00    +0.000 C 
BRANCH  12  18
ATOM     13  C1  UNL     1     -26.709   3.414 -37.941  0.00  0.00    +0.000 A 
ATOM     14  C2  UNL     1     -27.851   2.736 -38.371  0.00  0.00    +0.000 A 
ATOM     15  C3  UNL     1     -27.968   2.340 -39.703  0.00  0.00    +0.000 A 
ATOM     16  C4  UNL     1     -26.943   2.620 -40.604  0.00  0.00    +0.000 A 
ATOM     17  C5  UNL     1     -25.801   3.298 -40.177  0.00  0.00    +0.000 A 
ATOM     18  C6  UNL     1     -25.673   3.706 -38.842  0.00  0.00    +0.000 A 
ENDBRANCH  12  18
ENDBRANCH   1  12
TORSDOF 3
ENDMDL
MODEL 3
REMARK VINA RESULT:    -4.811      2.998      6.500
REMARK INTER + INTRA:          -6.103
REMARK INTER:                  -5.848
REMARK INTRA:                  -0.255
REMARK UNBOUND:                -0.449
REMARK  Name = /home/anacleto/Desktop/manuscript_Mpro/naturecomm/supplementary_file_S2/6-chemical-library/molecular_docking/3D_ligand_structure/575.pdb
REMARK  3 active torsions:
REMARK  status: ('A' for Active; 'I' for Inactive)
REMARK    1  A    between atoms: C6_6  and  C7_7
REMARK    2  A    between atoms: C7_7  and  S1_8
REMARK    3  A    between atoms: S1_8  and  N1_11
REMARK                            x       y       z     vdW  Elec       q    Type
REMARK                         _______ _______ _______ _____ _____    ______ ____
ROOT
ATOM      1  S1  UNL     1     -24.866   5.786 -40.103  0.00  0.00    +0.000 S 
ATOM      2  O1  UNL     1     -23.845   5.148 -40.910  0.00  0.00    +0.000 OA
ATOM      3  O2  UNL     1     -25.398   7.086 -40.456  0.00  0.00    +0.000 OA
ENDROOT
BRANCH   1   4
ATOM      4  N1  UNL     1     -26.195   4.707 -40.033  0.00  0.00    +0.000 NA
ATOM      5  C8  UNL     1     -25.881   3.258 -40.140  0.00  0.00    +0.000 C 
ATOM      6  C9  UNL     1     -25.722   2.543 -38.798  0.00  0.00    +0.000 C 
ATOM      7  C10 UNL     1     -26.980   2.463 -37.928  0.00  0.00    +0.000 C 
ATOM      8  N2  UNL     1     -28.206   2.696 -38.676  0.00  0.00    +0.000 NA
ATOM      9  C11 UNL     1     -28.441   4.122 -38.974  0.00  0.00    +0.000 C 
ATOM     10  C12 UNL     1     -27.232   5.083 -39.032  0.00  0.00    +0.000 C 
ATOM     11  H14 UNL     1     -29.007   2.332 -38.162  0.00  0.00    +0.000 HD
ENDBRANCH   1   4
BRANCH   1  12
ATOM     12  C7  UNL     1     -24.326   5.783 -38.384  0.00  0.00    +0.000 C 
BRANCH  12  18
ATOM     13  C1  UNL     1     -23.425   8.098 -37.922  0.00  0.00    +0.000 A 
ATOM     14  C2  UNL     1     -22.365   8.993 -37.771  0.00  0.00    +0.000 A 
ATOM     15  C3  UNL     1     -21.052   8.550 -37.920  0.00  0.00    +0.000 A 
ATOM     16  C4  UNL     1     -20.798   7.214 -38.223  0.00  0.00    +0.000 A 
ATOM     17  C5  UNL     1     -21.856   6.318 -38.373  0.00  0.00    +0.000 A 
ATOM     18  C6  UNL     1     -23.181   6.749 -38.221  0.00  0.00    +0.000 A 
ENDBRANCH  12  18
ENDBRANCH   1  12
TORSDOF 3
ENDMDL
MODEL 4
REMARK VINA RESULT:    -4.540     15.238     16.446
REMARK INTER + INTRA:          -5.784
REMARK INTER:                  -5.524
REMARK INTRA:                  -0.260
REMARK UNBOUND:                -0.449
REMARK  Name = /home/anacleto/Desktop/manuscript_Mpro/naturecomm/supplementary_file_S2/6-chemical-library/molecular_docking/3D_ligand_structure/575.pdb
REMARK  3 active torsions:
REMARK  status: ('A' for Active; 'I' for Inactive)
REMARK    1  A    between atoms: C6_6  and  C7_7
REMARK    2  A    between atoms: C7_7  and  S1_8
REMARK    3  A    between atoms: S1_8  and  N1_11
REMARK                            x       y       z     vdW  Elec       q    Type
REMARK                         _______ _______ _______ _____ _____    ______ ____
ROOT
ATOM      1  S1  UNL     1     -24.018  -4.297 -28.464  0.00  0.00    +0.000 S 
ATOM      2  O1  UNL     1     -23.990  -3.056 -29.214  0.00  0.00    +0.000 OA
ATOM      3  O2  UNL     1     -24.715  -5.462 -28.967  0.00  0.00    +0.000 OA
ENDROOT
BRANCH   1   4
ATOM      4  N1  UNL     1     -22.388  -4.762 -28.209  0.00  0.00    +0.000 NA
ATOM      5  C8  UNL     1     -21.967  -6.059 -28.800  0.00  0.00    +0.000 C 
ATOM      6  C9  UNL     1     -21.318  -5.947 -30.179  0.00  0.00    +0.000 C 
ATOM      7  C10 UNL     1     -19.980  -5.201 -30.232  0.00  0.00    +0.000 C 
ATOM      8  N2  UNL     1     -19.339  -5.089 -28.931  0.00  0.00    +0.000 NA
ATOM      9  C11 UNL     1     -19.942  -4.051 -28.075  0.00  0.00    +0.000 C 
ATOM     10  C12 UNL     1     -21.413  -3.641 -28.319  0.00  0.00    +0.000 C 
ATOM     11  H14 UNL     1     -18.346  -4.885 -29.045  0.00  0.00    +0.000 HD
ENDBRANCH   1   4
BRANCH   1  12
ATOM     12  C7  UNL     1     -24.544  -3.939 -26.779  0.00  0.00    +0.000 C 
BRANCH  12  18
ATOM     13  C1  UNL     1     -25.951  -5.742 -25.706  0.00  0.00    +0.000 A 
ATOM     14  C2  UNL     1     -27.182  -6.357 -25.468  0.00  0.00    +0.000 A 
ATOM     15  C3  UNL     1     -28.342  -5.842 -26.042  0.00  0.00    +0.000 A 
ATOM     16  C4  UNL     1     -28.274  -4.714 -26.857  0.00  0.00    +0.000 A 
ATOM     17  C5  UNL     1     -27.046  -4.098 -27.097  0.00  0.00    +0.000 A 
ATOM     18  C6  UNL     1     -25.872  -4.602 -26.521  0.00  0.00    +0.000 A 
ENDBRANCH  12  18
ENDBRANCH   1  12
TORSDOF 3
ENDMDL
MODEL 5
REMARK VINA RESULT:    -4.518     16.116     17.344
REMARK INTER + INTRA:          -5.759
REMARK INTER:                  -5.443
REMARK INTRA:                  -0.316
REMARK UNBOUND:                -0.449
REMARK  Name = /home/anacleto/Desktop/manuscript_Mpro/naturecomm/supplementary_file_S2/6-chemical-library/molecular_docking/3D_ligand_structure/575.pdb
REMARK  3 active torsions:
REMARK  status: ('A' for Active; 'I' for Inactive)
REMARK    1  A    between atoms: C6_6  and  C7_7
REMARK    2  A    between atoms: C7_7  and  S1_8
REMARK    3  A    between atoms: S1_8  and  N1_11
REMARK                            x       y       z     vdW  Elec       q    Type
REMARK                         _______ _______ _______ _____ _____    ______ ____
ROOT
ATOM      1  S1  UNL     1     -24.098  -5.674 -26.412  0.00  0.00    +0.000 S 
ATOM      2  O1  UNL     1     -23.631  -6.190 -25.140  0.00  0.00    +0.000 OA
ATOM      3  O2  UNL     1     -24.182  -6.524 -27.582  0.00  0.00    +0.000 OA
ENDROOT
BRANCH   1   4
ATOM      4  N1  UNL     1     -25.666  -5.036 -26.146  0.00  0.00    +0.000 NA
ATOM      5  C8  UNL     1     -25.907  -3.647 -26.615  0.00  0.00    +0.000 C 
ATOM      6  C9  UNL     1     -26.520  -3.546 -28.011  0.00  0.00    +0.000 C 
ATOM      7  C10 UNL     1     -27.936  -4.111 -28.163  0.00  0.00    +0.000 C 
ATOM      8  N2  UNL     1     -28.628  -4.265 -26.893  0.00  0.00    +0.000 NA
ATOM      9  C11 UNL     1     -28.184  -5.447 -26.130  0.00  0.00    +0.000 C 
ATOM     10  C12 UNL     1     -26.766  -6.011 -26.384  0.00  0.00    +0.000 C 
ATOM     11  H14 UNL     1     -29.633  -4.333 -27.046  0.00  0.00    +0.000 HD
ENDBRANCH   1   4
BRANCH   1  12
ATOM     12  C7  UNL     1     -23.174  -4.176 -26.798  0.00  0.00    +0.000 C 
BRANCH  12  18
ATOM     13  C1  UNL     1     -20.746  -4.851 -26.615  0.00  0.00    +0.000 A 
ATOM     14  C2  UNL     1     -19.524  -5.197 -27.193  0.00  0.00    +0.000 A 
ATOM     15  C3  UNL     1     -19.396  -5.247 -28.579  0.00  0.00    +0.000 A 
ATOM     16  C4  UNL     1     -20.489  -4.947 -29.390  0.00  0.00    +0.000 A 
ATOM     17  C5  UNL     1     -21.712  -4.600 -28.815  0.00  0.00    +0.000 A 
ATOM     18  C6  UNL     1     -21.855  -4.552 -27.421  0.00  0.00    +0.000 A 
ENDBRANCH  12  18
ENDBRANCH   1  12
TORSDOF 3
ENDMDL
MODEL 6
REMARK VINA RESULT:    -4.461      2.151      3.139
REMARK INTER + INTRA:          -5.691
REMARK INTER:                  -5.393
REMARK INTRA:                  -0.299
REMARK UNBOUND:                -0.449
REMARK  Name = /home/anacleto/Desktop/manuscript_Mpro/naturecomm/supplementary_file_S2/6-chemical-library/molecular_docking/3D_ligand_structure/575.pdb
REMARK  3 active torsions:
REMARK  status: ('A' for Active; 'I' for Inactive)
REMARK    1  A    between atoms: C6_6  and  C7_7
REMARK    2  A    between atoms: C7_7  and  S1_8
REMARK    3  A    between atoms: S1_8  and  N1_11
REMARK                            x       y       z     vdW  Elec       q    Type
REMARK                         _______ _______ _______ _____ _____    ______ ____
ROOT
ATOM      1  S1  UNL     1     -24.991   6.199 -40.188  0.00  0.00    +0.000 S 
ATOM      2  O1  UNL     1     -25.839   6.395 -39.029  0.00  0.00    +0.000 OA
ATOM      3  O2  UNL     1     -25.247   6.893 -41.433  0.00  0.00    +0.000 OA
ENDROOT
BRANCH   1   4
ATOM      4  N1  UNL     1     -23.395   6.602 -39.712  0.00  0.00    +0.000 NA
ATOM      5  C8  UNL     1     -22.937   7.982 -40.021  0.00  0.00    +0.000 C 
ATOM      6  C9  UNL     1     -23.120   8.982 -38.880  0.00  0.00    +0.000 C 
ATOM      7  C10 UNL     1     -22.291   8.720 -37.619  0.00  0.00    +0.000 C 
ATOM      8  N2  UNL     1     -21.166   7.828 -37.853  0.00  0.00    +0.000 NA
ATOM      9  C11 UNL     1     -21.560   6.410 -37.950  0.00  0.00    +0.000 C 
ATOM     10  C12 UNL     1     -23.004   6.063 -38.379  0.00  0.00    +0.000 C 
ATOM     11  H14 UNL     1     -20.478   7.927 -37.107  0.00  0.00    +0.000 HD
ENDBRANCH   1   4
BRANCH   1  12
ATOM     12  C7  UNL     1     -24.827   4.430 -40.488  0.00  0.00    +0.000 C 
BRANCH  12  18
ATOM     13  C1  UNL     1     -27.220   3.685 -40.171  0.00  0.00    +0.000 A 
ATOM     14  C2  UNL     1     -28.207   3.004 -39.456  0.00  0.00    +0.000 A 
ATOM     15  C3  UNL     1     -27.879   2.328 -38.282  0.00  0.00    +0.000 A 
ATOM     16  C4  UNL     1     -26.564   2.335 -37.820  0.00  0.00    +0.000 A 
ATOM     17  C5  UNL     1     -25.576   3.015 -38.533  0.00  0.00    +0.000 A 
ATOM     18  C6  UNL     1     -25.893   3.694 -39.718  0.00  0.00    +0.000 A 
ENDBRANCH  12  18
ENDBRANCH   1  12
TORSDOF 3
ENDMDL
MODEL 7
REMARK VINA RESULT:    -4.409     15.393     16.311
REMARK INTER + INTRA:          -5.631
REMARK INTER:                  -5.317
REMARK INTRA:                  -0.314
REMARK UNBOUND:                -0.449
REMARK  Name = /home/anacleto/Desktop/manuscript_Mpro/naturecomm/supplementary_file_S2/6-chemical-library/molecular_docking/3D_ligand_structure/575.pdb
REMARK  3 active torsions:
REMARK  status: ('A' for Active; 'I' for Inactive)
REMARK    1  A    between atoms: C6_6  and  C7_7
REMARK    2  A    between atoms: C7_7  and  S1_8
REMARK    3  A    between atoms: S1_8  and  N1_11
REMARK                            x       y       z     vdW  Elec       q    Type
REMARK                         _______ _______ _______ _____ _____    ______ ____
ROOT
ATOM      1  S1  UNL     1     -23.635  -5.923 -28.910  0.00  0.00    +0.000 S 
ATOM      2  O1  UNL     1     -24.651  -6.089 -29.931  0.00  0.00    +0.000 OA
ATOM      3  O2  UNL     1     -23.260  -7.019 -28.040  0.00  0.00    +0.000 OA
ENDROOT
BRANCH   1   4
ATOM      4  N1  UNL     1     -22.208  -5.407 -29.705  0.00  0.00    +0.000 NA
ATOM      5  C8  UNL     1     -21.172  -4.759 -28.859  0.00  0.00    +0.000 C 
ATOM      6  C9  UNL     1     -20.086  -5.706 -28.348  0.00  0.00    +0.000 C 
ATOM      7  C10 UNL     1     -19.183  -6.329 -29.418  0.00  0.00    +0.000 C 
ATOM      8  N2  UNL     1     -19.220  -5.610 -30.683  0.00  0.00    +0.000 NA
ATOM      9  C11 UNL     1     -20.433  -5.890 -31.473  0.00  0.00    +0.000 C 
ATOM     10  C12 UNL     1     -21.712  -6.357 -30.740  0.00  0.00    +0.000 C 
ATOM     11  H14 UNL     1     -18.401  -5.845 -31.244  0.00  0.00    +0.000 HD
ENDBRANCH   1   4
BRANCH   1  12
ATOM     12  C7  UNL     1     -24.036  -4.465 -27.932  0.00  0.00    +0.000 C 
BRANCH  12  18
ATOM     13  C1  UNL     1     -26.023  -5.322 -26.628  0.00  0.00    +0.000 A 
ATOM     14  C2  UNL     1     -27.388  -5.324 -26.335  0.00  0.00    +0.000 A 
ATOM     15  C3  UNL     1     -28.251  -4.476 -27.026  0.00  0.00    +0.000 A 
ATOM     16  C4  UNL     1     -27.752  -3.627 -28.011  0.00  0.00    +0.000 A 
ATOM     17  C5  UNL     1     -26.388  -3.623 -28.305  0.00  0.00    +0.000 A 
ATOM     18  C6  UNL     1     -25.508  -4.467 -27.615  0.00  0.00    +0.000 A 
ENDBRANCH  12  18
ENDBRANCH   1  12
TORSDOF 3
ENDMDL
MODEL 8
REMARK VINA RESULT:    -4.385     16.880     19.053
REMARK INTER + INTRA:          -5.602
REMARK INTER:                  -5.176
REMARK INTRA:                  -0.426
REMARK UNBOUND:                -0.449
REMARK  Name = /home/anacleto/Desktop/manuscript_Mpro/naturecomm/supplementary_file_S2/6-chemical-library/molecular_docking/3D_ligand_structure/575.pdb
REMARK  3 active torsions:
REMARK  status: ('A' for Active; 'I' for Inactive)
REMARK    1  A    between atoms: C6_6  and  C7_7
REMARK    2  A    between atoms: C7_7  and  S1_8
REMARK    3  A    between atoms: S1_8  and  N1_11
REMARK                            x       y       z     vdW  Elec       q    Type
REMARK                         _______ _______ _______ _____ _____    ______ ____
ROOT
ATOM      1  S1  UNL     1     -23.850  -5.135 -26.027  0.00  0.00    +0.000 S 
ATOM      2  O1  UNL     1     -23.860  -6.463 -25.446  0.00  0.00    +0.000 OA
ATOM      3  O2  UNL     1     -22.764  -4.697 -26.879  0.00  0.00    +0.000 OA
ENDROOT
BRANCH   1   4
ATOM      4  N1  UNL     1     -25.293  -4.979 -26.938  0.00  0.00    +0.000 NA
ATOM      5  C8  UNL     1     -26.098  -6.214 -27.125  0.00  0.00    +0.000 C 
ATOM      6  C9  UNL     1     -27.218  -6.403 -26.103  0.00  0.00    +0.000 C 
ATOM      7  C10 UNL     1     -28.342  -5.362 -26.140  0.00  0.00    +0.000 C 
ATOM      8  N2  UNL     1     -28.390  -4.620 -27.391  0.00  0.00    +0.000 NA
ATOM      9  C11 UNL     1     -27.353  -3.576 -27.486  0.00  0.00    +0.000 C 
ATOM     10  C12 UNL     1     -26.057  -3.732 -26.656  0.00  0.00    +0.000 C 
ATOM     11  H14 UNL     1     -29.305  -4.185 -27.506  0.00  0.00    +0.000 HD
ENDBRANCH   1   4
BRANCH   1  12
ATOM     12  C7  UNL     1     -24.135  -3.932 -24.717  0.00  0.00    +0.000 C 
BRANCH  12  18
ATOM     13  C1  UNL     1     -25.484  -5.066 -22.906  0.00  0.00    +0.000 A 
ATOM     14  C2  UNL     1     -25.578  -5.730 -21.682  0.00  0.00    +0.000 A 
ATOM     15  C3  UNL     1     -24.429  -5.982 -20.935  0.00  0.00    +0.000 A 
ATOM     16  C4  UNL     1     -23.186  -5.568 -21.408  0.00  0.00    +0.000 A 
ATOM     17  C5  UNL     1     -23.090  -4.905 -22.632  0.00  0.00    +0.000 A 
ATOM     18  C6  UNL     1     -24.237  -4.650 -23.396  0.00  0.00    +0.000 A 
ENDBRANCH  12  18
ENDBRANCH   1  12
TORSDOF 3
ENDMDL
MODEL 9
REMARK VINA RESULT:    -4.336     15.436     17.603
REMARK INTER + INTRA:          -5.545
REMARK INTER:                  -5.097
REMARK INTRA:                  -0.449
REMARK UNBOUND:                -0.449
REMARK  Name = /home/anacleto/Desktop/manuscript_Mpro/naturecomm/supplementary_file_S2/6-chemical-library/molecular_docking/3D_ligand_structure/575.pdb
REMARK  3 active torsions:
REMARK  status: ('A' for Active; 'I' for Inactive)
REMARK    1  A    between atoms: C6_6  and  C7_7
REMARK    2  A    between atoms: C7_7  and  S1_8
REMARK    3  A    between atoms: S1_8  and  N1_11
REMARK                            x       y       z     vdW  Elec       q    Type
REMARK                         _______ _______ _______ _____ _____    ______ ____
ROOT
ATOM      1  S1  UNL     1     -26.275  -4.629 -26.775  0.00  0.00    +0.000 S 
ATOM      2  O1  UNL     1     -25.710  -3.393 -26.268  0.00  0.00    +0.000 OA
ATOM      3  O2  UNL     1     -27.707  -4.843 -26.803  0.00  0.00    +0.000 OA
ENDROOT
BRANCH   1   4
ATOM      4  N1  UNL     1     -25.712  -4.811 -28.383  0.00  0.00    +0.000 NA
ATOM      5  C8  UNL     1     -24.841  -3.728 -28.910  0.00  0.00    +0.000 C 
ATOM      6  C9  UNL     1     -23.342  -3.991 -28.762  0.00  0.00    +0.000 C 
ATOM      7  C10 UNL     1     -22.786  -5.172 -29.564  0.00  0.00    +0.000 C 
ATOM      8  N2  UNL     1     -23.663  -5.588 -30.647  0.00  0.00    +0.000 NA
ATOM      9  C11 UNL     1     -24.819  -6.380 -30.187  0.00  0.00    +0.000 C 
ATOM     10  C12 UNL     1     -25.314  -6.204 -28.732  0.00  0.00    +0.000 C 
ATOM     11  H14 UNL     1     -23.142  -6.135 -31.331  0.00  0.00    +0.000 HD
ENDBRANCH   1   4
BRANCH   1  12
ATOM     12  C7  UNL     1     -25.456  -6.012 -25.961  0.00  0.00    +0.000 C 
BRANCH  12  18
ATOM     13  C1  UNL     1     -23.171  -5.205 -25.247  0.00  0.00    +0.000 A 
ATOM     14  C2  UNL     1     -22.291  -4.716 -24.280  0.00  0.00    +0.000 A 
ATOM     15  C3  UNL     1     -22.734  -4.504 -22.976  0.00  0.00    +0.000 A 
ATOM     16  C4  UNL     1     -24.056  -4.783 -22.636  0.00  0.00    +0.000 A 
ATOM     17  C5  UNL     1     -24.938  -5.271 -23.602  0.00  0.00    +0.000 A 
ATOM     18  C6  UNL     1     -24.506  -5.483 -24.918  0.00  0.00    +0.000 A 
ENDBRANCH  12  18
ENDBRANCH   1  12
TORSDOF 3
ENDMDL
