MODEL 1
REMARK VINA RESULT:    -5.199      0.000      0.000
REMARK INTER + INTRA:          -6.359
REMARK INTER:                  -6.042
REMARK INTRA:                  -0.317
REMARK UNBOUND:                -0.248
REMARK  Name = /home/anacleto/Desktop/manuscript_Mpro/naturecomm/supplementary_file_S2/6-chemical-library/molecular_docking/3D_ligand_structure/720.pdb
REMARK  3 active torsions:
REMARK  status: ('A' for Active; 'I' for Inactive)
REMARK    1  A    between atoms: C4_6  and  N3_7
REMARK    2  A    between atoms: C5_8  and  C6_10
REMARK    3  A    between atoms: C6_10  and  C7_11
REMARK                            x       y       z     vdW  Elec       q    Type
REMARK                         _______ _______ _______ _____ _____    ______ ____
ROOT
ATOM      1  N3  UNL     1      14.732  13.661  -4.170  0.00  0.00    +0.000 N 
ATOM      2  C5  UNL     1      14.965  13.360  -2.841  0.00  0.00    +0.000 C 
ATOM      3  O1  UNL     1      14.956  12.229  -2.362  0.00  0.00    +0.000 OA
ATOM      4  H4  UNL     1      14.738  14.643  -4.428  0.00  0.00    +0.000 HD
ENDROOT
BRANCH   1  10
ATOM      5  C1  UNL     1      13.236  12.034  -5.321  0.00  0.00    +0.000 A 
ATOM      6  N1  UNL     1      12.983  11.164  -6.328  0.00  0.00    +0.000 NA
ATOM      7  C2  UNL     1      13.958  11.017  -7.237  0.00  0.00    +0.000 A 
ATOM      8  N2  UNL     1      15.141  11.648  -7.229  0.00  0.00    +0.000 NA
ATOM      9  C3  UNL     1      15.335  12.502  -6.201  0.00  0.00    +0.000 A 
ATOM     10  C4  UNL     1      14.413  12.747  -5.197  0.00  0.00    +0.000 A 
ENDBRANCH   1  10
BRANCH   2  11
ATOM     11  C6  UNL     1      15.328  14.558  -1.971  0.00  0.00    +0.000 C 
BRANCH  11  12
ATOM     12  C7  UNL     1      14.320  15.685  -1.984  0.00  0.00    +0.000 A 
ATOM     13  C8  UNL     1      14.721  16.989  -2.311  0.00  0.00    +0.000 A 
ATOM     14  C9  UNL     1      13.797  18.034  -2.298  0.00  0.00    +0.000 A 
ATOM     15  C10 UNL     1      12.468  17.788  -1.962  0.00  0.00    +0.000 A 
ATOM     16  C11 UNL     1      12.058  16.494  -1.643  0.00  0.00    +0.000 A 
ATOM     17  C12 UNL     1      12.979  15.446  -1.655  0.00  0.00    +0.000 A 
ENDBRANCH  11  12
ENDBRANCH   2  11
TORSDOF 3
ENDMDL
MODEL 2
REMARK VINA RESULT:    -5.122      3.339      4.311
REMARK INTER + INTRA:          -6.269
REMARK INTER:                  -5.965
REMARK INTRA:                  -0.303
REMARK UNBOUND:                -0.248
REMARK  Name = /home/anacleto/Desktop/manuscript_Mpro/naturecomm/supplementary_file_S2/6-chemical-library/molecular_docking/3D_ligand_structure/720.pdb
REMARK  3 active torsions:
REMARK  status: ('A' for Active; 'I' for Inactive)
REMARK    1  A    between atoms: C4_6  and  N3_7
REMARK    2  A    between atoms: C5_8  and  C6_10
REMARK    3  A    between atoms: C6_10  and  C7_11
REMARK                            x       y       z     vdW  Elec       q    Type
REMARK                         _______ _______ _______ _____ _____    ______ ____
ROOT
ATOM      1  N3  UNL     1      14.982  11.452  -3.301  0.00  0.00    +0.000 N 
ATOM      2  C5  UNL     1      16.020  10.831  -2.630  0.00  0.00    +0.000 C 
ATOM      3  O1  UNL     1      16.859  10.101  -3.152  0.00  0.00    +0.000 OA
ATOM      4  H4  UNL     1      14.340  12.006  -2.742  0.00  0.00    +0.000 HD
ENDROOT
BRANCH   1  10
ATOM      5  C1  UNL     1      15.371  11.925  -5.716  0.00  0.00    +0.000 A 
ATOM      6  N1  UNL     1      15.033  11.784  -7.020  0.00  0.00    +0.000 NA
ATOM      7  C2  UNL     1      13.960  11.020  -7.270  0.00  0.00    +0.000 A 
ATOM      8  N2  UNL     1      13.208  10.398  -6.352  0.00  0.00    +0.000 NA
ATOM      9  C3  UNL     1      13.593  10.576  -5.070  0.00  0.00    +0.000 A 
ATOM     10  C4  UNL     1      14.679  11.338  -4.674  0.00  0.00    +0.000 A 
ENDBRANCH   1  10
BRANCH   2  11
ATOM     11  C6  UNL     1      16.121  11.180  -1.149  0.00  0.00    +0.000 C 
BRANCH  11  12
ATOM     12  C7  UNL     1      17.110  12.274  -0.817  0.00  0.00    +0.000 A 
ATOM     13  C8  UNL     1      16.664  13.581  -0.576  0.00  0.00    +0.000 A 
ATOM     14  C9  UNL     1      17.579  14.597  -0.295  0.00  0.00    +0.000 A 
ATOM     15  C10 UNL     1      18.942  14.317  -0.250  0.00  0.00    +0.000 A 
ATOM     16  C11 UNL     1      19.394  13.018  -0.480  0.00  0.00    +0.000 A 
ATOM     17  C12 UNL     1      18.484  12.000  -0.761  0.00  0.00    +0.000 A 
ENDBRANCH  11  12
ENDBRANCH   2  11
TORSDOF 3
ENDMDL
MODEL 3
REMARK VINA RESULT:    -4.964     16.675     18.219
REMARK INTER + INTRA:          -6.083
REMARK INTER:                  -5.863
REMARK INTRA:                  -0.220
REMARK UNBOUND:                -0.248
REMARK  Name = /home/anacleto/Desktop/manuscript_Mpro/naturecomm/supplementary_file_S2/6-chemical-library/molecular_docking/3D_ligand_structure/720.pdb
REMARK  3 active torsions:
REMARK  status: ('A' for Active; 'I' for Inactive)
REMARK    1  A    between atoms: C4_6  and  N3_7
REMARK    2  A    between atoms: C5_8  and  C6_10
REMARK    3  A    between atoms: C6_10  and  C7_11
REMARK                            x       y       z     vdW  Elec       q    Type
REMARK                         _______ _______ _______ _____ _____    ______ ____
ROOT
ATOM      1  N3  UNL     1      17.806   4.338   8.591  0.00  0.00    +0.000 N 
ATOM      2  C5  UNL     1      17.217   3.091   8.690  0.00  0.00    +0.000 C 
ATOM      3  O1  UNL     1      17.503   2.241   9.529  0.00  0.00    +0.000 OA
ATOM      4  H4  UNL     1      17.497   4.934   7.830  0.00  0.00    +0.000 HD
ENDROOT
BRANCH   1  10
ATOM      5  C1  UNL     1      18.731   5.282  10.703  0.00  0.00    +0.000 A 
ATOM      6  N1  UNL     1      19.766   5.763  11.433  0.00  0.00    +0.000 NA
ATOM      7  C2  UNL     1      20.956   5.795  10.816  0.00  0.00    +0.000 A 
ATOM      8  N2  UNL     1      21.199   5.399   9.558  0.00  0.00    +0.000 NA
ATOM      9  C3  UNL     1      20.129   4.931   8.881  0.00  0.00    +0.000 A 
ATOM     10  C4  UNL     1      18.847   4.843   9.398  0.00  0.00    +0.000 A 
ENDBRANCH   1  10
BRANCH   2  11
ATOM     11  C6  UNL     1      16.083   2.843   7.701  0.00  0.00    +0.000 C 
BRANCH  11  12
ATOM     12  C7  UNL     1      15.256   1.607   7.976  0.00  0.00    +0.000 A 
ATOM     13  C8  UNL     1      15.671   0.357   7.493  0.00  0.00    +0.000 A 
ATOM     14  C9  UNL     1      14.895  -0.780   7.723  0.00  0.00    +0.000 A 
ATOM     15  C10 UNL     1      13.704  -0.681   8.438  0.00  0.00    +0.000 A 
ATOM     16  C11 UNL     1      13.289   0.556   8.930  0.00  0.00    +0.000 A 
ATOM     17  C12 UNL     1      14.060   1.696   8.702  0.00  0.00    +0.000 A 
ENDBRANCH  11  12
ENDBRANCH   2  11
TORSDOF 3
ENDMDL
MODEL 4
REMARK VINA RESULT:    -4.896     15.983     17.840
REMARK INTER + INTRA:          -6.003
REMARK INTER:                  -5.772
REMARK INTRA:                  -0.231
REMARK UNBOUND:                -0.248
REMARK  Name = /home/anacleto/Desktop/manuscript_Mpro/naturecomm/supplementary_file_S2/6-chemical-library/molecular_docking/3D_ligand_structure/720.pdb
REMARK  3 active torsions:
REMARK  status: ('A' for Active; 'I' for Inactive)
REMARK    1  A    between atoms: C4_6  and  N3_7
REMARK    2  A    between atoms: C5_8  and  C6_10
REMARK    3  A    between atoms: C6_10  and  C7_11
REMARK                            x       y       z     vdW  Elec       q    Type
REMARK                         _______ _______ _______ _____ _____    ______ ____
ROOT
ATOM      1  N3  UNL     1      17.998   4.655   8.451  0.00  0.00    +0.000 N 
ATOM      2  C5  UNL     1      17.329   3.894   9.393  0.00  0.00    +0.000 C 
ATOM      3  O1  UNL     1      17.603   3.855  10.590  0.00  0.00    +0.000 OA
ATOM      4  H4  UNL     1      17.688   4.571   7.488  0.00  0.00    +0.000 HD
ENDROOT
BRANCH   1  10
ATOM      5  C1  UNL     1      20.420   5.063   8.870  0.00  0.00    +0.000 A 
ATOM      6  N1  UNL     1      21.459   5.904   9.089  0.00  0.00    +0.000 NA
ATOM      7  C2  UNL     1      21.163   7.211   9.112  0.00  0.00    +0.000 A 
ATOM      8  N2  UNL     1      19.945   7.744   8.941  0.00  0.00    +0.000 NA
ATOM      9  C3  UNL     1      18.949   6.857   8.727  0.00  0.00    +0.000 A 
ATOM     10  C4  UNL     1      19.117   5.483   8.679  0.00  0.00    +0.000 A 
ENDBRANCH   1  10
BRANCH   2  11
ATOM     11  C6  UNL     1      16.125   3.129   8.856  0.00  0.00    +0.000 C 
BRANCH  11  12
ATOM     12  C7  UNL     1      16.411   1.706   8.432  0.00  0.00    +0.000 A 
ATOM     13  C8  UNL     1      17.614   1.086   8.802  0.00  0.00    +0.000 A 
ATOM     14  C9  UNL     1      17.891  -0.218   8.389  0.00  0.00    +0.000 A 
ATOM     15  C10 UNL     1      16.971  -0.914   7.608  0.00  0.00    +0.000 A 
ATOM     16  C11 UNL     1      15.769  -0.309   7.243  0.00  0.00    +0.000 A 
ATOM     17  C12 UNL     1      15.489   0.995   7.653  0.00  0.00    +0.000 A 
ENDBRANCH  11  12
ENDBRANCH   2  11
TORSDOF 3
ENDMDL
MODEL 5
REMARK VINA RESULT:    -4.895      1.684      2.892
REMARK INTER + INTRA:          -6.001
REMARK INTER:                  -5.683
REMARK INTRA:                  -0.318
REMARK UNBOUND:                -0.248
REMARK  Name = /home/anacleto/Desktop/manuscript_Mpro/naturecomm/supplementary_file_S2/6-chemical-library/molecular_docking/3D_ligand_structure/720.pdb
REMARK  3 active torsions:
REMARK  status: ('A' for Active; 'I' for Inactive)
REMARK    1  A    between atoms: C4_6  and  N3_7
REMARK    2  A    between atoms: C5_8  and  C6_10
REMARK    3  A    between atoms: C6_10  and  C7_11
REMARK                            x       y       z     vdW  Elec       q    Type
REMARK                         _______ _______ _______ _____ _____    ______ ____
ROOT
ATOM      1  N3  UNL     1      14.225  14.172  -4.238  0.00  0.00    +0.000 N 
ATOM      2  C5  UNL     1      14.585  14.005  -2.914  0.00  0.00    +0.000 C 
ATOM      3  O1  UNL     1      15.126  13.003  -2.451  0.00  0.00    +0.000 OA
ATOM      4  H4  UNL     1      13.756  15.038  -4.482  0.00  0.00    +0.000 HD
ENDROOT
BRANCH   1  10
ATOM      5  C1  UNL     1      15.414  13.178  -6.190  0.00  0.00    +0.000 A 
ATOM      6  N1  UNL     1      15.509  12.250  -7.172  0.00  0.00    +0.000 NA
ATOM      7  C2  UNL     1      14.520  11.346  -7.225  0.00  0.00    +0.000 A 
ATOM      8  N2  UNL     1      13.464  11.288  -6.402  0.00  0.00    +0.000 NA
ATOM      9  C3  UNL     1      13.424  12.239  -5.443  0.00  0.00    +0.000 A 
ATOM     10  C4  UNL     1      14.377  13.229  -5.277  0.00  0.00    +0.000 A 
ENDBRANCH   1  10
BRANCH   2  11
ATOM     11  C6  UNL     1      14.334  15.220  -2.028  0.00  0.00    +0.000 C 
BRANCH  11  12
ATOM     12  C7  UNL     1      15.579  15.865  -1.462  0.00  0.00    +0.000 A 
ATOM     13  C8  UNL     1      16.054  15.495  -0.196  0.00  0.00    +0.000 A 
ATOM     14  C9  UNL     1      17.188  16.108   0.339  0.00  0.00    +0.000 A 
ATOM     15  C10 UNL     1      17.857  17.092  -0.385  0.00  0.00    +0.000 A 
ATOM     16  C11 UNL     1      17.397  17.461  -1.648  0.00  0.00    +0.000 A 
ATOM     17  C12 UNL     1      16.263  16.851  -2.186  0.00  0.00    +0.000 A 
ENDBRANCH  11  12
ENDBRANCH   2  11
TORSDOF 3
ENDMDL
MODEL 6
REMARK VINA RESULT:    -4.797      3.058      6.407
REMARK INTER + INTRA:          -5.887
REMARK INTER:                  -5.505
REMARK INTRA:                  -0.382
REMARK UNBOUND:                -0.248
REMARK  Name = /home/anacleto/Desktop/manuscript_Mpro/naturecomm/supplementary_file_S2/6-chemical-library/molecular_docking/3D_ligand_structure/720.pdb
REMARK  3 active torsions:
REMARK  status: ('A' for Active; 'I' for Inactive)
REMARK    1  A    between atoms: C4_6  and  N3_7
REMARK    2  A    between atoms: C5_8  and  C6_10
REMARK    3  A    between atoms: C6_10  and  C7_11
REMARK                            x       y       z     vdW  Elec       q    Type
REMARK                         _______ _______ _______ _____ _____    ______ ____
ROOT
ATOM      1  N3  UNL     1      16.796  12.815  -2.476  0.00  0.00    +0.000 N 
ATOM      2  C5  UNL     1      16.329  11.532  -2.258  0.00  0.00    +0.000 C 
ATOM      3  O1  UNL     1      15.769  11.151  -1.233  0.00  0.00    +0.000 OA
ATOM      4  H4  UNL     1      17.270  12.988  -3.357  0.00  0.00    +0.000 HD
ENDROOT
BRANCH   1  10
ATOM      5  C1  UNL     1      15.711  14.795  -1.425  0.00  0.00    +0.000 A 
ATOM      6  N1  UNL     1      15.718  15.819  -0.537  0.00  0.00    +0.000 NA
ATOM      7  C2  UNL     1      16.813  15.925   0.229  0.00  0.00    +0.000 A 
ATOM      8  N2  UNL     1      17.883  15.118   0.186  0.00  0.00    +0.000 NA
ATOM      9  C3  UNL     1      17.818  14.117  -0.718  0.00  0.00    +0.000 A 
ATOM     10  C4  UNL     1      16.748  13.894  -1.569  0.00  0.00    +0.000 A 
ENDBRANCH   1  10
BRANCH   2  11
ATOM     11  C6  UNL     1      16.484  10.587  -3.445  0.00  0.00    +0.000 C 
BRANCH  11  12
ATOM     12  C7  UNL     1      15.663  10.950  -4.661  0.00  0.00    +0.000 A 
ATOM     13  C8  UNL     1      14.262  10.913  -4.605  0.00  0.00    +0.000 A 
ATOM     14  C9  UNL     1      13.503  11.221  -5.734  0.00  0.00    +0.000 A 
ATOM     15  C10 UNL     1      14.133  11.572  -6.925  0.00  0.00    +0.000 A 
ATOM     16  C11 UNL     1      15.525  11.620  -6.988  0.00  0.00    +0.000 A 
ATOM     17  C12 UNL     1      16.288  11.311  -5.862  0.00  0.00    +0.000 A 
ENDBRANCH  11  12
ENDBRANCH   2  11
TORSDOF 3
ENDMDL
MODEL 7
REMARK VINA RESULT:    -4.723      5.064      6.852
REMARK INTER + INTRA:          -5.799
REMARK INTER:                  -5.476
REMARK INTRA:                  -0.323
REMARK UNBOUND:                -0.248
REMARK  Name = /home/anacleto/Desktop/manuscript_Mpro/naturecomm/supplementary_file_S2/6-chemical-library/molecular_docking/3D_ligand_structure/720.pdb
REMARK  3 active torsions:
REMARK  status: ('A' for Active; 'I' for Inactive)
REMARK    1  A    between atoms: C4_6  and  N3_7
REMARK    2  A    between atoms: C5_8  and  C6_10
REMARK    3  A    between atoms: C6_10  and  C7_11
REMARK                            x       y       z     vdW  Elec       q    Type
REMARK                         _______ _______ _______ _____ _____    ______ ____
ROOT
ATOM      1  N3  UNL     1      18.599   9.900  -5.654  0.00  0.00    +0.000 N 
ATOM      2  C5  UNL     1      18.328  11.253  -5.571  0.00  0.00    +0.000 C 
ATOM      3  O1  UNL     1      18.928  12.131  -6.186  0.00  0.00    +0.000 OA
ATOM      4  H4  UNL     1      18.046   9.283  -5.066  0.00  0.00    +0.000 HD
ENDROOT
BRANCH   1  10
ATOM      5  C1  UNL     1      20.887   8.970  -5.982  0.00  0.00    +0.000 A 
ATOM      6  N1  UNL     1      21.828   8.388  -6.763  0.00  0.00    +0.000 NA
ATOM      7  C2  UNL     1      21.463   8.121  -8.025  0.00  0.00    +0.000 A 
ATOM      8  N2  UNL     1      20.265   8.381  -8.567  0.00  0.00    +0.000 NA
ATOM      9  C3  UNL     1      19.369   8.962  -7.742  0.00  0.00    +0.000 A 
ATOM     10  C4  UNL     1      19.615   9.291  -6.419  0.00  0.00    +0.000 A 
ENDBRANCH   1  10
BRANCH   2  11
ATOM     11  C6  UNL     1      17.135  11.611  -4.691  0.00  0.00    +0.000 C 
BRANCH  11  12
ATOM     12  C7  UNL     1      15.782  11.360  -5.317  0.00  0.00    +0.000 A 
ATOM     13  C8  UNL     1      14.705  10.933  -4.527  0.00  0.00    +0.000 A 
ATOM     14  C9  UNL     1      13.463  10.676  -5.108  0.00  0.00    +0.000 A 
ATOM     15  C10 UNL     1      13.284  10.844  -6.479  0.00  0.00    +0.000 A 
ATOM     16  C11 UNL     1      14.347  11.276  -7.271  0.00  0.00    +0.000 A 
ATOM     17  C12 UNL     1      15.591  11.534  -6.695  0.00  0.00    +0.000 A 
ENDBRANCH  11  12
ENDBRANCH   2  11
TORSDOF 3
ENDMDL
MODEL 8
REMARK VINA RESULT:    -4.582     16.556     17.421
REMARK INTER + INTRA:          -5.633
REMARK INTER:                  -5.297
REMARK INTRA:                  -0.336
REMARK UNBOUND:                -0.248
REMARK  Name = /home/anacleto/Desktop/manuscript_Mpro/naturecomm/supplementary_file_S2/6-chemical-library/molecular_docking/3D_ligand_structure/720.pdb
REMARK  3 active torsions:
REMARK  status: ('A' for Active; 'I' for Inactive)
REMARK    1  A    between atoms: C4_6  and  N3_7
REMARK    2  A    between atoms: C5_8  and  C6_10
REMARK    3  A    between atoms: C6_10  and  C7_11
REMARK                            x       y       z     vdW  Elec       q    Type
REMARK                         _______ _______ _______ _____ _____    ______ ____
ROOT
ATOM      1  N3  UNL     1      17.247   4.208   8.705  0.00  0.00    +0.000 N 
ATOM      2  C5  UNL     1      18.552   4.213   9.163  0.00  0.00    +0.000 C 
ATOM      3  O1  UNL     1      19.138   3.242   9.635  0.00  0.00    +0.000 OA
ATOM      4  H4  UNL     1      16.874   5.090   8.368  0.00  0.00    +0.000 HD
ENDROOT
BRANCH   1  10
ATOM      5  C1  UNL     1      15.495   2.781   9.754  0.00  0.00    +0.000 A 
ATOM      6  N1  UNL     1      14.657   1.717   9.723  0.00  0.00    +0.000 NA
ATOM      7  C2  UNL     1      14.694   0.974   8.607  0.00  0.00    +0.000 A 
ATOM      8  N2  UNL     1      15.478   1.193   7.542  0.00  0.00    +0.000 NA
ATOM      9  C3  UNL     1      16.291   2.267   7.633  0.00  0.00    +0.000 A 
ATOM     10  C4  UNL     1      16.353   3.117   8.725  0.00  0.00    +0.000 A 
ENDBRANCH   1  10
BRANCH   2  11
ATOM     11  C6  UNL     1      19.288   5.534   8.972  0.00  0.00    +0.000 C 
BRANCH  11  12
ATOM     12  C7  UNL     1      19.723   6.214  10.251  0.00  0.00    +0.000 A 
ATOM     13  C8  UNL     1      21.052   6.118  10.687  0.00  0.00    +0.000 A 
ATOM     14  C9  UNL     1      21.448   6.722  11.880  0.00  0.00    +0.000 A 
ATOM     15  C10 UNL     1      20.524   7.428  12.647  0.00  0.00    +0.000 A 
ATOM     16  C11 UNL     1      19.202   7.535  12.218  0.00  0.00    +0.000 A 
ATOM     17  C12 UNL     1      18.801   6.932  11.025  0.00  0.00    +0.000 A 
ENDBRANCH  11  12
ENDBRANCH   2  11
TORSDOF 3
ENDMDL
MODEL 9
REMARK VINA RESULT:    -4.484      3.875      6.862
REMARK INTER + INTRA:          -5.518
REMARK INTER:                  -5.270
REMARK INTRA:                  -0.248
REMARK UNBOUND:                -0.248
REMARK  Name = /home/anacleto/Desktop/manuscript_Mpro/naturecomm/supplementary_file_S2/6-chemical-library/molecular_docking/3D_ligand_structure/720.pdb
REMARK  3 active torsions:
REMARK  status: ('A' for Active; 'I' for Inactive)
REMARK    1  A    between atoms: C4_6  and  N3_7
REMARK    2  A    between atoms: C5_8  and  C6_10
REMARK    3  A    between atoms: C6_10  and  C7_11
REMARK                            x       y       z     vdW  Elec       q    Type
REMARK                         _______ _______ _______ _____ _____    ______ ____
ROOT
ATOM      1  N3  UNL     1      17.380  12.798  -1.462  0.00  0.00    +0.000 N 
ATOM      2  C5  UNL     1      17.160  12.767  -2.826  0.00  0.00    +0.000 C 
ATOM      3  O1  UNL     1      17.197  13.744  -3.569  0.00  0.00    +0.000 OA
ATOM      4  H4  UNL     1      17.287  11.920  -0.960  0.00  0.00    +0.000 HD
ENDROOT
BRANCH   1  10
ATOM      5  C1  UNL     1      18.894  14.364  -0.253  0.00  0.00    +0.000 A 
ATOM      6  N1  UNL     1      19.096  15.470   0.503  0.00  0.00    +0.000 NA
ATOM      7  C2  UNL     1      17.999  16.167   0.832  0.00  0.00    +0.000 A 
ATOM      8  N2  UNL     1      16.741  15.862   0.482  0.00  0.00    +0.000 NA
ATOM      9  C3  UNL     1      16.602  14.749  -0.270  0.00  0.00    +0.000 A 
ATOM     10  C4  UNL     1      17.650  13.940  -0.679  0.00  0.00    +0.000 A 
ENDBRANCH   1  10
BRANCH   2  11
ATOM     11  C6  UNL     1      16.932  11.374  -3.403  0.00  0.00    +0.000 C 
BRANCH  11  12
ATOM     12  C7  UNL     1      15.924  11.305  -4.528  0.00  0.00    +0.000 A 
ATOM     13  C8  UNL     1      16.340  11.451  -5.859  0.00  0.00    +0.000 A 
ATOM     14  C9  UNL     1      15.407  11.415  -6.896  0.00  0.00    +0.000 A 
ATOM     15  C10 UNL     1      14.056  11.231  -6.615  0.00  0.00    +0.000 A 
ATOM     16  C11 UNL     1      13.634  11.076  -5.295  0.00  0.00    +0.000 A 
ATOM     17  C12 UNL     1      14.563  11.112  -4.255  0.00  0.00    +0.000 A 
ENDBRANCH  11  12
ENDBRANCH   2  11
TORSDOF 3
ENDMDL
