MODEL 1
REMARK VINA RESULT:    -5.629      0.000      0.000
REMARK INTER + INTRA:          -8.281
REMARK INTER:                  -7.136
REMARK INTRA:                  -1.145
REMARK UNBOUND:                -0.679
REMARK  Name = /home/anacleto/Desktop/manuscript_Mpro/naturecomm/supplementary_file_S2/6-chemical-library/molecular_docking/3D_ligand_structure/462.pdb
REMARK  6 active torsions:
REMARK  status: ('A' for Active; 'I' for Inactive)
REMARK    1  A    between atoms: C7_7  and  N1_8
REMARK    2  A    between atoms: N1_8  and  C8_9
REMARK    3  A    between atoms: C8_9  and  C9_10
REMARK    4  A    between atoms: N2_12  and  C10_13
REMARK    5  A    between atoms: C10_13  and  C11_14
REMARK    6  A    between atoms: C11_14  and  C12_15
REMARK                            x       y       z     vdW  Elec       q    Type
REMARK                         _______ _______ _______ _____ _____    ______ ____
ROOT
ATOM      1  C9  UNL     1      23.119   6.219  12.580  0.00  0.00    +0.000 C 
ATOM      2  O1  UNL     1      24.285   6.453  12.266  0.00  0.00    +0.000 OA
ATOM      3  N2  UNL     1      22.318   5.358  11.861  0.00  0.00    +0.000 N 
ATOM      4  H17 UNL     1      21.475   5.030  12.307  0.00  0.00    +0.000 HD
ENDROOT
BRANCH   1   5
ATOM      5  C8  UNL     1      22.454   6.935  13.766  0.00  0.00    +0.000 C 
BRANCH   5   6
ATOM      6  N1  UNL     1      21.664   8.130  13.410  0.00  0.00    +0.000 NA
ATOM      7  H14 UNL     1      21.871   8.424  12.460  0.00  0.00    +0.000 HD
BRANCH   6  14
ATOM      8  C1  UNL     1      20.073   7.198  14.989  0.00  0.00    +0.000 C 
ATOM      9  C2  UNL     1      18.636   6.933  15.438  0.00  0.00    +0.000 C 
ATOM     10  C3  UNL     1      17.938   5.876  14.590  0.00  0.00    +0.000 C 
ATOM     11  C4  UNL     1      17.268   6.400  13.326  0.00  0.00    +0.000 C 
ATOM     12  C5  UNL     1      17.975   7.530  12.584  0.00  0.00    +0.000 C 
ATOM     13  C6  UNL     1      19.495   7.400  12.492  0.00  0.00    +0.000 C 
ATOM     14  C7  UNL     1      20.224   8.024  13.697  0.00  0.00    +0.000 C 
ENDBRANCH   6  14
ENDBRANCH   5   6
ENDBRANCH   1   5
BRANCH   3  15
ATOM     15  C10 UNL     1      22.850   4.572  10.761  0.00  0.00    +0.000 C 
BRANCH  15  16
ATOM     16  C11 UNL     1      22.822   5.330   9.432  0.00  0.00    +0.000 C 
BRANCH  16  17
ATOM     17  C12 UNL     1      21.462   5.924   9.162  0.00  0.00    +0.000 A 
ATOM     18  C13 UNL     1      20.364   5.099   8.881  0.00  0.00    +0.000 A 
ATOM     19  C14 UNL     1      19.114   5.657   8.612  0.00  0.00    +0.000 A 
ATOM     20  C15 UNL     1      18.950   7.042   8.619  0.00  0.00    +0.000 A 
ATOM     21  C16 UNL     1      20.036   7.870   8.893  0.00  0.00    +0.000 A 
ATOM     22  C17 UNL     1      21.288   7.314   9.162  0.00  0.00    +0.000 A 
ENDBRANCH  16  17
ENDBRANCH  15  16
ENDBRANCH   3  15
TORSDOF 6
ENDMDL
MODEL 2
REMARK VINA RESULT:    -5.476     14.318     17.156
REMARK INTER + INTRA:          -8.075
REMARK INTER:                  -7.559
REMARK INTRA:                  -0.516
REMARK UNBOUND:                -0.679
REMARK  Name = /home/anacleto/Desktop/manuscript_Mpro/naturecomm/supplementary_file_S2/6-chemical-library/molecular_docking/3D_ligand_structure/462.pdb
REMARK  6 active torsions:
REMARK  status: ('A' for Active; 'I' for Inactive)
REMARK    1  A    between atoms: C7_7  and  N1_8
REMARK    2  A    between atoms: N1_8  and  C8_9
REMARK    3  A    between atoms: C8_9  and  C9_10
REMARK    4  A    between atoms: N2_12  and  C10_13
REMARK    5  A    between atoms: C10_13  and  C11_14
REMARK    6  A    between atoms: C11_14  and  C12_15
REMARK                            x       y       z     vdW  Elec       q    Type
REMARK                         _______ _______ _______ _____ _____    ______ ____
ROOT
ATOM      1  C9  UNL     1      17.360  11.317  -1.713  0.00  0.00    +0.000 C 
ATOM      2  O1  UNL     1      18.422  11.108  -1.128  0.00  0.00    +0.000 OA
ATOM      3  N2  UNL     1      16.513  12.347  -1.361  0.00  0.00    +0.000 N 
ATOM      4  H17 UNL     1      15.799  12.604  -2.026  0.00  0.00    +0.000 HD
ENDROOT
BRANCH   1   5
ATOM      5  C8  UNL     1      16.873  10.390  -2.837  0.00  0.00    +0.000 C 
BRANCH   5   6
ATOM      6  N1  UNL     1      15.414  10.392  -3.060  0.00  0.00    +0.000 NA
ATOM      7  H14 UNL     1      14.923  10.635  -2.203  0.00  0.00    +0.000 HD
BRANCH   6  14
ATOM      8  C1  UNL     1      13.639  10.546  -4.708  0.00  0.00    +0.000 C 
ATOM      9  C2  UNL     1      13.029  11.179  -5.959  0.00  0.00    +0.000 C 
ATOM     10  C3  UNL     1      13.756  10.777  -7.237  0.00  0.00    +0.000 C 
ATOM     11  C4  UNL     1      14.962  11.638  -7.594  0.00  0.00    +0.000 C 
ATOM     12  C5  UNL     1      15.818  12.143  -6.438  0.00  0.00    +0.000 C 
ATOM     13  C6  UNL     1      16.067  11.133  -5.318  0.00  0.00    +0.000 C 
ATOM     14  C7  UNL     1      14.971  11.159  -4.235  0.00  0.00    +0.000 C 
ENDBRANCH   6  14
ENDBRANCH   5   6
ENDBRANCH   1   5
BRANCH   3  15
ATOM     15  C10 UNL     1      16.892  13.329  -0.361  0.00  0.00    +0.000 C 
BRANCH  15  16
ATOM     16  C11 UNL     1      17.230  14.690  -0.975  0.00  0.00    +0.000 C 
BRANCH  16  17
ATOM     17  C12 UNL     1      18.548  15.215  -0.466  0.00  0.00    +0.000 A 
ATOM     18  C13 UNL     1      19.440  14.372   0.211  0.00  0.00    +0.000 A 
ATOM     19  C14 UNL     1      20.649  14.870   0.699  0.00  0.00    +0.000 A 
ATOM     20  C15 UNL     1      20.976  16.213   0.517  0.00  0.00    +0.000 A 
ATOM     21  C16 UNL     1      20.094  17.061  -0.151  0.00  0.00    +0.000 A 
ATOM     22  C17 UNL     1      18.884  16.564  -0.639  0.00  0.00    +0.000 A 
ENDBRANCH  16  17
ENDBRANCH  15  16
ENDBRANCH   3  15
TORSDOF 6
ENDMDL
MODEL 3
REMARK VINA RESULT:    -5.428      4.803      7.111
REMARK INTER + INTRA:          -8.011
REMARK INTER:                  -7.446
REMARK INTRA:                  -0.565
REMARK UNBOUND:                -0.679
REMARK  Name = /home/anacleto/Desktop/manuscript_Mpro/naturecomm/supplementary_file_S2/6-chemical-library/molecular_docking/3D_ligand_structure/462.pdb
REMARK  6 active torsions:
REMARK  status: ('A' for Active; 'I' for Inactive)
REMARK    1  A    between atoms: C7_7  and  N1_8
REMARK    2  A    between atoms: N1_8  and  C8_9
REMARK    3  A    between atoms: C8_9  and  C9_10
REMARK    4  A    between atoms: N2_12  and  C10_13
REMARK    5  A    between atoms: C10_13  and  C11_14
REMARK    6  A    between atoms: C11_14  and  C12_15
REMARK                            x       y       z     vdW  Elec       q    Type
REMARK                         _______ _______ _______ _____ _____    ______ ____
ROOT
ATOM      1  C9  UNL     1      18.407   4.183   8.992  0.00  0.00    +0.000 C 
ATOM      2  O1  UNL     1      19.461   3.760   9.465  0.00  0.00    +0.000 OA
ATOM      3  N2  UNL     1      18.327   5.390   8.330  0.00  0.00    +0.000 N 
ATOM      4  H17 UNL     1      17.506   5.553   7.766  0.00  0.00    +0.000 HD
ENDROOT
BRANCH   1   5
ATOM      5  C8  UNL     1      17.088   3.417   9.173  0.00  0.00    +0.000 C 
BRANCH   5   6
ATOM      6  N1  UNL     1      16.266   3.292   7.952  0.00  0.00    +0.000 NA
ATOM      7  H14 UNL     1      16.723   3.748   7.167  0.00  0.00    +0.000 HD
BRANCH   6  14
ATOM      8  C1  UNL     1      14.499   1.703   8.447  0.00  0.00    +0.000 C 
ATOM      9  C2  UNL     1      13.876   0.314   8.311  0.00  0.00    +0.000 C 
ATOM     10  C3  UNL     1      14.626  -0.750   9.105  0.00  0.00    +0.000 C 
ATOM     11  C4  UNL     1      15.802  -1.390   8.376  0.00  0.00    +0.000 C 
ATOM     12  C5  UNL     1      16.630  -0.487   7.469  0.00  0.00    +0.000 C 
ATOM     13  C6  UNL     1      16.908   0.913   8.017  0.00  0.00    +0.000 C 
ATOM     14  C7  UNL     1      15.804   1.926   7.658  0.00  0.00    +0.000 C 
ENDBRANCH   6  14
ENDBRANCH   5   6
ENDBRANCH   1   5
BRANCH   3  15
ATOM     15  C10 UNL     1      19.514   6.172   8.037  0.00  0.00    +0.000 C 
BRANCH  15  16
ATOM     16  C11 UNL     1      19.551   7.493   8.811  0.00  0.00    +0.000 C 
BRANCH  16  17
ATOM     17  C12 UNL     1      19.935   7.279  10.253  0.00  0.00    +0.000 A 
ATOM     18  C13 UNL     1      21.231   6.868  10.594  0.00  0.00    +0.000 A 
ATOM     19  C14 UNL     1      21.573   6.651  11.930  0.00  0.00    +0.000 A 
ATOM     20  C15 UNL     1      20.625   6.840  12.934  0.00  0.00    +0.000 A 
ATOM     21  C16 UNL     1      19.333   7.245  12.605  0.00  0.00    +0.000 A 
ATOM     22  C17 UNL     1      18.988   7.462  11.270  0.00  0.00    +0.000 A 
ENDBRANCH  16  17
ENDBRANCH  15  16
ENDBRANCH   3  15
TORSDOF 6
ENDMDL
MODEL 4
REMARK VINA RESULT:    -5.394      5.867      7.735
REMARK INTER + INTRA:          -7.965
REMARK INTER:                  -7.422
REMARK INTRA:                  -0.544
REMARK UNBOUND:                -0.679
REMARK  Name = /home/anacleto/Desktop/manuscript_Mpro/naturecomm/supplementary_file_S2/6-chemical-library/molecular_docking/3D_ligand_structure/462.pdb
REMARK  6 active torsions:
REMARK  status: ('A' for Active; 'I' for Inactive)
REMARK    1  A    between atoms: C7_7  and  N1_8
REMARK    2  A    between atoms: N1_8  and  C8_9
REMARK    3  A    between atoms: C8_9  and  C9_10
REMARK    4  A    between atoms: N2_12  and  C10_13
REMARK    5  A    between atoms: C10_13  and  C11_14
REMARK    6  A    between atoms: C11_14  and  C12_15
REMARK                            x       y       z     vdW  Elec       q    Type
REMARK                         _______ _______ _______ _____ _____    ______ ____
ROOT
ATOM      1  C9  UNL     1      18.233   0.749   9.287  0.00  0.00    +0.000 C 
ATOM      2  O1  UNL     1      18.847   0.241  10.224  0.00  0.00    +0.000 OA
ATOM      3  N2  UNL     1      18.096   2.114   9.146  0.00  0.00    +0.000 N 
ATOM      4  H17 UNL     1      17.801   2.457   8.244  0.00  0.00    +0.000 HD
ENDROOT
BRANCH   1   5
ATOM      5  C8  UNL     1      17.512  -0.118   8.243  0.00  0.00    +0.000 C 
BRANCH   5   6
ATOM      6  N1  UNL     1      16.660   0.626   7.295  0.00  0.00    +0.000 NA
ATOM      7  H14 UNL     1      17.011   0.527   6.347  0.00  0.00    +0.000 HD
BRANCH   6  14
ATOM      8  C1  UNL     1      14.598   1.548   8.184  0.00  0.00    +0.000 C 
ATOM      9  C2  UNL     1      13.099   1.443   8.463  0.00  0.00    +0.000 C 
ATOM     10  C3  UNL     1      12.775   0.460   9.582  0.00  0.00    +0.000 C 
ATOM     11  C4  UNL     1      12.624  -0.992   9.144  0.00  0.00    +0.000 C 
ATOM     12  C5  UNL     1      13.552  -1.481   8.037  0.00  0.00    +0.000 C 
ATOM     13  C6  UNL     1      14.997  -0.991   8.131  0.00  0.00    +0.000 C 
ATOM     14  C7  UNL     1      15.218   0.360   7.424  0.00  0.00    +0.000 C 
ENDBRANCH   6  14
ENDBRANCH   5   6
ENDBRANCH   1   5
BRANCH   3  15
ATOM     15  C10 UNL     1      18.786   3.038  10.028  0.00  0.00    +0.000 C 
BRANCH  15  16
ATOM     16  C11 UNL     1      20.114   3.525   9.443  0.00  0.00    +0.000 C 
BRANCH  16  17
ATOM     17  C12 UNL     1      20.106   5.016   9.219  0.00  0.00    +0.000 A 
ATOM     18  C13 UNL     1      21.267   5.776   9.414  0.00  0.00    +0.000 A 
ATOM     19  C14 UNL     1      21.246   7.159   9.226  0.00  0.00    +0.000 A 
ATOM     20  C15 UNL     1      20.066   7.794   8.843  0.00  0.00    +0.000 A 
ATOM     21  C16 UNL     1      18.904   7.048   8.649  0.00  0.00    +0.000 A 
ATOM     22  C17 UNL     1      18.923   5.665   8.838  0.00  0.00    +0.000 A 
ENDBRANCH  16  17
ENDBRANCH  15  16
ENDBRANCH   3  15
TORSDOF 6
ENDMDL
MODEL 5
REMARK VINA RESULT:    -5.390      3.111      4.228
REMARK INTER + INTRA:          -7.959
REMARK INTER:                  -6.679
REMARK INTRA:                  -1.280
REMARK UNBOUND:                -0.679
REMARK  Name = /home/anacleto/Desktop/manuscript_Mpro/naturecomm/supplementary_file_S2/6-chemical-library/molecular_docking/3D_ligand_structure/462.pdb
REMARK  6 active torsions:
REMARK  status: ('A' for Active; 'I' for Inactive)
REMARK    1  A    between atoms: C7_7  and  N1_8
REMARK    2  A    between atoms: N1_8  and  C8_9
REMARK    3  A    between atoms: C8_9  and  C9_10
REMARK    4  A    between atoms: N2_12  and  C10_13
REMARK    5  A    between atoms: C10_13  and  C11_14
REMARK    6  A    between atoms: C11_14  and  C12_15
REMARK                            x       y       z     vdW  Elec       q    Type
REMARK                         _______ _______ _______ _____ _____    ______ ____
ROOT
ATOM      1  C9  UNL     1      16.465   3.453  11.186  0.00  0.00    +0.000 C 
ATOM      2  O1  UNL     1      15.578   3.280  10.351  0.00  0.00    +0.000 OA
ATOM      3  N2  UNL     1      17.805   3.369  10.869  0.00  0.00    +0.000 N 
ATOM      4  H17 UNL     1      18.460   3.757  11.530  0.00  0.00    +0.000 HD
ENDROOT
BRANCH   1   5
ATOM      5  C8  UNL     1      16.130   3.706  12.664  0.00  0.00    +0.000 C 
BRANCH   5   6
ATOM      6  N1  UNL     1      16.197   5.119  13.086  0.00  0.00    +0.000 NA
ATOM      7  H14 UNL     1      15.459   5.326  13.753  0.00  0.00    +0.000 HD
BRANCH   6  14
ATOM      8  C1  UNL     1      17.359   6.283  14.870  0.00  0.00    +0.000 C 
ATOM      9  C2  UNL     1      18.635   6.873  15.471  0.00  0.00    +0.000 C 
ATOM     10  C3  UNL     1      19.080   8.152  14.770  0.00  0.00    +0.000 C 
ATOM     11  C4  UNL     1      19.956   7.943  13.541  0.00  0.00    +0.000 C 
ATOM     12  C5  UNL     1      19.635   6.742  12.657  0.00  0.00    +0.000 C 
ATOM     13  C6  UNL     1      18.148   6.476  12.431  0.00  0.00    +0.000 C 
ATOM     14  C7  UNL     1      17.530   5.572  13.514  0.00  0.00    +0.000 C 
ENDBRANCH   6  14
ENDBRANCH   5   6
ENDBRANCH   1   5
BRANCH   3  15
ATOM     15  C10 UNL     1      18.248   3.201   9.497  0.00  0.00    +0.000 C 
BRANCH  15  16
ATOM     16  C11 UNL     1      19.731   3.533   9.316  0.00  0.00    +0.000 C 
BRANCH  16  17
ATOM     17  C12 UNL     1      19.952   5.018   9.177  0.00  0.00    +0.000 A 
ATOM     18  C13 UNL     1      18.939   5.849   8.681  0.00  0.00    +0.000 A 
ATOM     19  C14 UNL     1      19.158   7.220   8.536  0.00  0.00    +0.000 A 
ATOM     20  C15 UNL     1      20.391   7.771   8.882  0.00  0.00    +0.000 A 
ATOM     21  C16 UNL     1      21.407   6.953   9.372  0.00  0.00    +0.000 A 
ATOM     22  C17 UNL     1      21.190   5.582   9.518  0.00  0.00    +0.000 A 
ENDBRANCH  16  17
ENDBRANCH  15  16
ENDBRANCH   3  15
TORSDOF 6
ENDMDL
MODEL 6
REMARK VINA RESULT:    -5.333      4.882      6.437
REMARK INTER + INTRA:          -7.883
REMARK INTER:                  -7.465
REMARK INTRA:                  -0.418
REMARK UNBOUND:                -0.679
REMARK  Name = /home/anacleto/Desktop/manuscript_Mpro/naturecomm/supplementary_file_S2/6-chemical-library/molecular_docking/3D_ligand_structure/462.pdb
REMARK  6 active torsions:
REMARK  status: ('A' for Active; 'I' for Inactive)
REMARK    1  A    between atoms: C7_7  and  N1_8
REMARK    2  A    between atoms: N1_8  and  C8_9
REMARK    3  A    between atoms: C8_9  and  C9_10
REMARK    4  A    between atoms: N2_12  and  C10_13
REMARK    5  A    between atoms: C10_13  and  C11_14
REMARK    6  A    between atoms: C11_14  and  C12_15
REMARK                            x       y       z     vdW  Elec       q    Type
REMARK                         _______ _______ _______ _____ _____    ______ ____
ROOT
ATOM      1  C9  UNL     1      18.696   4.185   9.190  0.00  0.00    +0.000 C 
ATOM      2  O1  UNL     1      19.068   3.219   9.854  0.00  0.00    +0.000 OA
ATOM      3  N2  UNL     1      17.449   4.243   8.605  0.00  0.00    +0.000 N 
ATOM      4  H17 UNL     1      17.128   5.148   8.292  0.00  0.00    +0.000 HD
ENDROOT
BRANCH   1   5
ATOM      5  C8  UNL     1      19.635   5.369   8.910  0.00  0.00    +0.000 C 
BRANCH   5   6
ATOM      6  N1  UNL     1      19.103   6.691   9.294  0.00  0.00    +0.000 NA
ATOM      7  H14 UNL     1      18.087   6.674   9.316  0.00  0.00    +0.000 HD
BRANCH   6  14
ATOM      8  C1  UNL     1      21.069   6.576  10.712  0.00  0.00    +0.000 C 
ATOM      9  C2  UNL     1      21.849   7.012  11.953  0.00  0.00    +0.000 C 
ATOM     10  C3  UNL     1      21.270   6.443  13.243  0.00  0.00    +0.000 C 
ATOM     11  C4  UNL     1      20.147   7.265  13.865  0.00  0.00    +0.000 C 
ATOM     12  C5  UNL     1      19.175   7.946  12.909  0.00  0.00    +0.000 C 
ATOM     13  C6  UNL     1      18.756   7.112  11.699  0.00  0.00    +0.000 C 
ATOM     14  C7  UNL     1      19.712   7.274  10.501  0.00  0.00    +0.000 C 
ENDBRANCH   6  14
ENDBRANCH   5   6
ENDBRANCH   1   5
BRANCH   3  15
ATOM     15  C10 UNL     1      16.450   3.219   8.850  0.00  0.00    +0.000 C 
BRANCH  15  16
ATOM     16  C11 UNL     1      16.102   2.426   7.588  0.00  0.00    +0.000 C 
BRANCH  16  17
ATOM     17  C12 UNL     1      15.174   1.278   7.894  0.00  0.00    +0.000 A 
ATOM     18  C13 UNL     1      13.996   1.486   8.624  0.00  0.00    +0.000 A 
ATOM     19  C14 UNL     1      13.152   0.414   8.922  0.00  0.00    +0.000 A 
ATOM     20  C15 UNL     1      13.479  -0.872   8.496  0.00  0.00    +0.000 A 
ATOM     21  C16 UNL     1      14.650  -1.090   7.773  0.00  0.00    +0.000 A 
ATOM     22  C17 UNL     1      15.495  -0.020   7.474  0.00  0.00    +0.000 A 
ENDBRANCH  16  17
ENDBRANCH  15  16
ENDBRANCH   3  15
TORSDOF 6
ENDMDL
MODEL 7
REMARK VINA RESULT:    -5.298      3.979      6.024
REMARK INTER + INTRA:          -7.836
REMARK INTER:                  -6.897
REMARK INTRA:                  -0.939
REMARK UNBOUND:                -0.679
REMARK  Name = /home/anacleto/Desktop/manuscript_Mpro/naturecomm/supplementary_file_S2/6-chemical-library/molecular_docking/3D_ligand_structure/462.pdb
REMARK  6 active torsions:
REMARK  status: ('A' for Active; 'I' for Inactive)
REMARK    1  A    between atoms: C7_7  and  N1_8
REMARK    2  A    between atoms: N1_8  and  C8_9
REMARK    3  A    between atoms: C8_9  and  C9_10
REMARK    4  A    between atoms: N2_12  and  C10_13
REMARK    5  A    between atoms: C10_13  and  C11_14
REMARK    6  A    between atoms: C11_14  and  C12_15
REMARK                            x       y       z     vdW  Elec       q    Type
REMARK                         _______ _______ _______ _____ _____    ______ ____
ROOT
ATOM      1  C9  UNL     1      17.441   4.799  12.754  0.00  0.00    +0.000 C 
ATOM      2  O1  UNL     1      18.424   4.060  12.703  0.00  0.00    +0.000 OA
ATOM      3  N2  UNL     1      17.551   6.163  12.927  0.00  0.00    +0.000 N 
ATOM      4  H17 UNL     1      16.738   6.721  12.715  0.00  0.00    +0.000 HD
ENDROOT
BRANCH   1   5
ATOM      5  C8  UNL     1      16.014   4.233  12.700  0.00  0.00    +0.000 C 
BRANCH   5   6
ATOM      6  N1  UNL     1      15.891   2.911  12.055  0.00  0.00    +0.000 NA
ATOM      7  H14 UNL     1      15.275   2.308  12.593  0.00  0.00    +0.000 HD
BRANCH   6  14
ATOM      8  C1  UNL     1      14.545   1.841  10.342  0.00  0.00    +0.000 C 
ATOM      9  C2  UNL     1      14.114   1.688   8.883  0.00  0.00    +0.000 C 
ATOM     10  C3  UNL     1      15.181   1.023   8.020  0.00  0.00    +0.000 C 
ATOM     11  C4  UNL     1      16.224   1.969   7.438  0.00  0.00    +0.000 C 
ATOM     12  C5  UNL     1      16.668   3.135   8.314  0.00  0.00    +0.000 C 
ATOM     13  C6  UNL     1      16.866   2.802   9.793  0.00  0.00    +0.000 C 
ATOM     14  C7  UNL     1      15.574   2.954  10.618  0.00  0.00    +0.000 C 
ENDBRANCH   6  14
ENDBRANCH   5   6
ENDBRANCH   1   5
BRANCH   3  15
ATOM     15  C10 UNL     1      18.844   6.824  12.925  0.00  0.00    +0.000 C 
BRANCH  15  16
ATOM     16  C11 UNL     1      19.050   7.704  11.689  0.00  0.00    +0.000 C 
BRANCH  16  17
ATOM     17  C12 UNL     1      19.553   6.901  10.516  0.00  0.00    +0.000 A 
ATOM     18  C13 UNL     1      18.937   7.004   9.262  0.00  0.00    +0.000 A 
ATOM     19  C14 UNL     1      19.394   6.242   8.186  0.00  0.00    +0.000 A 
ATOM     20  C15 UNL     1      20.469   5.370   8.354  0.00  0.00    +0.000 A 
ATOM     21  C16 UNL     1      21.086   5.257   9.598  0.00  0.00    +0.000 A 
ATOM     22  C17 UNL     1      20.629   6.018  10.675  0.00  0.00    +0.000 A 
ENDBRANCH  16  17
ENDBRANCH  15  16
ENDBRANCH   3  15
TORSDOF 6
ENDMDL
MODEL 8
REMARK VINA RESULT:    -5.224     14.721     16.943
REMARK INTER + INTRA:          -7.736
REMARK INTER:                  -6.655
REMARK INTRA:                  -1.081
REMARK UNBOUND:                -0.679
REMARK  Name = /home/anacleto/Desktop/manuscript_Mpro/naturecomm/supplementary_file_S2/6-chemical-library/molecular_docking/3D_ligand_structure/462.pdb
REMARK  6 active torsions:
REMARK  status: ('A' for Active; 'I' for Inactive)
REMARK    1  A    between atoms: C7_7  and  N1_8
REMARK    2  A    between atoms: N1_8  and  C8_9
REMARK    3  A    between atoms: C8_9  and  C9_10
REMARK    4  A    between atoms: N2_12  and  C10_13
REMARK    5  A    between atoms: C10_13  and  C11_14
REMARK    6  A    between atoms: C11_14  and  C12_15
REMARK                            x       y       z     vdW  Elec       q    Type
REMARK                         _______ _______ _______ _____ _____    ______ ____
ROOT
ATOM      1  C9  UNL     1      15.061  14.578  -3.867  0.00  0.00    +0.000 C 
ATOM      2  O1  UNL     1      16.047  14.632  -4.601  0.00  0.00    +0.000 OA
ATOM      3  N2  UNL     1      14.011  13.716  -4.104  0.00  0.00    +0.000 N 
ATOM      4  H17 UNL     1      13.368  13.553  -3.344  0.00  0.00    +0.000 HD
ENDROOT
BRANCH   1   5
ATOM      5  C8  UNL     1      14.906  15.526  -2.668  0.00  0.00    +0.000 C 
BRANCH   5   6
ATOM      6  N1  UNL     1      15.479  15.029  -1.402  0.00  0.00    +0.000 NA
ATOM      7  H14 UNL     1      15.112  14.107  -1.182  0.00  0.00    +0.000 HD
BRANCH   6  14
ATOM      8  C1  UNL     1      17.505  13.694  -1.448  0.00  0.00    +0.000 C 
ATOM      9  C2  UNL     1      19.024  13.567  -1.334  0.00  0.00    +0.000 C 
ATOM     10  C3  UNL     1      19.522  13.706   0.101  0.00  0.00    +0.000 C 
ATOM     11  C4  UNL     1      19.775  15.136   0.561  0.00  0.00    +0.000 C 
ATOM     12  C5  UNL     1      18.817  16.208   0.052  0.00  0.00    +0.000 C 
ATOM     13  C6  UNL     1      17.344  15.803   0.013  0.00  0.00    +0.000 C 
ATOM     14  C7  UNL     1      16.945  15.122  -1.311  0.00  0.00    +0.000 C 
ENDBRANCH   6  14
ENDBRANCH   5   6
ENDBRANCH   1   5
BRANCH   3  15
ATOM     15  C10 UNL     1      14.069  12.726  -5.165  0.00  0.00    +0.000 C 
BRANCH  15  16
ATOM     16  C11 UNL     1      14.202  11.299  -4.627  0.00  0.00    +0.000 C 
BRANCH  16  17
ATOM     17  C12 UNL     1      15.635  10.963  -4.300  0.00  0.00    +0.000 A 
ATOM     18  C13 UNL     1      16.617  10.971  -5.300  0.00  0.00    +0.000 A 
ATOM     19  C14 UNL     1      17.938  10.637  -4.994  0.00  0.00    +0.000 A 
ATOM     20  C15 UNL     1      18.287  10.290  -3.689  0.00  0.00    +0.000 A 
ATOM     21  C16 UNL     1      17.316  10.275  -2.689  0.00  0.00    +0.000 A 
ATOM     22  C17 UNL     1      15.995  10.608  -2.993  0.00  0.00    +0.000 A 
ENDBRANCH  16  17
ENDBRANCH  15  16
ENDBRANCH   3  15
TORSDOF 6
ENDMDL
MODEL 9
REMARK VINA RESULT:    -5.213     15.088     18.131
REMARK INTER + INTRA:          -7.720
REMARK INTER:                  -7.041
REMARK INTRA:                  -0.679
REMARK UNBOUND:                -0.679
REMARK  Name = /home/anacleto/Desktop/manuscript_Mpro/naturecomm/supplementary_file_S2/6-chemical-library/molecular_docking/3D_ligand_structure/462.pdb
REMARK  6 active torsions:
REMARK  status: ('A' for Active; 'I' for Inactive)
REMARK    1  A    between atoms: C7_7  and  N1_8
REMARK    2  A    between atoms: N1_8  and  C8_9
REMARK    3  A    between atoms: C8_9  and  C9_10
REMARK    4  A    between atoms: N2_12  and  C10_13
REMARK    5  A    between atoms: C10_13  and  C11_14
REMARK    6  A    between atoms: C11_14  and  C12_15
REMARK                            x       y       z     vdW  Elec       q    Type
REMARK                         _______ _______ _______ _____ _____    ______ ____
ROOT
ATOM      1  C9  UNL     1      17.179  15.852  -3.763  0.00  0.00    +0.000 C 
ATOM      2  O1  UNL     1      18.273  16.261  -3.377  0.00  0.00    +0.000 OA
ATOM      3  N2  UNL     1      16.054  15.882  -2.965  0.00  0.00    +0.000 N 
ATOM      4  H17 UNL     1      15.162  15.765  -3.421  0.00  0.00    +0.000 HD
ENDROOT
BRANCH   1   5
ATOM      5  C8  UNL     1      17.012  15.210  -5.149  0.00  0.00    +0.000 C 
BRANCH   5   6
ATOM      6  N1  UNL     1      15.646  14.747  -5.462  0.00  0.00    +0.000 NA
ATOM      7  H14 UNL     1      15.285  15.229  -6.281  0.00  0.00    +0.000 HD
BRANCH   6  14
ATOM      8  C1  UNL     1      15.063  12.923  -6.953  0.00  0.00    +0.000 C 
ATOM      9  C2  UNL     1      14.802  11.438  -7.210  0.00  0.00    +0.000 C 
ATOM     10  C3  UNL     1      13.481  10.961  -6.616  0.00  0.00    +0.000 C 
ATOM     11  C4  UNL     1      13.549  10.525  -5.158  0.00  0.00    +0.000 C 
ATOM     12  C5  UNL     1      14.477  11.314  -4.241  0.00  0.00    +0.000 C 
ATOM     13  C6  UNL     1      14.474  12.827  -4.453  0.00  0.00    +0.000 C 
ATOM     14  C7  UNL     1      15.489  13.285  -5.518  0.00  0.00    +0.000 C 
ENDBRANCH   6  14
ENDBRANCH   5   6
ENDBRANCH   1   5
BRANCH   3  15
ATOM     15  C10 UNL     1      16.069  16.524  -1.663  0.00  0.00    +0.000 C 
BRANCH  15  16
ATOM     16  C11 UNL     1      16.085  15.514  -0.513  0.00  0.00    +0.000 C 
BRANCH  16  17
ATOM     17  C12 UNL     1      17.493  15.157  -0.110  0.00  0.00    +0.000 A 
ATOM     18  C13 UNL     1      18.286  16.067   0.603  0.00  0.00    +0.000 A 
ATOM     19  C14 UNL     1      19.596  15.737   0.953  0.00  0.00    +0.000 A 
ATOM     20  C15 UNL     1      20.126  14.499   0.593  0.00  0.00    +0.000 A 
ATOM     21  C16 UNL     1      19.347  13.589  -0.120  0.00  0.00    +0.000 A 
ATOM     22  C17 UNL     1      18.037  13.917  -0.471  0.00  0.00    +0.000 A 
ENDBRANCH  16  17
ENDBRANCH  15  16
ENDBRANCH   3  15
TORSDOF 6
ENDMDL
