MODEL 1
REMARK VINA RESULT:    -2.279      0.000      0.000
REMARK INTER + INTRA:          -2.279
REMARK INTER:                  -2.279
REMARK INTRA:                   0.000
REMARK UNBOUND:                 0.000
REMARK  Name = /home/anacleto/Desktop/manuscript_Mpro/naturecomm/supplementary_file_S2/6-chemical-library/molecular_docking/3D_ligand_structure/133.pdb
REMARK  0 active torsions:
REMARK  status: ('A' for Active; 'I' for Inactive)
REMARK                            x       y       z     vdW  Elec       q    Type
REMARK                         _______ _______ _______ _____ _____    ______ ____
ROOT
ATOM      1  C1  UNL     1     -36.968  10.910 -31.492  0.00  0.00    +0.000 C 
ATOM      2  C2  UNL     1     -36.215  12.024 -31.523  0.00  0.00    +0.000 C 
ATOM      3  C3  UNL     1     -36.550  12.411 -30.101  0.00  0.00    +0.000 C 
ATOM      4  C4  UNL     1     -37.414  11.134 -30.065  0.00  0.00    +0.000 C 
ENDROOT
TORSDOF 0
ENDMDL
MODEL 2
REMARK VINA RESULT:    -2.274      0.240      2.095
REMARK INTER + INTRA:          -2.274
REMARK INTER:                  -2.274
REMARK INTRA:                   0.000
REMARK UNBOUND:                 0.000
REMARK  Name = /home/anacleto/Desktop/manuscript_Mpro/naturecomm/supplementary_file_S2/6-chemical-library/molecular_docking/3D_ligand_structure/133.pdb
REMARK  0 active torsions:
REMARK  status: ('A' for Active; 'I' for Inactive)
REMARK                            x       y       z     vdW  Elec       q    Type
REMARK                         _______ _______ _______ _____ _____    ______ ____
ROOT
ATOM      1  C1  UNL     1     -36.644  12.260 -30.223  0.00  0.00    +0.000 C 
ATOM      2  C2  UNL     1     -37.362  11.127 -30.323  0.00  0.00    +0.000 C 
ATOM      3  C3  UNL     1     -36.863  10.817 -31.716  0.00  0.00    +0.000 C 
ATOM      4  C4  UNL     1     -36.040  12.116 -31.602  0.00  0.00    +0.000 C 
ENDROOT
TORSDOF 0
ENDMDL
MODEL 3
REMARK VINA RESULT:    -2.259     15.262     15.819
REMARK INTER + INTRA:          -2.259
REMARK INTER:                  -2.259
REMARK INTRA:                   0.000
REMARK UNBOUND:                 0.000
REMARK  Name = /home/anacleto/Desktop/manuscript_Mpro/naturecomm/supplementary_file_S2/6-chemical-library/molecular_docking/3D_ligand_structure/133.pdb
REMARK  0 active torsions:
REMARK  status: ('A' for Active; 'I' for Inactive)
REMARK                            x       y       z     vdW  Elec       q    Type
REMARK                         _______ _______ _______ _____ _____    ______ ____
ROOT
ATOM      1  C1  UNL     1     -27.688   2.310 -38.694  0.00  0.00    +0.000 C 
ATOM      2  C2  UNL     1     -26.741   2.295 -37.740  0.00  0.00    +0.000 C 
ATOM      3  C3  UNL     1     -25.640   2.714 -38.687  0.00  0.00    +0.000 C 
ATOM      4  C4  UNL     1     -26.726   2.732 -39.781  0.00  0.00    +0.000 C 
ENDROOT
TORSDOF 0
ENDMDL
MODEL 4
REMARK VINA RESULT:    -2.242     15.355     15.867
REMARK INTER + INTRA:          -2.242
REMARK INTER:                  -2.242
REMARK INTRA:                   0.000
REMARK UNBOUND:                 0.000
REMARK  Name = /home/anacleto/Desktop/manuscript_Mpro/naturecomm/supplementary_file_S2/6-chemical-library/molecular_docking/3D_ligand_structure/133.pdb
REMARK  0 active torsions:
REMARK  status: ('A' for Active; 'I' for Inactive)
REMARK                            x       y       z     vdW  Elec       q    Type
REMARK                         _______ _______ _______ _____ _____    ______ ____
ROOT
ATOM      1  C1  UNL     1     -25.684   2.663 -38.404  0.00  0.00    +0.000 C 
ATOM      2  C2  UNL     1     -26.756   2.274 -37.691  0.00  0.00    +0.000 C 
ATOM      3  C3  UNL     1     -27.683   2.300 -38.884  0.00  0.00    +0.000 C 
ATOM      4  C4  UNL     1     -26.455   2.747 -39.702  0.00  0.00    +0.000 C 
ENDROOT
TORSDOF 0
ENDMDL
MODEL 5
REMARK VINA RESULT:    -2.143     15.454     16.030
REMARK INTER + INTRA:          -2.143
REMARK INTER:                  -2.143
REMARK INTRA:                   0.000
REMARK UNBOUND:                 0.000
REMARK  Name = /home/anacleto/Desktop/manuscript_Mpro/naturecomm/supplementary_file_S2/6-chemical-library/molecular_docking/3D_ligand_structure/133.pdb
REMARK  0 active torsions:
REMARK  status: ('A' for Active; 'I' for Inactive)
REMARK                            x       y       z     vdW  Elec       q    Type
REMARK                         _______ _______ _______ _____ _____    ______ ____
ROOT
ATOM      1  C1  UNL     1     -38.332   9.368 -15.597  0.00  0.00    +0.000 C 
ATOM      2  C2  UNL     1     -37.319   8.490 -15.702  0.00  0.00    +0.000 C 
ATOM      3  C3  UNL     1     -37.982   7.467 -14.808  0.00  0.00    +0.000 C 
ATOM      4  C4  UNL     1     -39.143   8.474 -14.686  0.00  0.00    +0.000 C 
ENDROOT
TORSDOF 0
ENDMDL
MODEL 6
REMARK VINA RESULT:    -2.137     11.135     11.748
REMARK INTER + INTRA:          -2.137
REMARK INTER:                  -2.137
REMARK INTRA:                   0.000
REMARK UNBOUND:                 0.000
REMARK  Name = /home/anacleto/Desktop/manuscript_Mpro/naturecomm/supplementary_file_S2/6-chemical-library/molecular_docking/3D_ligand_structure/133.pdb
REMARK  0 active torsions:
REMARK  status: ('A' for Active; 'I' for Inactive)
REMARK                            x       y       z     vdW  Elec       q    Type
REMARK                         _______ _______ _______ _____ _____    ______ ____
ROOT
ATOM      1  C1  UNL     1     -38.710  -0.424 -29.559  0.00  0.00    +0.000 C 
ATOM      2  C2  UNL     1     -38.465   0.889 -29.404  0.00  0.00    +0.000 C 
ATOM      3  C3  UNL     1     -37.030   0.673 -28.981  0.00  0.00    +0.000 C 
ATOM      4  C4  UNL     1     -37.311  -0.833 -29.159  0.00  0.00    +0.000 C 
ENDROOT
TORSDOF 0
ENDMDL
MODEL 7
REMARK VINA RESULT:    -2.136     11.105     11.800
REMARK INTER + INTRA:          -2.136
REMARK INTER:                  -2.136
REMARK INTRA:                   0.000
REMARK UNBOUND:                 0.000
REMARK  Name = /home/anacleto/Desktop/manuscript_Mpro/naturecomm/supplementary_file_S2/6-chemical-library/molecular_docking/3D_ligand_structure/133.pdb
REMARK  0 active torsions:
REMARK  status: ('A' for Active; 'I' for Inactive)
REMARK                            x       y       z     vdW  Elec       q    Type
REMARK                         _______ _______ _______ _____ _____    ______ ____
ROOT
ATOM      1  C1  UNL     1     -37.232   0.718 -29.031  0.00  0.00    +0.000 C 
ATOM      2  C2  UNL     1     -37.325  -0.622 -29.102  0.00  0.00    +0.000 C 
ATOM      3  C3  UNL     1     -38.751  -0.596 -29.602  0.00  0.00    +0.000 C 
ATOM      4  C4  UNL     1     -38.645   0.941 -29.521  0.00  0.00    +0.000 C 
ENDROOT
TORSDOF 0
ENDMDL
MODEL 8
REMARK VINA RESULT:    -2.083     17.326     18.055
REMARK INTER + INTRA:          -2.083
REMARK INTER:                  -2.083
REMARK INTRA:                   0.000
REMARK UNBOUND:                 0.000
REMARK  Name = /home/anacleto/Desktop/manuscript_Mpro/naturecomm/supplementary_file_S2/6-chemical-library/molecular_docking/3D_ligand_structure/133.pdb
REMARK  0 active torsions:
REMARK  status: ('A' for Active; 'I' for Inactive)
REMARK                            x       y       z     vdW  Elec       q    Type
REMARK                         _______ _______ _______ _____ _____    ______ ____
ROOT
ATOM      1  C1  UNL     1     -20.117   8.349 -38.272  0.00  0.00    +0.000 C 
ATOM      2  C2  UNL     1     -20.395   7.193 -38.899  0.00  0.00    +0.000 C 
ATOM      3  C3  UNL     1     -21.570   6.874 -38.003  0.00  0.00    +0.000 C 
ATOM      4  C4  UNL     1     -21.251   8.200 -37.283  0.00  0.00    +0.000 C 
ENDROOT
TORSDOF 0
ENDMDL
MODEL 9
REMARK VINA RESULT:    -2.061     15.371     16.094
REMARK INTER + INTRA:          -2.061
REMARK INTER:                  -2.061
REMARK INTRA:                   0.000
REMARK UNBOUND:                 0.000
REMARK  Name = /home/anacleto/Desktop/manuscript_Mpro/naturecomm/supplementary_file_S2/6-chemical-library/molecular_docking/3D_ligand_structure/133.pdb
REMARK  0 active torsions:
REMARK  status: ('A' for Active; 'I' for Inactive)
REMARK                            x       y       z     vdW  Elec       q    Type
REMARK                         _______ _______ _______ _____ _____    ______ ____
ROOT
ATOM      1  C1  UNL     1     -38.278   7.867 -14.586  0.00  0.00    +0.000 C 
ATOM      2  C2  UNL     1     -39.328   8.704 -14.646  0.00  0.00    +0.000 C 
ATOM      3  C3  UNL     1     -38.705   9.568 -15.719  0.00  0.00    +0.000 C 
ATOM      4  C4  UNL     1     -37.500   8.608 -15.650  0.00  0.00    +0.000 C 
ENDROOT
TORSDOF 0
ENDMDL
