REMARK  Name = /home/anacleto/Desktop/manuscript_Mpro/naturecomm/supplementary_file_S2/6-chemical-library/molecular_docking/3D_ligand_structure/boceprevir.pdb
REMARK  18 active torsions:
REMARK  status: ('A' for Active; 'I' for Inactive)
REMARK    1  A    between atoms: C1_1  and  C2_2
REMARK    2  A    between atoms: C2_2  and  C3_3
REMARK    3  A    between atoms: C2_2  and  C4_4
REMARK    4  A    between atoms: C2_2  and  N1_5
REMARK    5  A    between atoms: N2_8  and  C6_9
REMARK    6  A    between atoms: C6_9  and  C7_10
REMARK    7  A    between atoms: C6_9  and  C24_34
REMARK    8  A    between atoms: C11_16  and  C12_17
REMARK    9  A    between atoms: N4_19  and  C13_20
REMARK   10  A    between atoms: C13_20  and  C14_21
REMARK   11  A    between atoms: C13_20  and  C19_26
REMARK   12  A    between atoms: C14_21  and  C15_22
REMARK   13  A    between atoms: C19_26  and  C20_28
REMARK   14  A    between atoms: C21_31  and  C22_32
REMARK   15  A    between atoms: C21_31  and  C23_33
REMARK   16  A    between atoms: C24_34  and  C25_35
REMARK   17  A    between atoms: C24_34  and  C26_36
REMARK   18  A    between atoms: C24_34  and  C27_37
REMARK                            x       y       z     vdW  Elec       q    Type
REMARK                         _______ _______ _______ _____ _____    ______ ____
ROOT
ATOM      1  C7  UNL     1       1.136   0.179  -0.608  0.00  0.00    +0.000 C 
ATOM      2  O2  UNL     1       0.760  -0.967  -0.325  0.00  0.00    +0.000 OA
ATOM      3  N3  UNL     1       0.428   1.281  -0.186  0.00  0.00    +0.000 N 
ATOM      4  C8  UNL     1       0.919   2.652  -0.166  0.00  0.00    +0.000 C 
ATOM      5  C9  UNL     1      -0.049   3.403   0.690  0.00  0.00    +0.000 C 
ATOM      6  C10 UNL     1      -1.101   2.452   1.165  0.00  0.00    +0.000 C 
ATOM      7  C11 UNL     1      -0.800   1.089   0.588  0.00  0.00    +0.000 C 
ATOM      8  C21 UNL     1      -0.217   3.165   2.182  0.00  0.00    +0.000 C 
ATOM      9  C22 UNL     1      -0.837   4.284   2.981  0.00  0.00    +0.000 C 
ATOM     10  C23 UNL     1       0.832   2.400   2.950  0.00  0.00    +0.000 C 
ENDROOT
BRANCH   7  11
ATOM     11  C12 UNL     1      -1.935   0.606  -0.349  0.00  0.00    +0.000 C 
ATOM     12  O3  UNL     1      -2.080   0.989  -1.507  0.00  0.00    +0.000 OA
ATOM     13  N4  UNL     1      -2.837  -0.249   0.256  0.00  0.00    +0.000 N 
ATOM     14  H18 UNL     1      -2.930  -0.164   1.266  0.00  0.00    +0.000 HD
BRANCH  13  15
ATOM     15  C13 UNL     1      -4.003  -0.742  -0.477  0.00  0.00    +0.000 C 
BRANCH  15  16
ATOM     16  C19 UNL     1      -5.124   0.296  -0.562  0.00  0.00    +0.000 C 
ATOM     17  O4  UNL     1      -5.977   0.318  -1.449  0.00  0.00    +0.000 OA
BRANCH  16  18
ATOM     18  C20 UNL     1      -5.287   1.275   0.608  0.00  0.00    +0.000 C 
ATOM     19  N5  UNL     1      -6.155   2.303   0.361  0.00  0.00    +0.000 N 
ATOM     20  O5  UNL     1      -4.696   1.129   1.666  0.00  0.00    +0.000 OA
ATOM     21  H29 UNL     1      -6.346   2.991   1.075  0.00  0.00    +0.000 HD
ATOM     22  H30 UNL     1      -6.627   2.356  -0.537  0.00  0.00    +0.000 HD
ENDBRANCH  16  18
ENDBRANCH  15  16
BRANCH  15  23
ATOM     23  C14 UNL     1      -4.491  -2.034   0.195  0.00  0.00    +0.000 C 
BRANCH  23  24
ATOM     24  C15 UNL     1      -5.476  -2.816  -0.679  0.00  0.00    +0.000 C 
ATOM     25  C16 UNL     1      -5.779  -4.255  -0.171  0.00  0.00    +0.000 C 
ATOM     26  C17 UNL     1      -7.037  -3.698   0.515  0.00  0.00    +0.000 C 
ATOM     27  C18 UNL     1      -6.994  -2.531  -0.490  0.00  0.00    +0.000 C 
ENDBRANCH  23  24
ENDBRANCH  15  23
ENDBRANCH  13  15
ENDBRANCH   7  11
BRANCH   1  28
ATOM     28  C6  UNL     1       2.399   0.386  -1.483  0.00  0.00    +0.000 C 
BRANCH  28  32
ATOM     29  N1  UNL     1       4.950  -1.404   0.384  0.00  0.00    +0.000 N 
ATOM     30  C5  UNL     1       4.214  -0.301   0.028  0.00  0.00    +0.000 C 
ATOM     31  O1  UNL     1       4.301   0.809   0.532  0.00  0.00    +0.000 OA
ATOM     32  N2  UNL     1       3.364  -0.613  -1.006  0.00  0.00    +0.000 N 
ATOM     33  H10 UNL     1       5.054  -2.057  -0.379  0.00  0.00    +0.000 HD
ATOM     34  H11 UNL     1       2.959  -1.537  -0.902  0.00  0.00    +0.000 HD
BRANCH  29  36
ATOM     35  C1  UNL     1       7.189  -0.487   0.908  0.00  0.00    +0.000 C 
ATOM     36  C2  UNL     1       6.037  -1.389   1.373  0.00  0.00    +0.000 C 
ATOM     37  C3  UNL     1       6.565  -2.830   1.511  0.00  0.00    +0.000 C 
ATOM     38  C4  UNL     1       5.536  -0.930   2.753  0.00  0.00    +0.000 C 
ENDBRANCH  29  36
ENDBRANCH  28  32
BRANCH  28  39
ATOM     39  C24 UNL     1       2.126   0.231  -3.014  0.00  0.00    +0.000 C 
ATOM     40  C25 UNL     1       3.462   0.361  -3.782  0.00  0.00    +0.000 C 
ATOM     41  C26 UNL     1       1.492  -1.127  -3.374  0.00  0.00    +0.000 C 
ATOM     42  C27 UNL     1       1.196   1.351  -3.515  0.00  0.00    +0.000 C 
ENDBRANCH  28  39
ENDBRANCH   1  28
TORSDOF 10
