MODEL 1
REMARK VINA RESULT:    -4.475      0.000      0.000
REMARK INTER + INTRA:          -4.475
REMARK INTER:                  -4.475
REMARK INTRA:                   0.000
REMARK UNBOUND:                 0.000
REMARK  Name = /home/anacleto/Desktop/manuscript_Mpro/naturecomm/supplementary_file_S2/6-chemical-library/molecular_docking/3D_ligand_structure/139.pdb
REMARK  0 active torsions:
REMARK  status: ('A' for Active; 'I' for Inactive)
REMARK                            x       y       z     vdW  Elec       q    Type
REMARK                         _______ _______ _______ _____ _____    ______ ____
ROOT
ATOM      1  O1  UNL     1     -19.102   7.912 -38.670  0.00  0.00    +0.000 OA
ATOM      2  C1  UNL     1     -20.258   7.613 -38.454  0.00  0.00    +0.000 C 
ATOM      3  N1  UNL     1     -20.818   6.351 -38.728  0.00  0.00    +0.000 N 
ATOM      4  S1  UNL     1     -22.487   6.322 -38.612  0.00  0.00    +0.000 S 
ATOM      5  O2  UNL     1     -23.030   6.273 -39.947  0.00  0.00    +0.000 OA
ATOM      6  O3  UNL     1     -22.872   5.428 -37.549  0.00  0.00    +0.000 OA
ATOM      7  C2  UNL     1     -22.576   7.958 -38.028  0.00  0.00    +0.000 A 
ATOM      8  C3  UNL     1     -21.309   8.521 -37.964  0.00  0.00    +0.000 A 
ATOM      9  C4  UNL     1     -23.716   8.636 -37.639  0.00  0.00    +0.000 A 
ATOM     10  C5  UNL     1     -23.553   9.945 -37.181  0.00  0.00    +0.000 A 
ATOM     11  C6  UNL     1     -22.275  10.534 -37.122  0.00  0.00    +0.000 A 
ATOM     12  C7  UNL     1     -21.137   9.821 -37.518  0.00  0.00    +0.000 A 
ATOM     13  H1  UNL     1     -20.366   5.789 -39.443  0.00  0.00    +0.000 HD
ENDROOT
TORSDOF 0
ENDMDL
MODEL 2
REMARK VINA RESULT:    -4.346      3.223      4.549
REMARK INTER + INTRA:          -4.346
REMARK INTER:                  -4.346
REMARK INTRA:                   0.000
REMARK UNBOUND:                 0.000
REMARK  Name = /home/anacleto/Desktop/manuscript_Mpro/naturecomm/supplementary_file_S2/6-chemical-library/molecular_docking/3D_ligand_structure/139.pdb
REMARK  0 active torsions:
REMARK  status: ('A' for Active; 'I' for Inactive)
REMARK                            x       y       z     vdW  Elec       q    Type
REMARK                         _______ _______ _______ _____ _____    ______ ____
ROOT
ATOM      1  O1  UNL     1     -26.208   8.860 -38.015  0.00  0.00    +0.000 OA
ATOM      2  C1  UNL     1     -25.021   8.993 -37.803  0.00  0.00    +0.000 C 
ATOM      3  N1  UNL     1     -24.405  10.211 -37.457  0.00  0.00    +0.000 N 
ATOM      4  S1  UNL     1     -22.734  10.157 -37.524  0.00  0.00    +0.000 S 
ATOM      5  O2  UNL     1     -22.307  10.875 -38.699  0.00  0.00    +0.000 OA
ATOM      6  O3  UNL     1     -22.201  10.378 -36.203  0.00  0.00    +0.000 OA
ATOM      7  C2  UNL     1     -22.702   8.452 -37.864  0.00  0.00    +0.000 A 
ATOM      8  C3  UNL     1     -23.992   7.950 -37.958  0.00  0.00    +0.000 A 
ATOM      9  C4  UNL     1     -21.579   7.657 -37.998  0.00  0.00    +0.000 A 
ATOM     10  C5  UNL     1     -21.786   6.299 -38.253  0.00  0.00    +0.000 A 
ATOM     11  C6  UNL     1     -23.090   5.778 -38.363  0.00  0.00    +0.000 A 
ATOM     12  C7  UNL     1     -24.209   6.606 -38.217  0.00  0.00    +0.000 A 
ATOM     13  H1  UNL     1     -24.880  11.064 -37.735  0.00  0.00    +0.000 HD
ENDROOT
TORSDOF 0
ENDMDL
MODEL 3
REMARK VINA RESULT:    -4.331      1.966      3.207
REMARK INTER + INTRA:          -4.331
REMARK INTER:                  -4.331
REMARK INTRA:                   0.000
REMARK UNBOUND:                 0.000
REMARK  Name = /home/anacleto/Desktop/manuscript_Mpro/naturecomm/supplementary_file_S2/6-chemical-library/molecular_docking/3D_ligand_structure/139.pdb
REMARK  0 active torsions:
REMARK  status: ('A' for Active; 'I' for Inactive)
REMARK                            x       y       z     vdW  Elec       q    Type
REMARK                         _______ _______ _______ _____ _____    ______ ____
ROOT
ATOM      1  O1  UNL     1     -22.930  10.085 -36.849  0.00  0.00    +0.000 OA
ATOM      2  C1  UNL     1     -22.521   9.170 -37.533  0.00  0.00    +0.000 C 
ATOM      3  N1  UNL     1     -23.286   8.048 -37.903  0.00  0.00    +0.000 N 
ATOM      4  S1  UNL     1     -22.380   6.816 -38.584  0.00  0.00    +0.000 S 
ATOM      5  O2  UNL     1     -22.254   5.759 -37.611  0.00  0.00    +0.000 OA
ATOM      6  O3  UNL     1     -22.803   6.615 -39.947  0.00  0.00    +0.000 OA
ATOM      7  C2  UNL     1     -20.916   7.757 -38.584  0.00  0.00    +0.000 A 
ATOM      8  C3  UNL     1     -21.140   9.005 -38.021  0.00  0.00    +0.000 A 
ATOM      9  C4  UNL     1     -19.688   7.373 -39.090  0.00  0.00    +0.000 A 
ATOM     10  C5  UNL     1     -18.647   8.300 -39.002  0.00  0.00    +0.000 A 
ATOM     11  C6  UNL     1     -18.856   9.567 -38.422  0.00  0.00    +0.000 A 
ATOM     12  C7  UNL     1     -20.112   9.929 -37.923  0.00  0.00    +0.000 A 
ATOM     13  H1  UNL     1     -24.071   7.806 -37.307  0.00  0.00    +0.000 HD
ENDROOT
TORSDOF 0
ENDMDL
MODEL 4
REMARK VINA RESULT:    -4.250      5.972      7.109
REMARK INTER + INTRA:          -4.250
REMARK INTER:                  -4.250
REMARK INTRA:                   0.000
REMARK UNBOUND:                 0.000
REMARK  Name = /home/anacleto/Desktop/manuscript_Mpro/naturecomm/supplementary_file_S2/6-chemical-library/molecular_docking/3D_ligand_structure/139.pdb
REMARK  0 active torsions:
REMARK  status: ('A' for Active; 'I' for Inactive)
REMARK                            x       y       z     vdW  Elec       q    Type
REMARK                         _______ _______ _______ _____ _____    ______ ____
ROOT
ATOM      1  O1  UNL     1     -25.451   6.859 -39.473  0.00  0.00    +0.000 OA
ATOM      2  C1  UNL     1     -26.436   6.159 -39.361  0.00  0.00    +0.000 C 
ATOM      3  N1  UNL     1     -27.757   6.604 -39.558  0.00  0.00    +0.000 N 
ATOM      4  S1  UNL     1     -28.914   5.510 -39.043  0.00  0.00    +0.000 S 
ATOM      5  O2  UNL     1     -29.485   6.002 -37.814  0.00  0.00    +0.000 OA
ATOM      6  O3  UNL     1     -29.690   5.074 -40.177  0.00  0.00    +0.000 OA
ATOM      7  C2  UNL     1     -27.736   4.287 -38.667  0.00  0.00    +0.000 A 
ATOM      8  C3  UNL     1     -26.453   4.756 -38.910  0.00  0.00    +0.000 A 
ATOM      9  C4  UNL     1     -27.991   3.005 -38.216  0.00  0.00    +0.000 A 
ATOM     10  C5  UNL     1     -26.887   2.178 -37.994  0.00  0.00    +0.000 A 
ATOM     11  C6  UNL     1     -25.579   2.643 -38.226  0.00  0.00    +0.000 A 
ATOM     12  C7  UNL     1     -25.352   3.946 -38.687  0.00  0.00    +0.000 A 
ATOM     13  H1  UNL     1     -27.933   7.596 -39.438  0.00  0.00    +0.000 HD
ENDROOT
TORSDOF 0
ENDMDL
MODEL 5
REMARK VINA RESULT:    -4.203      6.253      7.163
REMARK INTER + INTRA:          -4.203
REMARK INTER:                  -4.203
REMARK INTRA:                   0.000
REMARK UNBOUND:                 0.000
REMARK  Name = /home/anacleto/Desktop/manuscript_Mpro/naturecomm/supplementary_file_S2/6-chemical-library/molecular_docking/3D_ligand_structure/139.pdb
REMARK  0 active torsions:
REMARK  status: ('A' for Active; 'I' for Inactive)
REMARK                            x       y       z     vdW  Elec       q    Type
REMARK                         _______ _______ _______ _____ _____    ______ ____
ROOT
ATOM      1  O1  UNL     1     -29.137   5.873 -37.946  0.00  0.00    +0.000 OA
ATOM      2  C1  UNL     1     -28.505   4.957 -38.431  0.00  0.00    +0.000 C 
ATOM      3  N1  UNL     1     -28.896   3.606 -38.380  0.00  0.00    +0.000 N 
ATOM      4  S1  UNL     1     -27.693   2.545 -38.860  0.00  0.00    +0.000 S 
ATOM      5  O2  UNL     1     -27.169   1.897 -37.683  0.00  0.00    +0.000 OA
ATOM      6  O3  UNL     1     -28.123   1.846 -40.044  0.00  0.00    +0.000 OA
ATOM      7  C2  UNL     1     -26.611   3.825 -39.327  0.00  0.00    +0.000 A 
ATOM      8  C3  UNL     1     -27.182   5.063 -39.070  0.00  0.00    +0.000 A 
ATOM      9  C4  UNL     1     -25.363   3.682 -39.904  0.00  0.00    +0.000 A 
ATOM     10  C5  UNL     1     -24.669   4.853 -40.217  0.00  0.00    +0.000 A 
ATOM     11  C6  UNL     1     -25.231   6.117 -39.952  0.00  0.00    +0.000 A 
ATOM     12  C7  UNL     1     -26.500   6.231 -39.371  0.00  0.00    +0.000 A 
ATOM     13  H1  UNL     1     -29.519   3.332 -37.627  0.00  0.00    +0.000 HD
ENDROOT
TORSDOF 0
ENDMDL
MODEL 6
REMARK VINA RESULT:    -4.190     16.649     17.614
REMARK INTER + INTRA:          -4.190
REMARK INTER:                  -4.190
REMARK INTRA:                   0.000
REMARK UNBOUND:                 0.000
REMARK  Name = /home/anacleto/Desktop/manuscript_Mpro/naturecomm/supplementary_file_S2/6-chemical-library/molecular_docking/3D_ligand_structure/139.pdb
REMARK  0 active torsions:
REMARK  status: ('A' for Active; 'I' for Inactive)
REMARK                            x       y       z     vdW  Elec       q    Type
REMARK                         _______ _______ _______ _____ _____    ______ ____
ROOT
ATOM      1  O1  UNL     1     -27.618  -2.952 -28.911  0.00  0.00    +0.000 OA
ATOM      2  C1  UNL     1     -26.766  -3.490 -28.235  0.00  0.00    +0.000 C 
ATOM      3  N1  UNL     1     -25.381  -3.309 -28.405  0.00  0.00    +0.000 N 
ATOM      4  S1  UNL     1     -24.453  -4.401 -27.540  0.00  0.00    +0.000 S 
ATOM      5  O2  UNL     1     -23.912  -5.366 -28.465  0.00  0.00    +0.000 OA
ATOM      6  O3  UNL     1     -23.667  -3.686 -26.566  0.00  0.00    +0.000 OA
ATOM      7  C2  UNL     1     -25.833  -5.096 -26.743  0.00  0.00    +0.000 A 
ATOM      8  C3  UNL     1     -27.004  -4.498 -27.186  0.00  0.00    +0.000 A 
ATOM      9  C4  UNL     1     -25.818  -6.085 -25.776  0.00  0.00    +0.000 A 
ATOM     10  C5  UNL     1     -27.051  -6.484 -25.255  0.00  0.00    +0.000 A 
ATOM     11  C6  UNL     1     -28.249  -5.893 -25.703  0.00  0.00    +0.000 A 
ATOM     12  C7  UNL     1     -28.232  -4.891 -26.680  0.00  0.00    +0.000 A 
ATOM     13  H1  UNL     1     -25.062  -3.014 -29.323  0.00  0.00    +0.000 HD
ENDROOT
TORSDOF 0
ENDMDL
MODEL 7
REMARK VINA RESULT:    -4.186      5.029      6.524
REMARK INTER + INTRA:          -4.186
REMARK INTER:                  -4.186
REMARK INTRA:                   0.000
REMARK UNBOUND:                 0.000
REMARK  Name = /home/anacleto/Desktop/manuscript_Mpro/naturecomm/supplementary_file_S2/6-chemical-library/molecular_docking/3D_ligand_structure/139.pdb
REMARK  0 active torsions:
REMARK  status: ('A' for Active; 'I' for Inactive)
REMARK                            x       y       z     vdW  Elec       q    Type
REMARK                         _______ _______ _______ _____ _____    ______ ____
ROOT
ATOM      1  O1  UNL     1     -27.867   7.054 -39.693  0.00  0.00    +0.000 OA
ATOM      2  C1  UNL     1     -26.942   6.349 -39.345  0.00  0.00    +0.000 C 
ATOM      3  N1  UNL     1     -25.589   6.733 -39.386  0.00  0.00    +0.000 N 
ATOM      4  S1  UNL     1     -24.527   5.464 -39.136  0.00  0.00    +0.000 S 
ATOM      5  O2  UNL     1     -23.928   5.121 -40.402  0.00  0.00    +0.000 OA
ATOM      6  O3  UNL     1     -23.780   5.703 -37.926  0.00  0.00    +0.000 OA
ATOM      7  C2  UNL     1     -25.802   4.332 -38.791  0.00  0.00    +0.000 A 
ATOM      8  C3  UNL     1     -27.042   4.944 -38.911  0.00  0.00    +0.000 A 
ATOM      9  C4  UNL     1     -25.655   3.010 -38.417  0.00  0.00    +0.000 A 
ATOM     10  C5  UNL     1     -26.822   2.284 -38.169  0.00  0.00    +0.000 A 
ATOM     11  C6  UNL     1     -28.088   2.889 -38.298  0.00  0.00    +0.000 A 
ATOM     12  C7  UNL     1     -28.206   4.232 -38.674  0.00  0.00    +0.000 A 
ATOM     13  H1  UNL     1     -25.335   7.462 -40.045  0.00  0.00    +0.000 HD
ENDROOT
TORSDOF 0
ENDMDL
MODEL 8
REMARK VINA RESULT:    -4.127      3.057      4.213
REMARK INTER + INTRA:          -4.127
REMARK INTER:                  -4.127
REMARK INTRA:                   0.000
REMARK UNBOUND:                 0.000
REMARK  Name = /home/anacleto/Desktop/manuscript_Mpro/naturecomm/supplementary_file_S2/6-chemical-library/molecular_docking/3D_ligand_structure/139.pdb
REMARK  0 active torsions:
REMARK  status: ('A' for Active; 'I' for Inactive)
REMARK                            x       y       z     vdW  Elec       q    Type
REMARK                         _______ _______ _______ _____ _____    ______ ____
ROOT
ATOM      1  O1  UNL     1     -18.906   5.650 -40.524  0.00  0.00    +0.000 OA
ATOM      2  C1  UNL     1     -18.923   6.818 -40.194  0.00  0.00    +0.000 C 
ATOM      3  N1  UNL     1     -18.020   7.791 -40.662  0.00  0.00    +0.000 N 
ATOM      4  S1  UNL     1     -18.091   9.232 -39.812  0.00  0.00    +0.000 S 
ATOM      5  O2  UNL     1     -16.927   9.311 -38.964  0.00  0.00    +0.000 OA
ATOM      6  O3  UNL     1     -18.519  10.284 -40.699  0.00  0.00    +0.000 OA
ATOM      7  C2  UNL     1     -19.450   8.717 -38.856  0.00  0.00    +0.000 A 
ATOM      8  C3  UNL     1     -19.811   7.418 -39.182  0.00  0.00    +0.000 A 
ATOM      9  C4  UNL     1     -20.129   9.468 -37.915  0.00  0.00    +0.000 A 
ATOM     10  C5  UNL     1     -21.211   8.858 -37.274  0.00  0.00    +0.000 A 
ATOM     11  C6  UNL     1     -21.582   7.536 -37.587  0.00  0.00    +0.000 A 
ATOM     12  C7  UNL     1     -20.877   6.802 -38.548  0.00  0.00    +0.000 A 
ATOM     13  H1  UNL     1     -17.120   7.464 -40.998  0.00  0.00    +0.000 HD
ENDROOT
TORSDOF 0
ENDMDL
MODEL 9
REMARK VINA RESULT:    -4.099      6.139      7.031
REMARK INTER + INTRA:          -4.099
REMARK INTER:                  -4.099
REMARK INTRA:                   0.000
REMARK UNBOUND:                 0.000
REMARK  Name = /home/anacleto/Desktop/manuscript_Mpro/naturecomm/supplementary_file_S2/6-chemical-library/molecular_docking/3D_ligand_structure/139.pdb
REMARK  0 active torsions:
REMARK  status: ('A' for Active; 'I' for Inactive)
REMARK                            x       y       z     vdW  Elec       q    Type
REMARK                         _______ _______ _______ _____ _____    ______ ____
ROOT
ATOM      1  O1  UNL     1     -27.477   1.934 -38.116  0.00  0.00    +0.000 OA
ATOM      2  C1  UNL     1     -27.695   3.112 -38.315  0.00  0.00    +0.000 C 
ATOM      3  N1  UNL     1     -28.977   3.691 -38.345  0.00  0.00    +0.000 N 
ATOM      4  S1  UNL     1     -28.989   5.256 -38.937  0.00  0.00    +0.000 S 
ATOM      5  O2  UNL     1     -29.539   5.230 -40.270  0.00  0.00    +0.000 OA
ATOM      6  O3  UNL     1     -29.431   6.151 -37.898  0.00  0.00    +0.000 OA
ATOM      7  C2  UNL     1     -27.255   5.336 -39.046  0.00  0.00    +0.000 A 
ATOM      8  C3  UNL     1     -26.687   4.132 -38.655  0.00  0.00    +0.000 A 
ATOM      9  C4  UNL     1     -26.501   6.429 -39.429  0.00  0.00    +0.000 A 
ATOM     10  C5  UNL     1     -25.112   6.277 -39.426  0.00  0.00    +0.000 A 
ATOM     11  C6  UNL     1     -24.522   5.057 -39.044  0.00  0.00    +0.000 A 
ATOM     12  C7  UNL     1     -25.311   3.968 -38.656  0.00  0.00    +0.000 A 
ATOM     13  H1  UNL     1     -29.756   3.078 -38.564  0.00  0.00    +0.000 HD
ENDROOT
TORSDOF 0
ENDMDL
