MODEL 1
REMARK VINA RESULT:    -4.671      0.000      0.000
REMARK INTER + INTRA:          -5.739
REMARK INTER:                  -5.584
REMARK INTRA:                  -0.155
REMARK UNBOUND:                -0.248
REMARK  Name = /home/anacleto/Desktop/manuscript_Mpro/naturecomm/supplementary_file_S2/6-chemical-library/molecular_docking/3D_ligand_structure/1125.pdb
REMARK  3 active torsions:
REMARK  status: ('A' for Active; 'I' for Inactive)
REMARK    1  A    between atoms: C4_5  and  C5_6
REMARK    2  A    between atoms: C5_6  and  N1_7
REMARK    3  A    between atoms: N1_7  and  C6_8
REMARK                            x       y       z     vdW  Elec       q    Type
REMARK                         _______ _______ _______ _____ _____    ______ ____
ROOT
ATOM      1  N1  UNL     1     -23.998   5.007 -37.898  0.00  0.00    +0.000 N 
ATOM      2  H6  UNL     1     -24.511   4.944 -37.023  0.00  0.00    +0.000 HD
ENDROOT
BRANCH   1   3
ATOM      3  C6  UNL     1     -23.271   6.206 -37.933  0.00  0.00    +0.000 A 
ATOM      4  C7  UNL     1     -21.880   6.128 -37.969  0.00  0.00    +0.000 A 
ATOM      5  C8  UNL     1     -21.124   7.297 -38.036  0.00  0.00    +0.000 A 
ATOM      6  C9  UNL     1     -21.775   8.521 -38.074  0.00  0.00    +0.000 A 
ATOM      7  C10 UNL     1     -23.158   8.516 -38.050  0.00  0.00    +0.000 A 
ATOM      8  N2  UNL     1     -23.909   7.393 -37.985  0.00  0.00    +0.000 NA
ENDBRANCH   1   3
BRANCH   1   9
ATOM      9  C5  UNL     1     -24.908   4.826 -39.026  0.00  0.00    +0.000 C 
BRANCH   9  14
ATOM     10  O1  UNL     1     -27.301   4.425 -38.833  0.00  0.00    +0.000 OA
ATOM     11  C1  UNL     1     -28.168   3.439 -38.486  0.00  0.00    +0.000 A 
ATOM     12  C2  UNL     1     -27.487   2.299 -38.129  0.00  0.00    +0.000 A 
ATOM     13  C3  UNL     1     -26.111   2.603 -38.265  0.00  0.00    +0.000 A 
ATOM     14  C4  UNL     1     -26.042   3.910 -38.703  0.00  0.00    +0.000 A 
ENDBRANCH   9  14
ENDBRANCH   1   9
TORSDOF 3
ENDMDL
MODEL 2
REMARK VINA RESULT:    -4.538      4.328      5.681
REMARK INTER + INTRA:          -5.582
REMARK INTER:                  -5.252
REMARK INTRA:                  -0.331
REMARK UNBOUND:                -0.248
REMARK  Name = /home/anacleto/Desktop/manuscript_Mpro/naturecomm/supplementary_file_S2/6-chemical-library/molecular_docking/3D_ligand_structure/1125.pdb
REMARK  3 active torsions:
REMARK  status: ('A' for Active; 'I' for Inactive)
REMARK    1  A    between atoms: C4_5  and  C5_6
REMARK    2  A    between atoms: C5_6  and  N1_7
REMARK    3  A    between atoms: N1_7  and  C6_8
REMARK                            x       y       z     vdW  Elec       q    Type
REMARK                         _______ _______ _______ _____ _____    ______ ____
ROOT
ATOM      1  N1  UNL     1     -29.386   2.656 -39.986  0.00  0.00    +0.000 N 
ATOM      2  H6  UNL     1     -29.985   2.337 -39.230  0.00  0.00    +0.000 HD
ENDROOT
BRANCH   1   3
ATOM      3  C6  UNL     1     -28.052   2.677 -39.552  0.00  0.00    +0.000 A 
ATOM      4  C7  UNL     1     -27.794   2.389 -38.212  0.00  0.00    +0.000 A 
ATOM      5  C8  UNL     1     -26.480   2.369 -37.751  0.00  0.00    +0.000 A 
ATOM      6  C9  UNL     1     -25.448   2.630 -38.640  0.00  0.00    +0.000 A 
ATOM      7  C10 UNL     1     -25.783   2.893 -39.956  0.00  0.00    +0.000 A 
ATOM      8  N2  UNL     1     -27.051   2.917 -40.423  0.00  0.00    +0.000 NA
ENDBRANCH   1   3
BRANCH   1   9
ATOM      9  C5  UNL     1     -29.869   3.935 -40.501  0.00  0.00    +0.000 C 
BRANCH   9  14
ATOM     10  O1  UNL     1     -29.023   6.044 -39.629  0.00  0.00    +0.000 OA
ATOM     11  C1  UNL     1     -29.199   6.881 -38.575  0.00  0.00    +0.000 A 
ATOM     12  C2  UNL     1     -30.159   6.391 -37.722  0.00  0.00    +0.000 A 
ATOM     13  C3  UNL     1     -30.604   5.172 -38.289  0.00  0.00    +0.000 A 
ATOM     14  C4  UNL     1     -29.888   5.000 -39.456  0.00  0.00    +0.000 A 
ENDBRANCH   9  14
ENDBRANCH   1   9
TORSDOF 3
ENDMDL
MODEL 3
REMARK VINA RESULT:    -4.507      1.752      5.804
REMARK INTER + INTRA:          -5.546
REMARK INTER:                  -5.377
REMARK INTRA:                  -0.168
REMARK UNBOUND:                -0.248
REMARK  Name = /home/anacleto/Desktop/manuscript_Mpro/naturecomm/supplementary_file_S2/6-chemical-library/molecular_docking/3D_ligand_structure/1125.pdb
REMARK  3 active torsions:
REMARK  status: ('A' for Active; 'I' for Inactive)
REMARK    1  A    between atoms: C4_5  and  C5_6
REMARK    2  A    between atoms: C5_6  and  N1_7
REMARK    3  A    between atoms: N1_7  and  C6_8
REMARK                            x       y       z     vdW  Elec       q    Type
REMARK                         _______ _______ _______ _____ _____    ______ ____
ROOT
ATOM      1  N1  UNL     1     -24.506   4.529 -38.194  0.00  0.00    +0.000 N 
ATOM      2  H6  UNL     1     -23.852   3.752 -38.172  0.00  0.00    +0.000 HD
ENDROOT
BRANCH   1   3
ATOM      3  C6  UNL     1     -25.800   4.049 -38.442  0.00  0.00    +0.000 A 
ATOM      4  C7  UNL     1     -26.080   2.723 -38.114  0.00  0.00    +0.000 A 
ATOM      5  C8  UNL     1     -27.363   2.218 -38.317  0.00  0.00    +0.000 A 
ATOM      6  C9  UNL     1     -28.343   3.052 -38.834  0.00  0.00    +0.000 A 
ATOM      7  C10 UNL     1     -27.992   4.359 -39.119  0.00  0.00    +0.000 A 
ATOM      8  N2  UNL     1     -26.754   4.867 -38.931  0.00  0.00    +0.000 NA
ENDBRANCH   1   3
BRANCH   1   9
ATOM      9  C5  UNL     1     -24.050   5.540 -39.145  0.00  0.00    +0.000 C 
BRANCH   9  14
ATOM     10  O1  UNL     1     -23.434   7.761 -38.363  0.00  0.00    +0.000 OA
ATOM     11  C1  UNL     1     -22.375   8.422 -37.829  0.00  0.00    +0.000 A 
ATOM     12  C2  UNL     1     -21.303   7.574 -37.677  0.00  0.00    +0.000 A 
ATOM     13  C3  UNL     1     -21.731   6.309 -38.149  0.00  0.00    +0.000 A 
ATOM     14  C4  UNL     1     -23.040   6.466 -38.553  0.00  0.00    +0.000 A 
ENDBRANCH   9  14
ENDBRANCH   1   9
TORSDOF 3
ENDMDL
MODEL 4
REMARK VINA RESULT:    -4.410     25.857     26.998
REMARK INTER + INTRA:          -5.432
REMARK INTER:                  -5.221
REMARK INTRA:                  -0.211
REMARK UNBOUND:                -0.248
REMARK  Name = /home/anacleto/Desktop/manuscript_Mpro/naturecomm/supplementary_file_S2/6-chemical-library/molecular_docking/3D_ligand_structure/1125.pdb
REMARK  3 active torsions:
REMARK  status: ('A' for Active; 'I' for Inactive)
REMARK    1  A    between atoms: C4_5  and  C5_6
REMARK    2  A    between atoms: C5_6  and  N1_7
REMARK    3  A    between atoms: N1_7  and  C6_8
REMARK                            x       y       z     vdW  Elec       q    Type
REMARK                         _______ _______ _______ _____ _____    ______ ____
ROOT
ATOM      1  N1  UNL     1     -37.351   5.505 -15.302  0.00  0.00    +0.000 N 
ATOM      2  H6  UNL     1     -36.355   5.698 -15.354  0.00  0.00    +0.000 HD
ENDROOT
BRANCH   1   3
ATOM      3  C6  UNL     1     -38.047   6.692 -15.033  0.00  0.00    +0.000 A 
ATOM      4  C7  UNL     1     -37.512   7.888 -15.511  0.00  0.00    +0.000 A 
ATOM      5  C8  UNL     1     -38.191   9.085 -15.291  0.00  0.00    +0.000 A 
ATOM      6  C9  UNL     1     -39.396   9.061 -14.605  0.00  0.00    +0.000 A 
ATOM      7  C10 UNL     1     -39.869   7.834 -14.175  0.00  0.00    +0.000 A 
ATOM      8  N2  UNL     1     -39.226   6.663 -14.378  0.00  0.00    +0.000 NA
ENDBRANCH   1   3
BRANCH   1   9
ATOM      9  C5  UNL     1     -37.603   4.432 -14.342  0.00  0.00    +0.000 C 
BRANCH   9  14
ATOM     10  O1  UNL     1     -37.255   2.981 -16.265  0.00  0.00    +0.000 OA
ATOM     11  C1  UNL     1     -37.512   1.712 -16.673  0.00  0.00    +0.000 A 
ATOM     12  C2  UNL     1     -38.181   1.016 -15.695  0.00  0.00    +0.000 A 
ATOM     13  C3  UNL     1     -38.347   1.915 -14.614  0.00  0.00    +0.000 A 
ATOM     14  C4  UNL     1     -37.762   3.103 -15.001  0.00  0.00    +0.000 A 
ENDBRANCH   9  14
ENDBRANCH   1   9
TORSDOF 3
ENDMDL
MODEL 5
REMARK VINA RESULT:    -3.970     13.673     14.652
REMARK INTER + INTRA:          -4.914
REMARK INTER:                  -4.719
REMARK INTRA:                  -0.195
REMARK UNBOUND:                -0.248
REMARK  Name = /home/anacleto/Desktop/manuscript_Mpro/naturecomm/supplementary_file_S2/6-chemical-library/molecular_docking/3D_ligand_structure/1125.pdb
REMARK  3 active torsions:
REMARK  status: ('A' for Active; 'I' for Inactive)
REMARK    1  A    between atoms: C4_5  and  C5_6
REMARK    2  A    between atoms: C5_6  and  N1_7
REMARK    3  A    between atoms: N1_7  and  C6_8
REMARK                            x       y       z     vdW  Elec       q    Type
REMARK                         _______ _______ _______ _____ _____    ______ ____
ROOT
ATOM      1  N1  UNL     1     -34.712  -3.639 -36.388  0.00  0.00    +0.000 N 
ATOM      2  H6  UNL     1     -34.329  -3.646 -35.447  0.00  0.00    +0.000 HD
ENDROOT
BRANCH   1   3
ATOM      3  C6  UNL     1     -35.597  -2.560 -36.529  0.00  0.00    +0.000 A 
ATOM      4  C7  UNL     1     -35.296  -1.375 -35.858  0.00  0.00    +0.000 A 
ATOM      5  C8  UNL     1     -36.134  -0.271 -35.998  0.00  0.00    +0.000 A 
ATOM      6  C9  UNL     1     -37.251  -0.370 -36.815  0.00  0.00    +0.000 A 
ATOM      7  C10 UNL     1     -37.474  -1.574 -37.458  0.00  0.00    +0.000 A 
ATOM      8  N2  UNL     1     -36.674  -2.656 -37.335  0.00  0.00    +0.000 NA
ENDBRANCH   1   3
BRANCH   1   9
ATOM      9  C5  UNL     1     -35.300  -4.940 -36.698  0.00  0.00    +0.000 C 
BRANCH   9  14
ATOM     10  O1  UNL     1     -34.603  -7.158 -37.417  0.00  0.00    +0.000 OA
ATOM     11  C1  UNL     1     -33.656  -7.755 -38.185  0.00  0.00    +0.000 A 
ATOM     12  C2  UNL     1     -32.820  -6.815 -38.740  0.00  0.00    +0.000 A 
ATOM     13  C3  UNL     1     -33.282  -5.557 -38.282  0.00  0.00    +0.000 A 
ATOM     14  C4  UNL     1     -34.376  -5.812 -37.482  0.00  0.00    +0.000 A 
ENDBRANCH   9  14
ENDBRANCH   1   9
TORSDOF 3
ENDMDL
MODEL 6
REMARK VINA RESULT:    -3.964      4.355      5.656
REMARK INTER + INTRA:          -4.908
REMARK INTER:                  -4.724
REMARK INTRA:                  -0.184
REMARK UNBOUND:                -0.248
REMARK  Name = /home/anacleto/Desktop/manuscript_Mpro/naturecomm/supplementary_file_S2/6-chemical-library/molecular_docking/3D_ligand_structure/1125.pdb
REMARK  3 active torsions:
REMARK  status: ('A' for Active; 'I' for Inactive)
REMARK    1  A    between atoms: C4_5  and  C5_6
REMARK    2  A    between atoms: C5_6  and  N1_7
REMARK    3  A    between atoms: N1_7  and  C6_8
REMARK                            x       y       z     vdW  Elec       q    Type
REMARK                         _______ _______ _______ _____ _____    ______ ____
ROOT
ATOM      1  N1  UNL     1     -24.701  10.439 -37.337  0.00  0.00    +0.000 N 
ATOM      2  H6  UNL     1     -24.421  11.362 -37.657  0.00  0.00    +0.000 HD
ENDROOT
BRANCH   1   3
ATOM      3  C6  UNL     1     -23.618   9.554 -37.447  0.00  0.00    +0.000 A 
ATOM      4  C7  UNL     1     -22.423   9.900 -36.818  0.00  0.00    +0.000 A 
ATOM      5  C8  UNL     1     -21.335   9.032 -36.878  0.00  0.00    +0.000 A 
ATOM      6  C9  UNL     1     -21.466   7.831 -37.558  0.00  0.00    +0.000 A 
ATOM      7  C10 UNL     1     -22.688   7.552 -38.143  0.00  0.00    +0.000 A 
ATOM      8  N2  UNL     1     -23.755   8.380 -38.097  0.00  0.00    +0.000 NA
ENDBRANCH   1   3
BRANCH   1   9
ATOM      9  C5  UNL     1     -25.903  10.006 -38.047  0.00  0.00    +0.000 C 
BRANCH   9  14
ATOM     10  O1  UNL     1     -27.219  11.845 -37.147  0.00  0.00    +0.000 OA
ATOM     11  C1  UNL     1     -28.423  12.077 -36.563  0.00  0.00    +0.000 A 
ATOM     12  C2  UNL     1     -29.133  10.907 -36.437  0.00  0.00    +0.000 A 
ATOM     13  C3  UNL     1     -28.312   9.887 -36.978  0.00  0.00    +0.000 A 
ATOM     14  C4  UNL     1     -27.155  10.504 -37.405  0.00  0.00    +0.000 A 
ENDBRANCH   9  14
ENDBRANCH   1   9
TORSDOF 3
ENDMDL
MODEL 7
REMARK VINA RESULT:    -3.903     13.692     15.037
REMARK INTER + INTRA:          -4.836
REMARK INTER:                  -4.601
REMARK INTRA:                  -0.235
REMARK UNBOUND:                -0.248
REMARK  Name = /home/anacleto/Desktop/manuscript_Mpro/naturecomm/supplementary_file_S2/6-chemical-library/molecular_docking/3D_ligand_structure/1125.pdb
REMARK  3 active torsions:
REMARK  status: ('A' for Active; 'I' for Inactive)
REMARK    1  A    between atoms: C4_5  and  C5_6
REMARK    2  A    between atoms: C5_6  and  N1_7
REMARK    3  A    between atoms: N1_7  and  C6_8
REMARK                            x       y       z     vdW  Elec       q    Type
REMARK                         _______ _______ _______ _____ _____    ______ ____
ROOT
ATOM      1  N1  UNL     1     -34.700  -3.508 -36.381  0.00  0.00    +0.000 N 
ATOM      2  H6  UNL     1     -34.807  -3.904 -35.452  0.00  0.00    +0.000 HD
ENDROOT
BRANCH   1   3
ATOM      3  C6  UNL     1     -35.632  -2.475 -36.562  0.00  0.00    +0.000 A 
ATOM      4  C7  UNL     1     -35.432  -1.283 -35.866  0.00  0.00    +0.000 A 
ATOM      5  C8  UNL     1     -36.318  -0.223 -36.044  0.00  0.00    +0.000 A 
ATOM      6  C9  UNL     1     -37.382  -0.372 -36.922  0.00  0.00    +0.000 A 
ATOM      7  C10 UNL     1     -37.504  -1.578 -37.587  0.00  0.00    +0.000 A 
ATOM      8  N2  UNL     1     -36.656  -2.619 -37.427  0.00  0.00    +0.000 NA
ENDBRANCH   1   3
BRANCH   1   9
ATOM      9  C5  UNL     1     -34.774  -4.565 -37.387  0.00  0.00    +0.000 C 
BRANCH   9  14
ATOM     10  O1  UNL     1     -34.544  -6.987 -37.426  0.00  0.00    +0.000 OA
ATOM     11  C1  UNL     1     -34.942  -8.083 -36.731  0.00  0.00    +0.000 A 
ATOM     12  C2  UNL     1     -35.725  -7.720 -35.661  0.00  0.00    +0.000 A 
ATOM     13  C3  UNL     1     -35.815  -6.307 -35.700  0.00  0.00    +0.000 A 
ATOM     14  C4  UNL     1     -35.075  -5.899 -36.791  0.00  0.00    +0.000 A 
ENDBRANCH   9  14
ENDBRANCH   1   9
TORSDOF 3
ENDMDL
MODEL 8
REMARK VINA RESULT:    -3.885     25.575     27.160
REMARK INTER + INTRA:          -4.815
REMARK INTER:                  -4.626
REMARK INTRA:                  -0.189
REMARK UNBOUND:                -0.248
REMARK  Name = /home/anacleto/Desktop/manuscript_Mpro/naturecomm/supplementary_file_S2/6-chemical-library/molecular_docking/3D_ligand_structure/1125.pdb
REMARK  3 active torsions:
REMARK  status: ('A' for Active; 'I' for Inactive)
REMARK    1  A    between atoms: C4_5  and  C5_6
REMARK    2  A    between atoms: C5_6  and  N1_7
REMARK    3  A    between atoms: N1_7  and  C6_8
REMARK                            x       y       z     vdW  Elec       q    Type
REMARK                         _______ _______ _______ _____ _____    ______ ____
ROOT
ATOM      1  N1  UNL     1     -37.366   3.986 -15.745  0.00  0.00    +0.000 N 
ATOM      2  H6  UNL     1     -37.887   4.509 -16.444  0.00  0.00    +0.000 HD
ENDROOT
BRANCH   1   3
ATOM      3  C6  UNL     1     -37.615   2.614 -15.902  0.00  0.00    +0.000 A 
ATOM      4  C7  UNL     1     -37.200   2.004 -17.085  0.00  0.00    +0.000 A 
ATOM      5  C8  UNL     1     -37.401   0.637 -17.265  0.00  0.00    +0.000 A 
ATOM      6  C9  UNL     1     -38.006  -0.094 -16.253  0.00  0.00    +0.000 A 
ATOM      7  C10 UNL     1     -38.376   0.579 -15.103  0.00  0.00    +0.000 A 
ATOM      8  N2  UNL     1     -38.190   1.904 -14.911  0.00  0.00    +0.000 NA
ENDBRANCH   1   3
BRANCH   1   9
ATOM      9  C5  UNL     1     -37.664   4.500 -14.411  0.00  0.00    +0.000 C 
BRANCH   9  14
ATOM     10  O1  UNL     1     -37.495   6.855 -14.999  0.00  0.00    +0.000 OA
ATOM     11  C1  UNL     1     -38.217   8.003 -14.924  0.00  0.00    +0.000 A 
ATOM     12  C2  UNL     1     -39.433   7.771 -14.327  0.00  0.00    +0.000 A 
ATOM     13  C3  UNL     1     -39.462   6.390 -14.014  0.00  0.00    +0.000 A 
ATOM     14  C4  UNL     1     -38.261   5.868 -14.447  0.00  0.00    +0.000 A 
ENDBRANCH   9  14
ENDBRANCH   1   9
TORSDOF 3
ENDMDL
MODEL 9
REMARK VINA RESULT:    -3.810     23.921     25.607
REMARK INTER + INTRA:          -4.726
REMARK INTER:                  -4.478
REMARK INTRA:                  -0.248
REMARK UNBOUND:                -0.248
REMARK  Name = /home/anacleto/Desktop/manuscript_Mpro/naturecomm/supplementary_file_S2/6-chemical-library/molecular_docking/3D_ligand_structure/1125.pdb
REMARK  3 active torsions:
REMARK  status: ('A' for Active; 'I' for Inactive)
REMARK    1  A    between atoms: C4_5  and  C5_6
REMARK    2  A    between atoms: C5_6  and  N1_7
REMARK    3  A    between atoms: N1_7  and  C6_8
REMARK                            x       y       z     vdW  Elec       q    Type
REMARK                         _______ _______ _______ _____ _____    ______ ____
ROOT
ATOM      1  N1  UNL     1     -34.678  -2.464 -16.915  0.00  0.00    +0.000 N 
ATOM      2  H6  UNL     1     -33.724  -2.453 -17.265  0.00  0.00    +0.000 HD
ENDROOT
BRANCH   1   3
ATOM      3  C6  UNL     1     -35.298  -1.238 -17.200  0.00  0.00    +0.000 A 
ATOM      4  C7  UNL     1     -36.456  -0.911 -16.496  0.00  0.00    +0.000 A 
ATOM      5  C8  UNL     1     -37.083   0.311 -16.728  0.00  0.00    +0.000 A 
ATOM      6  C9  UNL     1     -36.533   1.187 -17.652  0.00  0.00    +0.000 A 
ATOM      7  C10 UNL     1     -35.374   0.798 -18.299  0.00  0.00    +0.000 A 
ATOM      8  N2  UNL     1     -34.751  -0.384 -18.088  0.00  0.00    +0.000 NA
ENDBRANCH   1   3
BRANCH   1   9
ATOM      9  C5  UNL     1     -34.688  -2.826 -15.500  0.00  0.00    +0.000 C 
BRANCH   9  14
ATOM     10  O1  UNL     1     -32.500  -3.820 -15.116  0.00  0.00    +0.000 OA
ATOM     11  C1  UNL     1     -31.336  -3.560 -14.467  0.00  0.00    +0.000 A 
ATOM     12  C2  UNL     1     -31.405  -2.350 -13.817  0.00  0.00    +0.000 A 
ATOM     13  C3  UNL     1     -32.696  -1.833 -14.083  0.00  0.00    +0.000 A 
ATOM     14  C4  UNL     1     -33.330  -2.759 -14.884  0.00  0.00    +0.000 A 
ENDBRANCH   9  14
ENDBRANCH   1   9
TORSDOF 3
ENDMDL
