MODEL 1
REMARK VINA RESULT:    -4.498      0.000      0.000
REMARK INTER + INTRA:          -5.250
REMARK INTER:                  -5.074
REMARK INTRA:                  -0.176
REMARK UNBOUND:                -0.226
REMARK  Name = /home/anacleto/Desktop/manuscript_Mpro/naturecomm/supplementary_file_S2/6-chemical-library/molecular_docking/3D_ligand_structure/990.pdb
REMARK  2 active torsions:
REMARK  status: ('A' for Active; 'I' for Inactive)
REMARK    1  A    between atoms: C6_6  and  C7_7
REMARK    2  A    between atoms: C7_7  and  N1_8
REMARK                            x       y       z     vdW  Elec       q    Type
REMARK                         _______ _______ _______ _____ _____    ______ ____
ROOT
ATOM      1  C7  UNL     1     -24.278  -4.557 -26.705  0.00  0.00    +0.000 C 
ENDROOT
BRANCH   1   2
ATOM      2  N1  UNL     1     -25.722  -4.707 -26.755  0.00  0.00    +0.000 N 
ATOM      3  C8  UNL     1     -26.362  -5.505 -25.840  0.00  0.00    +0.000 A 
ATOM      4  N2  UNL     1     -27.638  -5.709 -25.795  0.00  0.00    +0.000 NA
ATOM      5  C9  UNL     1     -28.389  -5.060 -26.735  0.00  0.00    +0.000 A 
ATOM      6  C10 UNL     1     -27.898  -4.252 -27.677  0.00  0.00    +0.000 A 
ATOM      7  C11 UNL     1     -26.442  -4.037 -27.720  0.00  0.00    +0.000 A 
ATOM      8  O1  UNL     1     -25.964  -3.308 -28.584  0.00  0.00    +0.000 OA
ENDBRANCH   1   2
BRANCH   1  14
ATOM      9  C1  UNL     1     -24.306  -3.026 -24.684  0.00  0.00    +0.000 A 
ATOM     10  C2  UNL     1     -23.842  -2.659 -23.420  0.00  0.00    +0.000 A 
ATOM     11  C3  UNL     1     -22.860  -3.420 -22.787  0.00  0.00    +0.000 A 
ATOM     12  C4  UNL     1     -22.341  -4.548 -23.418  0.00  0.00    +0.000 A 
ATOM     13  C5  UNL     1     -22.804  -4.918 -24.682  0.00  0.00    +0.000 A 
ATOM     14  C6  UNL     1     -23.794  -4.163 -25.327  0.00  0.00    +0.000 A 
ENDBRANCH   1  14
TORSDOF 2
ENDMDL
MODEL 2
REMARK VINA RESULT:    -4.489      0.796      1.555
REMARK INTER + INTRA:          -5.241
REMARK INTER:                  -5.181
REMARK INTRA:                  -0.060
REMARK UNBOUND:                -0.226
REMARK  Name = /home/anacleto/Desktop/manuscript_Mpro/naturecomm/supplementary_file_S2/6-chemical-library/molecular_docking/3D_ligand_structure/990.pdb
REMARK  2 active torsions:
REMARK  status: ('A' for Active; 'I' for Inactive)
REMARK    1  A    between atoms: C6_6  and  C7_7
REMARK    2  A    between atoms: C7_7  and  N1_8
REMARK                            x       y       z     vdW  Elec       q    Type
REMARK                         _______ _______ _______ _____ _____    ______ ____
ROOT
ATOM      1  C7  UNL     1     -24.180  -5.086 -26.657  0.00  0.00    +0.000 C 
ENDROOT
BRANCH   1   2
ATOM      2  N1  UNL     1     -25.495  -4.642 -27.086  0.00  0.00    +0.000 N 
ATOM      3  C8  UNL     1     -26.617  -5.079 -26.428  0.00  0.00    +0.000 A 
ATOM      4  N2  UNL     1     -27.831  -4.749 -26.727  0.00  0.00    +0.000 NA
ATOM      5  C9  UNL     1     -27.984  -3.887 -27.777  0.00  0.00    +0.000 A 
ATOM      6  C10 UNL     1     -26.982  -3.381 -28.499  0.00  0.00    +0.000 A 
ATOM      7  C11 UNL     1     -25.606  -3.774 -28.151  0.00  0.00    +0.000 A 
ATOM      8  O1  UNL     1     -24.667  -3.332 -28.806  0.00  0.00    +0.000 OA
ENDBRANCH   1   2
BRANCH   1  14
ATOM      9  C1  UNL     1     -22.903  -5.149 -24.467  0.00  0.00    +0.000 A 
ATOM     10  C2  UNL     1     -22.550  -4.586 -23.240  0.00  0.00    +0.000 A 
ATOM     11  C3  UNL     1     -23.069  -3.349 -22.862  0.00  0.00    +0.000 A 
ATOM     12  C4  UNL     1     -23.942  -2.673 -23.711  0.00  0.00    +0.000 A 
ATOM     13  C5  UNL     1     -24.296  -3.233 -24.940  0.00  0.00    +0.000 A 
ATOM     14  C6  UNL     1     -23.778  -4.475 -25.333  0.00  0.00    +0.000 A 
ENDBRANCH   1  14
TORSDOF 2
ENDMDL
MODEL 3
REMARK VINA RESULT:    -4.309     15.255     16.354
REMARK INTER + INTRA:          -5.039
REMARK INTER:                  -5.061
REMARK INTRA:                   0.023
REMARK UNBOUND:                -0.226
REMARK  Name = /home/anacleto/Desktop/manuscript_Mpro/naturecomm/supplementary_file_S2/6-chemical-library/molecular_docking/3D_ligand_structure/990.pdb
REMARK  2 active torsions:
REMARK  status: ('A' for Active; 'I' for Inactive)
REMARK    1  A    between atoms: C6_6  and  C7_7
REMARK    2  A    between atoms: C7_7  and  N1_8
REMARK                            x       y       z     vdW  Elec       q    Type
REMARK                         _______ _______ _______ _____ _____    ______ ____
ROOT
ATOM      1  C7  UNL     1     -25.244   5.227 -40.502  0.00  0.00    +0.000 C 
ENDROOT
BRANCH   1   2
ATOM      2  N1  UNL     1     -26.221   4.481 -39.727  0.00  0.00    +0.000 N 
ATOM      3  C8  UNL     1     -27.237   5.141 -39.083  0.00  0.00    +0.000 A 
ATOM      4  N2  UNL     1     -28.154   4.578 -38.368  0.00  0.00    +0.000 NA
ATOM      5  C9  UNL     1     -28.095   3.216 -38.269  0.00  0.00    +0.000 A 
ATOM      6  C10 UNL     1     -27.167   2.450 -38.848  0.00  0.00    +0.000 A 
ATOM      7  C11 UNL     1     -26.123   3.108 -39.651  0.00  0.00    +0.000 A 
ATOM      8  O1  UNL     1     -25.251   2.428 -40.184  0.00  0.00    +0.000 OA
ENDBRANCH   1   2
BRANCH   1  14
ATOM      9  C1  UNL     1     -23.955   5.268 -38.320  0.00  0.00    +0.000 A 
ATOM     10  C2  UNL     1     -22.859   5.669 -37.552  0.00  0.00    +0.000 A 
ATOM     11  C3  UNL     1     -21.855   6.449 -38.121  0.00  0.00    +0.000 A 
ATOM     12  C4  UNL     1     -21.943   6.829 -39.458  0.00  0.00    +0.000 A 
ATOM     13  C5  UNL     1     -23.036   6.429 -40.228  0.00  0.00    +0.000 A 
ATOM     14  C6  UNL     1     -24.052   5.641 -39.668  0.00  0.00    +0.000 A 
ENDBRANCH   1  14
TORSDOF 2
ENDMDL
MODEL 4
REMARK VINA RESULT:    -4.304     15.867     17.656
REMARK INTER + INTRA:          -5.033
REMARK INTER:                  -4.885
REMARK INTRA:                  -0.148
REMARK UNBOUND:                -0.226
REMARK  Name = /home/anacleto/Desktop/manuscript_Mpro/naturecomm/supplementary_file_S2/6-chemical-library/molecular_docking/3D_ligand_structure/990.pdb
REMARK  2 active torsions:
REMARK  status: ('A' for Active; 'I' for Inactive)
REMARK    1  A    between atoms: C6_6  and  C7_7
REMARK    2  A    between atoms: C7_7  and  N1_8
REMARK                            x       y       z     vdW  Elec       q    Type
REMARK                         _______ _______ _______ _____ _____    ______ ____
ROOT
ATOM      1  C7  UNL     1     -24.716   6.399 -38.928  0.00  0.00    +0.000 C 
ENDROOT
BRANCH   1   2
ATOM      2  N1  UNL     1     -23.335   6.834 -39.051  0.00  0.00    +0.000 N 
ATOM      3  C8  UNL     1     -22.985   7.751 -40.010  0.00  0.00    +0.000 A 
ATOM      4  N2  UNL     1     -21.791   8.203 -40.207  0.00  0.00    +0.000 NA
ATOM      5  C9  UNL     1     -20.817   7.726 -39.374  0.00  0.00    +0.000 A 
ATOM      6  C10 UNL     1     -21.018   6.839 -38.397  0.00  0.00    +0.000 A 
ATOM      7  C11 UNL     1     -22.383   6.327 -38.193  0.00  0.00    +0.000 A 
ATOM      8  O1  UNL     1     -22.593   5.501 -37.309  0.00  0.00    +0.000 OA
ENDBRANCH   1   2
BRANCH   1  14
ATOM      9  C1  UNL     1     -25.439   3.981 -38.688  0.00  0.00    +0.000 A 
ATOM     10  C2  UNL     1     -25.615   2.698 -39.210  0.00  0.00    +0.000 A 
ATOM     11  C3  UNL     1     -25.278   2.430 -40.536  0.00  0.00    +0.000 A 
ATOM     12  C4  UNL     1     -24.765   3.444 -41.341  0.00  0.00    +0.000 A 
ATOM     13  C5  UNL     1     -24.589   4.728 -40.822  0.00  0.00    +0.000 A 
ATOM     14  C6  UNL     1     -24.927   5.011 -39.491  0.00  0.00    +0.000 A 
ENDBRANCH   1  14
TORSDOF 2
ENDMDL
MODEL 5
REMARK VINA RESULT:    -4.268      1.406      1.846
REMARK INTER + INTRA:          -4.993
REMARK INTER:                  -5.000
REMARK INTRA:                   0.007
REMARK UNBOUND:                -0.226
REMARK  Name = /home/anacleto/Desktop/manuscript_Mpro/naturecomm/supplementary_file_S2/6-chemical-library/molecular_docking/3D_ligand_structure/990.pdb
REMARK  2 active torsions:
REMARK  status: ('A' for Active; 'I' for Inactive)
REMARK    1  A    between atoms: C6_6  and  C7_7
REMARK    2  A    between atoms: C7_7  and  N1_8
REMARK                            x       y       z     vdW  Elec       q    Type
REMARK                         _______ _______ _______ _____ _____    ______ ____
ROOT
ATOM      1  C7  UNL     1     -24.035  -4.887 -26.799  0.00  0.00    +0.000 C 
ENDROOT
BRANCH   1   2
ATOM      2  N1  UNL     1     -25.390  -4.554 -27.204  0.00  0.00    +0.000 N 
ATOM      3  C8  UNL     1     -25.606  -3.592 -28.158  0.00  0.00    +0.000 A 
ATOM      4  N2  UNL     1     -26.766  -3.219 -28.589  0.00  0.00    +0.000 NA
ATOM      5  C9  UNL     1     -27.848  -3.854 -28.045  0.00  0.00    +0.000 A 
ATOM      6  C10 UNL     1     -27.782  -4.810 -27.116  0.00  0.00    +0.000 A 
ATOM      7  C11 UNL     1     -26.454  -5.217 -26.629  0.00  0.00    +0.000 A 
ATOM      8  O1  UNL     1     -26.366  -6.085 -25.766  0.00  0.00    +0.000 OA
ENDBRANCH   1   2
BRANCH   1  14
ATOM      9  C1  UNL     1     -24.305  -3.186 -24.938  0.00  0.00    +0.000 A 
ATOM     10  C2  UNL     1     -23.985  -2.698 -23.670  0.00  0.00    +0.000 A 
ATOM     11  C3  UNL     1     -23.063  -3.373 -22.873  0.00  0.00    +0.000 A 
ATOM     12  C4  UNL     1     -22.460  -4.537 -23.342  0.00  0.00    +0.000 A 
ATOM     13  C5  UNL     1     -22.779  -5.029 -24.609  0.00  0.00    +0.000 A 
ATOM     14  C6  UNL     1     -23.708  -4.361 -25.419  0.00  0.00    +0.000 A 
ENDBRANCH   1  14
TORSDOF 2
ENDMDL
MODEL 6
REMARK VINA RESULT:    -4.265     15.019     16.871
REMARK INTER + INTRA:          -4.990
REMARK INTER:                  -4.693
REMARK INTRA:                  -0.297
REMARK UNBOUND:                -0.226
REMARK  Name = /home/anacleto/Desktop/manuscript_Mpro/naturecomm/supplementary_file_S2/6-chemical-library/molecular_docking/3D_ligand_structure/990.pdb
REMARK  2 active torsions:
REMARK  status: ('A' for Active; 'I' for Inactive)
REMARK    1  A    between atoms: C6_6  and  C7_7
REMARK    2  A    between atoms: C7_7  and  N1_8
REMARK                            x       y       z     vdW  Elec       q    Type
REMARK                         _______ _______ _______ _____ _____    ______ ____
ROOT
ATOM      1  C7  UNL     1     -28.786   5.342 -39.392  0.00  0.00    +0.000 C 
ENDROOT
BRANCH   1   2
ATOM      2  N1  UNL     1     -29.761   4.726 -40.276  0.00  0.00    +0.000 N 
ATOM      3  C8  UNL     1     -29.377   4.274 -41.513  0.00  0.00    +0.000 A 
ATOM      4  N2  UNL     1     -30.160   3.715 -42.376  0.00  0.00    +0.000 NA
ATOM      5  C9  UNL     1     -31.465   3.561 -42.000  0.00  0.00    +0.000 A 
ATOM      6  C10 UNL     1     -31.971   3.948 -40.827  0.00  0.00    +0.000 A 
ATOM      7  C11 UNL     1     -31.067   4.593 -39.859  0.00  0.00    +0.000 A 
ATOM      8  O1  UNL     1     -31.509   4.969 -38.778  0.00  0.00    +0.000 OA
ENDBRANCH   1   2
BRANCH   1  14
ATOM      9  C1  UNL     1     -27.992   3.183 -38.328  0.00  0.00    +0.000 A 
ATOM     10  C2  UNL     1     -26.972   2.307 -37.949  0.00  0.00    +0.000 A 
ATOM     11  C3  UNL     1     -25.643   2.619 -38.228  0.00  0.00    +0.000 A 
ATOM     12  C4  UNL     1     -25.330   3.806 -38.886  0.00  0.00    +0.000 A 
ATOM     13  C5  UNL     1     -26.348   4.683 -39.266  0.00  0.00    +0.000 A 
ATOM     14  C6  UNL     1     -27.689   4.379 -38.995  0.00  0.00    +0.000 A 
ENDBRANCH   1  14
TORSDOF 2
ENDMDL
MODEL 7
REMARK VINA RESULT:    -4.190     14.987     16.385
REMARK INTER + INTRA:          -4.906
REMARK INTER:                  -4.939
REMARK INTRA:                   0.033
REMARK UNBOUND:                -0.226
REMARK  Name = /home/anacleto/Desktop/manuscript_Mpro/naturecomm/supplementary_file_S2/6-chemical-library/molecular_docking/3D_ligand_structure/990.pdb
REMARK  2 active torsions:
REMARK  status: ('A' for Active; 'I' for Inactive)
REMARK    1  A    between atoms: C6_6  and  C7_7
REMARK    2  A    between atoms: C7_7  and  N1_8
REMARK                            x       y       z     vdW  Elec       q    Type
REMARK                         _______ _______ _______ _____ _____    ______ ____
ROOT
ATOM      1  C7  UNL     1     -25.266   5.611 -40.269  0.00  0.00    +0.000 C 
ENDROOT
BRANCH   1   2
ATOM      2  N1  UNL     1     -26.035   4.590 -39.578  0.00  0.00    +0.000 N 
ATOM      3  C8  UNL     1     -25.577   3.297 -39.534  0.00  0.00    +0.000 A 
ATOM      4  N2  UNL     1     -26.181   2.314 -38.951  0.00  0.00    +0.000 NA
ATOM      5  C9  UNL     1     -27.359   2.612 -38.325  0.00  0.00    +0.000 A 
ATOM      6  C10 UNL     1     -27.915   3.825 -38.284  0.00  0.00    +0.000 A 
ATOM      7  C11 UNL     1     -27.219   4.932 -38.962  0.00  0.00    +0.000 A 
ATOM      8  O1  UNL     1     -27.715   6.055 -38.950  0.00  0.00    +0.000 OA
ENDBRANCH   1   2
BRANCH   1  14
ATOM      9  C1  UNL     1     -22.885   6.483 -40.267  0.00  0.00    +0.000 A 
ATOM     10  C2  UNL     1     -21.676   6.740 -39.618  0.00  0.00    +0.000 A 
ATOM     11  C3  UNL     1     -21.526   6.423 -38.269  0.00  0.00    +0.000 A 
ATOM     12  C4  UNL     1     -22.583   5.850 -37.567  0.00  0.00    +0.000 A 
ATOM     13  C5  UNL     1     -23.794   5.594 -38.214  0.00  0.00    +0.000 A 
ATOM     14  C6  UNL     1     -23.959   5.910 -39.569  0.00  0.00    +0.000 A 
ENDBRANCH   1  14
TORSDOF 2
ENDMDL
MODEL 8
REMARK VINA RESULT:    -4.165      9.129     12.477
REMARK INTER + INTRA:          -4.878
REMARK INTER:                  -4.652
REMARK INTRA:                  -0.226
REMARK UNBOUND:                -0.226
REMARK  Name = /home/anacleto/Desktop/manuscript_Mpro/naturecomm/supplementary_file_S2/6-chemical-library/molecular_docking/3D_ligand_structure/990.pdb
REMARK  2 active torsions:
REMARK  status: ('A' for Active; 'I' for Inactive)
REMARK    1  A    between atoms: C6_6  and  C7_7
REMARK    2  A    between atoms: C7_7  and  N1_8
REMARK                            x       y       z     vdW  Elec       q    Type
REMARK                         _______ _______ _______ _____ _____    ______ ____
ROOT
ATOM      1  C7  UNL     1     -37.137  -2.063 -25.648  0.00  0.00    +0.000 C 
ENDROOT
BRANCH   1   2
ATOM      2  N1  UNL     1     -35.912  -2.826 -25.479  0.00  0.00    +0.000 N 
ATOM      3  C8  UNL     1     -34.694  -2.208 -25.612  0.00  0.00    +0.000 A 
ATOM      4  N2  UNL     1     -33.547  -2.790 -25.485  0.00  0.00    +0.000 NA
ATOM      5  C9  UNL     1     -33.574  -4.123 -25.183  0.00  0.00    +0.000 A 
ATOM      6  C10 UNL     1     -34.685  -4.845 -25.020  0.00  0.00    +0.000 A 
ATOM      7  C11 UNL     1     -35.983  -4.168 -25.178  0.00  0.00    +0.000 A 
ATOM      8  O1  UNL     1     -37.020  -4.812 -25.045  0.00  0.00    +0.000 OA
ENDBRANCH   1   2
BRANCH   1  14
ATOM      9  C1  UNL     1     -38.476  -2.900 -27.632  0.00  0.00    +0.000 A 
ATOM     10  C2  UNL     1     -38.849  -2.828 -28.976  0.00  0.00    +0.000 A 
ATOM     11  C3  UNL     1     -38.309  -1.841 -29.799  0.00  0.00    +0.000 A 
ATOM     12  C4  UNL     1     -37.397  -0.926 -29.281  0.00  0.00    +0.000 A 
ATOM     13  C5  UNL     1     -37.023  -0.995 -27.937  0.00  0.00    +0.000 A 
ATOM     14  C6  UNL     1     -37.561  -1.981 -27.098  0.00  0.00    +0.000 A 
ENDBRANCH   1  14
TORSDOF 2
ENDMDL
MODEL 9
REMARK VINA RESULT:    -4.149     14.942     16.936
REMARK INTER + INTRA:          -4.860
REMARK INTER:                  -4.598
REMARK INTRA:                  -0.263
REMARK UNBOUND:                -0.226
REMARK  Name = /home/anacleto/Desktop/manuscript_Mpro/naturecomm/supplementary_file_S2/6-chemical-library/molecular_docking/3D_ligand_structure/990.pdb
REMARK  2 active torsions:
REMARK  status: ('A' for Active; 'I' for Inactive)
REMARK    1  A    between atoms: C6_6  and  C7_7
REMARK    2  A    between atoms: C7_7  and  N1_8
REMARK                            x       y       z     vdW  Elec       q    Type
REMARK                         _______ _______ _______ _____ _____    ______ ____
ROOT
ATOM      1  C7  UNL     1     -25.025   5.040 -40.124  0.00  0.00    +0.000 C 
ENDROOT
BRANCH   1   2
ATOM      2  N1  UNL     1     -24.940   6.304 -39.412  0.00  0.00    +0.000 N 
ATOM      3  C8  UNL     1     -25.919   7.252 -39.576  0.00  0.00    +0.000 A 
ATOM      4  N2  UNL     1     -25.941   8.407 -38.996  0.00  0.00    +0.000 NA
ATOM      5  C9  UNL     1     -24.904   8.678 -38.147  0.00  0.00    +0.000 A 
ATOM      6  C10 UNL     1     -23.892   7.848 -37.891  0.00  0.00    +0.000 A 
ATOM      7  C11 UNL     1     -23.877   6.540 -38.569  0.00  0.00    +0.000 A 
ATOM      8  O1  UNL     1     -22.951   5.762 -38.360  0.00  0.00    +0.000 OA
ENDBRANCH   1   2
BRANCH   1  14
ATOM      9  C1  UNL     1     -25.545   3.231 -38.425  0.00  0.00    +0.000 A 
ATOM     10  C2  UNL     1     -26.429   2.331 -37.827  0.00  0.00    +0.000 A 
ATOM     11  C3  UNL     1     -27.753   2.262 -38.256  0.00  0.00    +0.000 A 
ATOM     12  C4  UNL     1     -28.196   3.092 -39.283  0.00  0.00    +0.000 A 
ATOM     13  C5  UNL     1     -27.314   3.994 -39.882  0.00  0.00    +0.000 A 
ATOM     14  C6  UNL     1     -25.981   4.076 -39.457  0.00  0.00    +0.000 A 
ENDBRANCH   1  14
TORSDOF 2
ENDMDL
