MODEL 1
REMARK VINA RESULT:    -4.995      0.000      0.000
REMARK INTER + INTRA:          -6.449
REMARK INTER:                  -6.207
REMARK INTRA:                  -0.242
REMARK UNBOUND:                -0.285
REMARK  Name = /home/anacleto/Desktop/manuscript_Mpro/naturecomm/supplementary_file_S2/6-chemical-library/molecular_docking/3D_ligand_structure/794.pdb
REMARK  4 active torsions:
REMARK  status: ('A' for Active; 'I' for Inactive)
REMARK    1  A    between atoms: C3_3  and  C4_4
REMARK    2  A    between atoms: C4_4  and  C5_5
REMARK    3  A    between atoms: C5_5  and  N1_6
REMARK    4  A    between atoms: N2_9  and  C7_10
REMARK                            x       y       z     vdW  Elec       q    Type
REMARK                         _______ _______ _______ _____ _____    ______ ____
ROOT
ATOM      1  N1  UNL     1      15.041  15.241  -3.112  0.00  0.00    +0.000 N 
ATOM      2  C6  UNL     1      14.811  13.954  -3.559  0.00  0.00    +0.000 C 
ATOM      3  O1  UNL     1      14.909  12.975  -2.831  0.00  0.00    +0.000 OA
ATOM      4  N2  UNL     1      14.451  13.959  -4.887  0.00  0.00    +0.000 N 
ATOM      5  H10 UNL     1      15.355  15.904  -3.804  0.00  0.00    +0.000 HD
ATOM      6  H11 UNL     1      14.197  14.861  -5.262  0.00  0.00    +0.000 HD
ENDROOT
BRANCH   4   7
ATOM      7  C7  UNL     1      14.215  12.839  -5.712  0.00  0.00    +0.000 A 
ATOM      8  C8  UNL     1      15.052  12.433  -6.747  0.00  0.00    +0.000 A 
ATOM      9  C9  UNL     1      14.719  11.314  -7.510  0.00  0.00    +0.000 A 
ATOM     10  C10 UNL     1      13.550  10.634  -7.215  0.00  0.00    +0.000 A 
ATOM     11  N3  UNL     1      12.706  10.995  -6.227  0.00  0.00    +0.000 NA
ATOM     12  C11 UNL     1      13.060  12.085  -5.503  0.00  0.00    +0.000 A 
ENDBRANCH   4   7
BRANCH   1  13
ATOM     13  C5  UNL     1      15.469  15.483  -1.746  0.00  0.00    +0.000 C 
BRANCH  13  14
ATOM     14  C4  UNL     1      14.394  16.187  -0.914  0.00  0.00    +0.000 C 
BRANCH  14  17
ATOM     15  C1  UNL     1      12.637  17.766  -2.011  0.00  0.00    +0.000 C 
ATOM     16  C2  UNL     1      11.890  16.907  -1.027  0.00  0.00    +0.000 C 
ATOM     17  C3  UNL     1      13.129  16.376  -1.699  0.00  0.00    +0.000 C 
ENDBRANCH  14  17
ENDBRANCH  13  14
ENDBRANCH   1  13
TORSDOF 4
ENDMDL
MODEL 2
REMARK VINA RESULT:    -4.950     16.651     17.368
REMARK INTER + INTRA:          -6.393
REMARK INTER:                  -6.164
REMARK INTRA:                  -0.229
REMARK UNBOUND:                -0.285
REMARK  Name = /home/anacleto/Desktop/manuscript_Mpro/naturecomm/supplementary_file_S2/6-chemical-library/molecular_docking/3D_ligand_structure/794.pdb
REMARK  4 active torsions:
REMARK  status: ('A' for Active; 'I' for Inactive)
REMARK    1  A    between atoms: C3_3  and  C4_4
REMARK    2  A    between atoms: C4_4  and  C5_5
REMARK    3  A    between atoms: C5_5  and  N1_6
REMARK    4  A    between atoms: N2_9  and  C7_10
REMARK                            x       y       z     vdW  Elec       q    Type
REMARK                         _______ _______ _______ _____ _____    ______ ____
ROOT
ATOM      1  N1  UNL     1      17.279   4.104   8.394  0.00  0.00    +0.000 N 
ATOM      2  C6  UNL     1      16.525   3.129   9.019  0.00  0.00    +0.000 C 
ATOM      3  O1  UNL     1      16.698   2.809  10.187  0.00  0.00    +0.000 OA
ATOM      4  N2  UNL     1      15.581   2.619   8.157  0.00  0.00    +0.000 N 
ATOM      5  H10 UNL     1      17.382   4.016   7.395  0.00  0.00    +0.000 HD
ATOM      6  H11 UNL     1      15.430   3.157   7.316  0.00  0.00    +0.000 HD
ENDROOT
BRANCH   4   7
ATOM      7  C7  UNL     1      14.684   1.559   8.404  0.00  0.00    +0.000 A 
ATOM      8  C8  UNL     1      13.493   1.686   9.113  0.00  0.00    +0.000 A 
ATOM      9  C9  UNL     1      12.681   0.568   9.310  0.00  0.00    +0.000 A 
ATOM     10  C10 UNL     1      13.089  -0.648   8.790  0.00  0.00    +0.000 A 
ATOM     11  N3  UNL     1      14.237  -0.819   8.103  0.00  0.00    +0.000 NA
ATOM     12  C11 UNL     1      15.002   0.287   7.928  0.00  0.00    +0.000 A 
ENDBRANCH   4   7
BRANCH   1  13
ATOM     13  C5  UNL     1      18.364   4.763   9.098  0.00  0.00    +0.000 C 
BRANCH  13  14
ATOM     14  C4  UNL     1      19.161   5.704   8.191  0.00  0.00    +0.000 C 
BRANCH  14  17
ATOM     15  C1  UNL     1      20.570   7.688   9.119  0.00  0.00    +0.000 C 
ATOM     16  C2  UNL     1      19.610   7.294  10.209  0.00  0.00    +0.000 C 
ATOM     17  C3  UNL     1      19.233   7.089   8.765  0.00  0.00    +0.000 C 
ENDBRANCH  14  17
ENDBRANCH  13  14
ENDBRANCH   1  13
TORSDOF 4
ENDMDL
MODEL 3
REMARK VINA RESULT:    -4.876     16.295     17.771
REMARK INTER + INTRA:          -6.302
REMARK INTER:                  -6.006
REMARK INTRA:                  -0.295
REMARK UNBOUND:                -0.285
REMARK  Name = /home/anacleto/Desktop/manuscript_Mpro/naturecomm/supplementary_file_S2/6-chemical-library/molecular_docking/3D_ligand_structure/794.pdb
REMARK  4 active torsions:
REMARK  status: ('A' for Active; 'I' for Inactive)
REMARK    1  A    between atoms: C3_3  and  C4_4
REMARK    2  A    between atoms: C4_4  and  C5_5
REMARK    3  A    between atoms: C5_5  and  N1_6
REMARK    4  A    between atoms: N2_9  and  C7_10
REMARK                            x       y       z     vdW  Elec       q    Type
REMARK                         _______ _______ _______ _____ _____    ______ ____
ROOT
ATOM      1  N1  UNL     1      16.234   3.327   8.619  0.00  0.00    +0.000 N 
ATOM      2  C6  UNL     1      17.329   3.905   9.233  0.00  0.00    +0.000 C 
ATOM      3  O1  UNL     1      17.661   3.635  10.379  0.00  0.00    +0.000 OA
ATOM      4  N2  UNL     1      17.963   4.775   8.375  0.00  0.00    +0.000 N 
ATOM      5  H10 UNL     1      15.787   3.874   7.898  0.00  0.00    +0.000 HD
ATOM      6  H11 UNL     1      17.694   4.698   7.406  0.00  0.00    +0.000 HD
ENDROOT
BRANCH   4   7
ATOM      7  C7  UNL     1      19.065   5.607   8.664  0.00  0.00    +0.000 A 
ATOM      8  C8  UNL     1      18.991   6.990   8.806  0.00  0.00    +0.000 A 
ATOM      9  C9  UNL     1      20.147   7.721   9.083  0.00  0.00    +0.000 A 
ATOM     10  C10 UNL     1      21.347   7.043   9.205  0.00  0.00    +0.000 A 
ATOM     11  N3  UNL     1      21.467   5.707   9.069  0.00  0.00    +0.000 NA
ATOM     12  C11 UNL     1      20.326   5.026   8.803  0.00  0.00    +0.000 A 
ENDBRANCH   4   7
BRANCH   1  13
ATOM     13  C5  UNL     1      15.386   2.399   9.343  0.00  0.00    +0.000 C 
BRANCH  13  14
ATOM     14  C4  UNL     1      14.718   1.377   8.419  0.00  0.00    +0.000 C 
BRANCH  14  17
ATOM     15  C1  UNL     1      15.621  -0.708   7.148  0.00  0.00    +0.000 C 
ATOM     16  C2  UNL     1      16.756  -0.192   7.990  0.00  0.00    +0.000 C 
ATOM     17  C3  UNL     1      15.709   0.760   7.475  0.00  0.00    +0.000 C 
ENDBRANCH  14  17
ENDBRANCH  13  14
ENDBRANCH   1  13
TORSDOF 4
ENDMDL
MODEL 4
REMARK VINA RESULT:    -4.844     16.670     17.931
REMARK INTER + INTRA:          -6.262
REMARK INTER:                  -5.981
REMARK INTRA:                  -0.281
REMARK UNBOUND:                -0.285
REMARK  Name = /home/anacleto/Desktop/manuscript_Mpro/naturecomm/supplementary_file_S2/6-chemical-library/molecular_docking/3D_ligand_structure/794.pdb
REMARK  4 active torsions:
REMARK  status: ('A' for Active; 'I' for Inactive)
REMARK    1  A    between atoms: C3_3  and  C4_4
REMARK    2  A    between atoms: C4_4  and  C5_5
REMARK    3  A    between atoms: C5_5  and  N1_6
REMARK    4  A    between atoms: N2_9  and  C7_10
REMARK                            x       y       z     vdW  Elec       q    Type
REMARK                         _______ _______ _______ _____ _____    ______ ____
ROOT
ATOM      1  N1  UNL     1      16.548   3.488   7.940  0.00  0.00    +0.000 N 
ATOM      2  C6  UNL     1      17.729   3.684   8.630  0.00  0.00    +0.000 C 
ATOM      3  O1  UNL     1      18.313   2.778   9.208  0.00  0.00    +0.000 OA
ATOM      4  N2  UNL     1      18.128   4.998   8.543  0.00  0.00    +0.000 N 
ATOM      5  H10 UNL     1      15.934   4.286   7.870  0.00  0.00    +0.000 HD
ATOM      6  H11 UNL     1      17.656   5.548   7.841  0.00  0.00    +0.000 HD
ENDROOT
BRANCH   4   7
ATOM      7  C7  UNL     1      19.236   5.597   9.179  0.00  0.00    +0.000 A 
ATOM      8  C8  UNL     1      20.504   5.704   8.616  0.00  0.00    +0.000 A 
ATOM      9  C9  UNL     1      21.535   6.307   9.337  0.00  0.00    +0.000 A 
ATOM     10  C10 UNL     1      21.265   6.784  10.608  0.00  0.00    +0.000 A 
ATOM     11  N3  UNL     1      20.054   6.696  11.196  0.00  0.00    +0.000 NA
ATOM     12  C11 UNL     1      19.074   6.106  10.468  0.00  0.00    +0.000 A 
ENDBRANCH   4   7
BRANCH   1  13
ATOM     13  C5  UNL     1      15.912   2.183   7.920  0.00  0.00    +0.000 C 
BRANCH  13  14
ATOM     14  C4  UNL     1      14.824   2.048   8.988  0.00  0.00    +0.000 C 
BRANCH  14  17
ATOM     15  C1  UNL     1      12.583   0.788   9.399  0.00  0.00    +0.000 C 
ATOM     16  C2  UNL     1      13.460  -0.142   8.605  0.00  0.00    +0.000 C 
ATOM     17  C3  UNL     1      13.610   1.349   8.449  0.00  0.00    +0.000 C 
ENDBRANCH  14  17
ENDBRANCH  13  14
ENDBRANCH   1  13
TORSDOF 4
ENDMDL
MODEL 5
REMARK VINA RESULT:    -4.775     16.573     17.315
REMARK INTER + INTRA:          -6.176
REMARK INTER:                  -5.820
REMARK INTRA:                  -0.357
REMARK UNBOUND:                -0.285
REMARK  Name = /home/anacleto/Desktop/manuscript_Mpro/naturecomm/supplementary_file_S2/6-chemical-library/molecular_docking/3D_ligand_structure/794.pdb
REMARK  4 active torsions:
REMARK  status: ('A' for Active; 'I' for Inactive)
REMARK    1  A    between atoms: C3_3  and  C4_4
REMARK    2  A    between atoms: C4_4  and  C5_5
REMARK    3  A    between atoms: C5_5  and  N1_6
REMARK    4  A    between atoms: N2_9  and  C7_10
REMARK                            x       y       z     vdW  Elec       q    Type
REMARK                         _______ _______ _______ _____ _____    ______ ____
ROOT
ATOM      1  N1  UNL     1      18.441   5.446   8.558  0.00  0.00    +0.000 N 
ATOM      2  C6  UNL     1      18.046   4.172   8.916  0.00  0.00    +0.000 C 
ATOM      3  O1  UNL     1      18.723   3.449   9.634  0.00  0.00    +0.000 OA
ATOM      4  N2  UNL     1      16.816   3.875   8.375  0.00  0.00    +0.000 N 
ATOM      5  H10 UNL     1      18.085   5.793   7.679  0.00  0.00    +0.000 HD
ATOM      6  H11 UNL     1      16.304   4.663   8.008  0.00  0.00    +0.000 HD
ENDROOT
BRANCH   4   7
ATOM      7  C7  UNL     1      16.123   2.648   8.451  0.00  0.00    +0.000 A 
ATOM      8  C8  UNL     1      16.173   1.654   7.478  0.00  0.00    +0.000 A 
ATOM      9  C9  UNL     1      15.439   0.479   7.649  0.00  0.00    +0.000 A 
ATOM     10  C10 UNL     1      14.671   0.337   8.791  0.00  0.00    +0.000 A 
ATOM     11  N3  UNL     1      14.587   1.276   9.756  0.00  0.00    +0.000 NA
ATOM     12  C11 UNL     1      15.314   2.404   9.561  0.00  0.00    +0.000 A 
ENDBRANCH   4   7
BRANCH   1  13
ATOM     13  C5  UNL     1      19.726   5.969   8.983  0.00  0.00    +0.000 C 
BRANCH  13  14
ATOM     14  C4  UNL     1      19.585   7.150   9.947  0.00  0.00    +0.000 C 
BRANCH  14  17
ATOM     15  C1  UNL     1      18.394   7.566  12.225  0.00  0.00    +0.000 C 
ATOM     16  C2  UNL     1      19.852   7.357  12.533  0.00  0.00    +0.000 C 
ATOM     17  C3  UNL     1      19.235   6.690  11.332  0.00  0.00    +0.000 C 
ENDBRANCH  14  17
ENDBRANCH  13  14
ENDBRANCH   1  13
TORSDOF 4
ENDMDL
MODEL 6
REMARK VINA RESULT:    -4.708     16.722     17.592
REMARK INTER + INTRA:          -6.094
REMARK INTER:                  -5.675
REMARK INTRA:                  -0.419
REMARK UNBOUND:                -0.285
REMARK  Name = /home/anacleto/Desktop/manuscript_Mpro/naturecomm/supplementary_file_S2/6-chemical-library/molecular_docking/3D_ligand_structure/794.pdb
REMARK  4 active torsions:
REMARK  status: ('A' for Active; 'I' for Inactive)
REMARK    1  A    between atoms: C3_3  and  C4_4
REMARK    2  A    between atoms: C4_4  and  C5_5
REMARK    3  A    between atoms: C5_5  and  N1_6
REMARK    4  A    between atoms: N2_9  and  C7_10
REMARK                            x       y       z     vdW  Elec       q    Type
REMARK                         _______ _______ _______ _____ _____    ______ ____
ROOT
ATOM      1  N1  UNL     1      18.444   5.216   8.752  0.00  0.00    +0.000 N 
ATOM      2  C6  UNL     1      17.899   4.000   9.116  0.00  0.00    +0.000 C 
ATOM      3  O1  UNL     1      18.391   3.288   9.982  0.00  0.00    +0.000 OA
ATOM      4  N2  UNL     1      16.755   3.745   8.393  0.00  0.00    +0.000 N 
ATOM      5  H10 UNL     1      18.266   5.519   7.807  0.00  0.00    +0.000 HD
ATOM      6  H11 UNL     1      16.373   4.537   7.898  0.00  0.00    +0.000 HD
ENDROOT
BRANCH   4   7
ATOM      7  C7  UNL     1      15.967   2.576   8.427  0.00  0.00    +0.000 A 
ATOM      8  C8  UNL     1      16.033   1.555   7.483  0.00  0.00    +0.000 A 
ATOM      9  C9  UNL     1      15.198   0.443   7.604  0.00  0.00    +0.000 A 
ATOM     10  C10 UNL     1      14.316   0.389   8.670  0.00  0.00    +0.000 A 
ATOM     11  N3  UNL     1      14.213   1.357   9.603  0.00  0.00    +0.000 NA
ATOM     12  C11 UNL     1      15.039   2.423   9.457  0.00  0.00    +0.000 A 
ENDBRANCH   4   7
BRANCH   1  13
ATOM     13  C5  UNL     1      19.679   5.682   9.357  0.00  0.00    +0.000 C 
BRANCH  13  14
ATOM     14  C4  UNL     1      20.839   5.717   8.360  0.00  0.00    +0.000 C 
BRANCH  14  17
ATOM     15  C1  UNL     1      22.597   3.888   7.768  0.00  0.00    +0.000 C 
ATOM     16  C2  UNL     1      21.724   3.313   8.851  0.00  0.00    +0.000 C 
ATOM     17  C3  UNL     1      21.951   4.800   8.780  0.00  0.00    +0.000 C 
ENDBRANCH  14  17
ENDBRANCH  13  14
ENDBRANCH   1  13
TORSDOF 4
ENDMDL
MODEL 7
REMARK VINA RESULT:    -4.692      1.589      2.708
REMARK INTER + INTRA:          -6.074
REMARK INTER:                  -5.784
REMARK INTRA:                  -0.290
REMARK UNBOUND:                -0.285
REMARK  Name = /home/anacleto/Desktop/manuscript_Mpro/naturecomm/supplementary_file_S2/6-chemical-library/molecular_docking/3D_ligand_structure/794.pdb
REMARK  4 active torsions:
REMARK  status: ('A' for Active; 'I' for Inactive)
REMARK    1  A    between atoms: C3_3  and  C4_4
REMARK    2  A    between atoms: C4_4  and  C5_5
REMARK    3  A    between atoms: C5_5  and  N1_6
REMARK    4  A    between atoms: N2_9  and  C7_10
REMARK                            x       y       z     vdW  Elec       q    Type
REMARK                         _______ _______ _______ _____ _____    ______ ____
ROOT
ATOM      1  N1  UNL     1      14.560  15.325  -2.638  0.00  0.00    +0.000 N 
ATOM      2  C6  UNL     1      14.616  14.064  -3.201  0.00  0.00    +0.000 C 
ATOM      3  O1  UNL     1      14.930  13.070  -2.561  0.00  0.00    +0.000 OA
ATOM      4  N2  UNL     1      14.258  14.110  -4.529  0.00  0.00    +0.000 N 
ATOM      5  H10 UNL     1      14.719  16.100  -3.264  0.00  0.00    +0.000 HD
ATOM      6  H11 UNL     1      13.811  14.964  -4.826  0.00  0.00    +0.000 HD
ENDROOT
BRANCH   4   7
ATOM      7  C7  UNL     1      14.270  13.044  -5.453  0.00  0.00    +0.000 A 
ATOM      8  C8  UNL     1      15.282  12.817  -6.380  0.00  0.00    +0.000 A 
ATOM      9  C9  UNL     1      15.190  11.736  -7.258  0.00  0.00    +0.000 A 
ATOM     10  C10 UNL     1      14.078  10.914  -7.183  0.00  0.00    +0.000 A 
ATOM     11  N3  UNL     1      13.070  11.101  -6.307  0.00  0.00    +0.000 NA
ATOM     12  C11 UNL     1      13.192  12.158  -5.467  0.00  0.00    +0.000 A 
ENDBRANCH   4   7
BRANCH   1  13
ATOM     13  C5  UNL     1      14.931  15.531  -1.250  0.00  0.00    +0.000 C 
BRANCH  13  14
ATOM     14  C4  UNL     1      16.363  16.052  -1.101  0.00  0.00    +0.000 C 
BRANCH  14  17
ATOM     15  C1  UNL     1      17.704  16.532   1.080  0.00  0.00    +0.000 C 
ATOM     16  C2  UNL     1      18.495  15.515   0.303  0.00  0.00    +0.000 C 
ATOM     17  C3  UNL     1      16.996  15.562   0.170  0.00  0.00    +0.000 C 
ENDBRANCH  14  17
ENDBRANCH  13  14
ENDBRANCH   1  13
TORSDOF 4
ENDMDL
MODEL 8
REMARK VINA RESULT:    -4.613      3.169      7.062
REMARK INTER + INTRA:          -5.977
REMARK INTER:                  -5.757
REMARK INTRA:                  -0.219
REMARK UNBOUND:                -0.285
REMARK  Name = /home/anacleto/Desktop/manuscript_Mpro/naturecomm/supplementary_file_S2/6-chemical-library/molecular_docking/3D_ligand_structure/794.pdb
REMARK  4 active torsions:
REMARK  status: ('A' for Active; 'I' for Inactive)
REMARK    1  A    between atoms: C3_3  and  C4_4
REMARK    2  A    between atoms: C4_4  and  C5_5
REMARK    3  A    between atoms: C5_5  and  N1_6
REMARK    4  A    between atoms: N2_9  and  C7_10
REMARK                            x       y       z     vdW  Elec       q    Type
REMARK                         _______ _______ _______ _____ _____    ______ ____
ROOT
ATOM      1  N1  UNL     1      15.620  11.459  -3.016  0.00  0.00    +0.000 N 
ATOM      2  C6  UNL     1      16.514  12.479  -2.749  0.00  0.00    +0.000 C 
ATOM      3  O1  UNL     1      17.121  13.071  -3.631  0.00  0.00    +0.000 OA
ATOM      4  N2  UNL     1      16.587  12.718  -1.396  0.00  0.00    +0.000 N 
ATOM      5  H10 UNL     1      15.500  10.770  -2.289  0.00  0.00    +0.000 HD
ATOM      6  H11 UNL     1      15.853  12.300  -0.843  0.00  0.00    +0.000 HD
ENDROOT
BRANCH   4   7
ATOM      7  C7  UNL     1      17.442  13.624  -0.735  0.00  0.00    +0.000 A 
ATOM      8  C8  UNL     1      18.793  13.395  -0.489  0.00  0.00    +0.000 A 
ATOM      9  C9  UNL     1      19.549  14.356   0.184  0.00  0.00    +0.000 A 
ATOM     10  C10 UNL     1      18.924  15.520   0.598  0.00  0.00    +0.000 A 
ATOM     11  N3  UNL     1      17.618  15.781   0.389  0.00  0.00    +0.000 NA
ATOM     12  C11 UNL     1      16.913  14.828  -0.270  0.00  0.00    +0.000 A 
ENDBRANCH   4   7
BRANCH   1  13
ATOM     13  C5  UNL     1      15.402  11.005  -4.377  0.00  0.00    +0.000 C 
BRANCH  13  14
ATOM     14  C4  UNL     1      13.921  10.772  -4.683  0.00  0.00    +0.000 C 
BRANCH  14  17
ATOM     15  C1  UNL     1      13.199  10.550  -7.176  0.00  0.00    +0.000 C 
ATOM     16  C2  UNL     1      14.455  11.379  -7.163  0.00  0.00    +0.000 C 
ATOM     17  C3  UNL     1      13.521  11.411  -5.982  0.00  0.00    +0.000 C 
ENDBRANCH  14  17
ENDBRANCH  13  14
ENDBRANCH   1  13
TORSDOF 4
ENDMDL
MODEL 9
REMARK VINA RESULT:    -4.356      3.706      4.788
REMARK INTER + INTRA:          -5.659
REMARK INTER:                  -5.374
REMARK INTRA:                  -0.285
REMARK UNBOUND:                -0.285
REMARK  Name = /home/anacleto/Desktop/manuscript_Mpro/naturecomm/supplementary_file_S2/6-chemical-library/molecular_docking/3D_ligand_structure/794.pdb
REMARK  4 active torsions:
REMARK  status: ('A' for Active; 'I' for Inactive)
REMARK    1  A    between atoms: C3_3  and  C4_4
REMARK    2  A    between atoms: C4_4  and  C5_5
REMARK    3  A    between atoms: C5_5  and  N1_6
REMARK    4  A    between atoms: N2_9  and  C7_10
REMARK                            x       y       z     vdW  Elec       q    Type
REMARK                         _______ _______ _______ _____ _____    ______ ____
ROOT
ATOM      1  N1  UNL     1      17.415  12.462  -1.405  0.00  0.00    +0.000 N 
ATOM      2  C6  UNL     1      17.089  11.952  -2.647  0.00  0.00    +0.000 C 
ATOM      3  O1  UNL     1      17.888  11.333  -3.336  0.00  0.00    +0.000 OA
ATOM      4  N2  UNL     1      15.775  12.225  -2.953  0.00  0.00    +0.000 N 
ATOM      5  H10 UNL     1      16.898  13.275  -1.107  0.00  0.00    +0.000 HD
ATOM      6  H11 UNL     1      15.207  12.537  -2.180  0.00  0.00    +0.000 HD
ENDROOT
BRANCH   4   7
ATOM      7  C7  UNL     1      15.103  11.937  -4.160  0.00  0.00    +0.000 A 
ATOM      8  C8  UNL     1      14.287  10.827  -4.360  0.00  0.00    +0.000 A 
ATOM      9  C9  UNL     1      13.676  10.631  -5.599  0.00  0.00    +0.000 A 
ATOM     10  C10 UNL     1      13.904  11.554  -6.605  0.00  0.00    +0.000 A 
ATOM     11  N3  UNL     1      14.692  12.638  -6.458  0.00  0.00    +0.000 NA
ATOM     12  C11 UNL     1      15.269  12.801  -5.242  0.00  0.00    +0.000 A 
ENDBRANCH   4   7
BRANCH   1  13
ATOM     13  C5  UNL     1      18.762  12.327  -0.881  0.00  0.00    +0.000 C 
BRANCH  13  14
ATOM     14  C4  UNL     1      19.561  13.629  -0.987  0.00  0.00    +0.000 C 
BRANCH  14  17
ATOM     15  C1  UNL     1      19.812  15.633   0.657  0.00  0.00    +0.000 C 
ATOM     16  C2  UNL     1      21.170  14.994   0.546  0.00  0.00    +0.000 C 
ATOM     17  C3  UNL     1      19.930  14.158   0.368  0.00  0.00    +0.000 C 
ENDBRANCH  14  17
ENDBRANCH  13  14
ENDBRANCH   1  13
TORSDOF 4
ENDMDL
