MODEL 1
REMARK VINA RESULT:    -5.574      0.000      0.000
REMARK INTER + INTRA:          -8.957
REMARK INTER:                  -8.444
REMARK INTRA:                  -0.514
REMARK UNBOUND:                -1.428
REMARK  Name = /home/anacleto/Desktop/manuscript_Mpro/naturecomm/supplementary_file_S2/6-chemical-library/molecular_docking/3D_ligand_structure/438.pdb
REMARK  6 active torsions:
REMARK  status: ('A' for Active; 'I' for Inactive)
REMARK    1  A    between atoms: C3_6  and  C4_7
REMARK    2  A    between atoms: N3_9  and  C5_10
REMARK    3  A    between atoms: C5_10  and  C6_11
REMARK    4  A    between atoms: N4_13  and  C7_14
REMARK    5  A    between atoms: C7_14  and  C8_15
REMARK    6  A    between atoms: C8_15  and  C9_16
REMARK                            x       y       z     vdW  Elec       q    Type
REMARK                         _______ _______ _______ _____ _____    ______ ____
ROOT
ATOM      1  C5  UNL     1      19.456   6.059   8.641  0.00  0.00    +0.000 C 
ENDROOT
BRANCH   1   4
ATOM      2  C4  UNL     1      19.918   6.955  10.870  0.00  0.00    +0.000 C 
ATOM      3  O2  UNL     1      21.126   6.769  10.825  0.00  0.00    +0.000 OA
ATOM      4  N3  UNL     1      19.073   6.850   9.792  0.00  0.00    +0.000 N 
ATOM      5  H4  UNL     1      18.079   6.911   9.984  0.00  0.00    +0.000 HD
BRANCH   2  11
ATOM      6  N1  UNL     1      19.581   8.318  12.975  0.00  0.00    +0.000 N 
ATOM      7  N2  UNL     1      18.547   8.418  13.918  0.00  0.00    +0.000 N 
ATOM      8  C1  UNL     1      17.709   7.322  13.772  0.00  0.00    +0.000 A 
ATOM      9  O1  UNL     1      16.832   6.957  14.532  0.00  0.00    +0.000 OA
ATOM     10  C2  UNL     1      18.092   6.635  12.526  0.00  0.00    +0.000 A 
ATOM     11  C3  UNL     1      19.201   7.272  12.134  0.00  0.00    +0.000 A 
ATOM     12  H1  UNL     1      19.713   9.180  12.428  0.00  0.00    +0.000 HD
ATOM     13  H2  UNL     1      18.729   8.784  14.847  0.00  0.00    +0.000 HD
ENDBRANCH   2  11
ENDBRANCH   1   4
BRANCH   1  14
ATOM     14  C6  UNL     1      18.995   4.618   8.884  0.00  0.00    +0.000 C 
ATOM     15  O3  UNL     1      19.767   3.734   9.257  0.00  0.00    +0.000 OA
ATOM     16  N4  UNL     1      17.643   4.418   8.701  0.00  0.00    +0.000 N 
ATOM     17  H7  UNL     1      17.092   5.148   8.266  0.00  0.00    +0.000 HD
BRANCH  16  18
ATOM     18  C7  UNL     1      17.044   3.103   8.843  0.00  0.00    +0.000 C 
BRANCH  18  19
ATOM     19  C8  UNL     1      16.245   2.691   7.605  0.00  0.00    +0.000 C 
BRANCH  19  20
ATOM     20  C9  UNL     1      15.363   1.500   7.882  0.00  0.00    +0.000 A 
ATOM     21  C10 UNL     1      14.133   1.667   8.531  0.00  0.00    +0.000 A 
ATOM     22  C11 UNL     1      13.325   0.565   8.808  0.00  0.00    +0.000 A 
ATOM     23  C12 UNL     1      13.739  -0.715   8.443  0.00  0.00    +0.000 A 
ATOM     24  C13 UNL     1      14.963  -0.893   7.801  0.00  0.00    +0.000 A 
ATOM     25  C14 UNL     1      15.774   0.210   7.523  0.00  0.00    +0.000 A 
ENDBRANCH  19  20
ENDBRANCH  18  19
ENDBRANCH  16  18
ENDBRANCH   1  14
TORSDOF 6
ENDMDL
MODEL 2
REMARK VINA RESULT:    -5.456     15.511     17.700
REMARK INTER + INTRA:          -8.797
REMARK INTER:                  -8.115
REMARK INTRA:                  -0.682
REMARK UNBOUND:                -1.428
REMARK  Name = /home/anacleto/Desktop/manuscript_Mpro/naturecomm/supplementary_file_S2/6-chemical-library/molecular_docking/3D_ligand_structure/438.pdb
REMARK  6 active torsions:
REMARK  status: ('A' for Active; 'I' for Inactive)
REMARK    1  A    between atoms: C3_6  and  C4_7
REMARK    2  A    between atoms: N3_9  and  C5_10
REMARK    3  A    between atoms: C5_10  and  C6_11
REMARK    4  A    between atoms: N4_13  and  C7_14
REMARK    5  A    between atoms: C7_14  and  C8_15
REMARK    6  A    between atoms: C8_15  and  C9_16
REMARK                            x       y       z     vdW  Elec       q    Type
REMARK                         _______ _______ _______ _____ _____    ______ ____
ROOT
ATOM      1  C5  UNL     1      14.974  15.493  -2.793  0.00  0.00    +0.000 C 
ENDROOT
BRANCH   1   4
ATOM      2  C4  UNL     1      15.351  13.178  -3.486  0.00  0.00    +0.000 C 
ATOM      3  O2  UNL     1      16.563  13.200  -3.320  0.00  0.00    +0.000 OA
ATOM      4  N3  UNL     1      14.487  14.155  -3.052  0.00  0.00    +0.000 N 
ATOM      5  H4  UNL     1      13.523  14.078  -3.356  0.00  0.00    +0.000 HD
BRANCH   2  11
ATOM      6  N1  UNL     1      14.544  10.794  -3.748  0.00  0.00    +0.000 N 
ATOM      7  N2  UNL     1      13.663  10.154  -4.633  0.00  0.00    +0.000 N 
ATOM      8  C1  UNL     1      13.458  10.981  -5.728  0.00  0.00    +0.000 A 
ATOM      9  O1  UNL     1      12.929  10.690  -6.784  0.00  0.00    +0.000 OA
ATOM     10  C2  UNL     1      14.038  12.296  -5.403  0.00  0.00    +0.000 A 
ATOM     11  C3  UNL     1      14.664  12.094  -4.238  0.00  0.00    +0.000 A 
ATOM     12  H1  UNL     1      14.198  10.814  -2.779  0.00  0.00    +0.000 HD
ATOM     13  H2  UNL     1      13.709   9.149  -4.770  0.00  0.00    +0.000 HD
ENDBRANCH   2  11
ENDBRANCH   1   4
BRANCH   1  14
ATOM     14  C6  UNL     1      15.161  15.643  -1.280  0.00  0.00    +0.000 C 
ATOM     15  O3  UNL     1      14.229  15.922  -0.525  0.00  0.00    +0.000 OA
ATOM     16  N4  UNL     1      16.443  15.387  -0.841  0.00  0.00    +0.000 N 
ATOM     17  H7  UNL     1      17.188  15.296  -1.521  0.00  0.00    +0.000 HD
BRANCH  16  18
ATOM     18  C7  UNL     1      16.809  15.528   0.558  0.00  0.00    +0.000 C 
BRANCH  18  19
ATOM     19  C8  UNL     1      17.723  16.731   0.801  0.00  0.00    +0.000 C 
BRANCH  19  20
ATOM     20  C9  UNL     1      19.157  16.420   0.455  0.00  0.00    +0.000 A 
ATOM     21  C10 UNL     1      19.719  15.188   0.815  0.00  0.00    +0.000 A 
ATOM     22  C11 UNL     1      21.052  14.905   0.516  0.00  0.00    +0.000 A 
ATOM     23  C12 UNL     1      21.836  15.850  -0.142  0.00  0.00    +0.000 A 
ATOM     24  C13 UNL     1      21.288  17.081  -0.500  0.00  0.00    +0.000 A 
ATOM     25  C14 UNL     1      19.954  17.366  -0.201  0.00  0.00    +0.000 A 
ENDBRANCH  19  20
ENDBRANCH  18  19
ENDBRANCH  16  18
ENDBRANCH   1  14
TORSDOF 6
ENDMDL
MODEL 3
REMARK VINA RESULT:    -5.328     16.625     17.939
REMARK INTER + INTRA:          -8.625
REMARK INTER:                  -8.042
REMARK INTRA:                  -0.583
REMARK UNBOUND:                -1.428
REMARK  Name = /home/anacleto/Desktop/manuscript_Mpro/naturecomm/supplementary_file_S2/6-chemical-library/molecular_docking/3D_ligand_structure/438.pdb
REMARK  6 active torsions:
REMARK  status: ('A' for Active; 'I' for Inactive)
REMARK    1  A    between atoms: C3_6  and  C4_7
REMARK    2  A    between atoms: N3_9  and  C5_10
REMARK    3  A    between atoms: C5_10  and  C6_11
REMARK    4  A    between atoms: N4_13  and  C7_14
REMARK    5  A    between atoms: C7_14  and  C8_15
REMARK    6  A    between atoms: C8_15  and  C9_16
REMARK                            x       y       z     vdW  Elec       q    Type
REMARK                         _______ _______ _______ _____ _____    ______ ____
ROOT
ATOM      1  C5  UNL     1      15.423  15.156  -1.302  0.00  0.00    +0.000 C 
ENDROOT
BRANCH   1   4
ATOM      2  C4  UNL     1      13.400  16.491  -1.633  0.00  0.00    +0.000 C 
ATOM      3  O2  UNL     1      12.664  15.751  -0.994  0.00  0.00    +0.000 OA
ATOM      4  N3  UNL     1      14.771  16.401  -1.648  0.00  0.00    +0.000 N 
ATOM      5  H4  UNL     1      15.259  16.995  -2.310  0.00  0.00    +0.000 HD
BRANCH   2  11
ATOM      6  N1  UNL     1      11.843  17.351  -3.433  0.00  0.00    +0.000 N 
ATOM      7  N2  UNL     1      11.518  18.629  -3.913  0.00  0.00    +0.000 N 
ATOM      8  C1  UNL     1      12.485  19.524  -3.477  0.00  0.00    +0.000 A 
ATOM      9  O1  UNL     1      12.656  20.668  -3.854  0.00  0.00    +0.000 OA
ATOM     10  C2  UNL     1      13.315  18.826  -2.479  0.00  0.00    +0.000 A 
ATOM     11  C3  UNL     1      12.883  17.561  -2.527  0.00  0.00    +0.000 A 
ATOM     12  H1  UNL     1      11.055  16.884  -2.963  0.00  0.00    +0.000 HD
ATOM     13  H2  UNL     1      11.112  18.746  -4.835  0.00  0.00    +0.000 HD
ENDBRANCH   2  11
ENDBRANCH   1   4
BRANCH   1  14
ATOM     14  C6  UNL     1      16.081  14.599  -2.569  0.00  0.00    +0.000 C 
ATOM     15  O3  UNL     1      16.141  15.243  -3.617  0.00  0.00    +0.000 OA
ATOM     16  N4  UNL     1      16.638  13.348  -2.413  0.00  0.00    +0.000 N 
ATOM     17  H7  UNL     1      16.437  12.820  -1.573  0.00  0.00    +0.000 HD
BRANCH  16  18
ATOM     18  C7  UNL     1      17.261  12.650  -3.525  0.00  0.00    +0.000 C 
BRANCH  18  19
ATOM     19  C8  UNL     1      16.689  11.246  -3.723  0.00  0.00    +0.000 C 
BRANCH  19  20
ATOM     20  C9  UNL     1      15.627  11.223  -4.792  0.00  0.00    +0.000 A 
ATOM     21  C10 UNL     1      14.317  10.833  -4.479  0.00  0.00    +0.000 A 
ATOM     22  C11 UNL     1      13.337  10.790  -5.471  0.00  0.00    +0.000 A 
ATOM     23  C12 UNL     1      13.655  11.132  -6.783  0.00  0.00    +0.000 A 
ATOM     24  C13 UNL     1      14.955  11.516  -7.106  0.00  0.00    +0.000 A 
ATOM     25  C14 UNL     1      15.938  11.560  -6.116  0.00  0.00    +0.000 A 
ENDBRANCH  19  20
ENDBRANCH  18  19
ENDBRANCH  16  18
ENDBRANCH   1  14
TORSDOF 6
ENDMDL
MODEL 4
REMARK VINA RESULT:    -5.325     15.232     17.621
REMARK INTER + INTRA:          -8.622
REMARK INTER:                  -7.874
REMARK INTRA:                  -0.748
REMARK UNBOUND:                -1.428
REMARK  Name = /home/anacleto/Desktop/manuscript_Mpro/naturecomm/supplementary_file_S2/6-chemical-library/molecular_docking/3D_ligand_structure/438.pdb
REMARK  6 active torsions:
REMARK  status: ('A' for Active; 'I' for Inactive)
REMARK    1  A    between atoms: C3_6  and  C4_7
REMARK    2  A    between atoms: N3_9  and  C5_10
REMARK    3  A    between atoms: C5_10  and  C6_11
REMARK    4  A    between atoms: N4_13  and  C7_14
REMARK    5  A    between atoms: C7_14  and  C8_15
REMARK    6  A    between atoms: C8_15  and  C9_16
REMARK                            x       y       z     vdW  Elec       q    Type
REMARK                         _______ _______ _______ _____ _____    ______ ____
ROOT
ATOM      1  C5  UNL     1      18.272  12.009  -2.373  0.00  0.00    +0.000 C 
ENDROOT
BRANCH   1   4
ATOM      2  C4  UNL     1      16.703  12.028  -4.249  0.00  0.00    +0.000 C 
ATOM      3  O2  UNL     1      17.032  13.129  -4.668  0.00  0.00    +0.000 OA
ATOM      4  N3  UNL     1      17.391  11.321  -3.293  0.00  0.00    +0.000 N 
ATOM      5  H4  UNL     1      16.951  10.476  -2.946  0.00  0.00    +0.000 HD
BRANCH   2  11
ATOM      6  N1  UNL     1      14.665  10.586  -3.836  0.00  0.00    +0.000 N 
ATOM      7  N2  UNL     1      13.512  10.290  -4.579  0.00  0.00    +0.000 N 
ATOM      8  C1  UNL     1      13.732  10.655  -5.899  0.00  0.00    +0.000 A 
ATOM      9  O1  UNL     1      13.052  10.369  -6.867  0.00  0.00    +0.000 OA
ATOM     10  C2  UNL     1      14.979  11.437  -5.940  0.00  0.00    +0.000 A 
ATOM     11  C3  UNL     1      15.466  11.335  -4.698  0.00  0.00    +0.000 A 
ATOM     12  H1  UNL     1      14.467  11.125  -2.982  0.00  0.00    +0.000 HD
ATOM     13  H2  UNL     1      12.967   9.458  -4.377  0.00  0.00    +0.000 HD
ENDBRANCH   2  11
ENDBRANCH   1   4
BRANCH   1  14
ATOM     14  C6  UNL     1      17.419  12.952  -1.518  0.00  0.00    +0.000 C 
ATOM     15  O3  UNL     1      16.592  12.537  -0.706  0.00  0.00    +0.000 OA
ATOM     16  N4  UNL     1      17.698  14.290  -1.702  0.00  0.00    +0.000 N 
ATOM     17  H7  UNL     1      18.288  14.568  -2.476  0.00  0.00    +0.000 HD
BRANCH  16  18
ATOM     18  C7  UNL     1      16.951  15.324  -1.007  0.00  0.00    +0.000 C 
BRANCH  18  19
ATOM     19  C8  UNL     1      16.473  16.429  -1.951  0.00  0.00    +0.000 C 
BRANCH  19  20
ATOM     20  C9  UNL     1      14.990  16.666  -1.825  0.00  0.00    +0.000 A 
ATOM     21  C10 UNL     1      14.411  17.822  -2.365  0.00  0.00    +0.000 A 
ATOM     22  C11 UNL     1      13.042  18.055  -2.231  0.00  0.00    +0.000 A 
ATOM     23  C12 UNL     1      12.240  17.138  -1.555  0.00  0.00    +0.000 A 
ATOM     24  C13 UNL     1      12.806  15.988  -1.009  0.00  0.00    +0.000 A 
ATOM     25  C14 UNL     1      14.176  15.753  -1.141  0.00  0.00    +0.000 A 
ENDBRANCH  19  20
ENDBRANCH  18  19
ENDBRANCH  16  18
ENDBRANCH   1  14
TORSDOF 6
ENDMDL
MODEL 5
REMARK VINA RESULT:    -5.095     15.281     16.610
REMARK INTER + INTRA:          -8.311
REMARK INTER:                  -7.590
REMARK INTRA:                  -0.721
REMARK UNBOUND:                -1.428
REMARK  Name = /home/anacleto/Desktop/manuscript_Mpro/naturecomm/supplementary_file_S2/6-chemical-library/molecular_docking/3D_ligand_structure/438.pdb
REMARK  6 active torsions:
REMARK  status: ('A' for Active; 'I' for Inactive)
REMARK    1  A    between atoms: C3_6  and  C4_7
REMARK    2  A    between atoms: N3_9  and  C5_10
REMARK    3  A    between atoms: C5_10  and  C6_11
REMARK    4  A    between atoms: N4_13  and  C7_14
REMARK    5  A    between atoms: C7_14  and  C8_15
REMARK    6  A    between atoms: C8_15  and  C9_16
REMARK                            x       y       z     vdW  Elec       q    Type
REMARK                         _______ _______ _______ _____ _____    ______ ____
ROOT
ATOM      1  C5  UNL     1      18.268  14.574  -1.820  0.00  0.00    +0.000 C 
ENDROOT
BRANCH   1   4
ATOM      2  C4  UNL     1      16.155  15.494  -0.999  0.00  0.00    +0.000 C 
ATOM      3  O2  UNL     1      16.382  15.276   0.184  0.00  0.00    +0.000 OA
ATOM      4  N3  UNL     1      17.089  15.393  -2.002  0.00  0.00    +0.000 N 
ATOM      5  H4  UNL     1      16.747  15.484  -2.953  0.00  0.00    +0.000 HD
BRANCH   2  11
ATOM      6  N1  UNL     1      14.464  15.796  -2.856  0.00  0.00    +0.000 N 
ATOM      7  N2  UNL     1      13.074  15.991  -2.889  0.00  0.00    +0.000 N 
ATOM      8  C1  UNL     1      12.652  16.375  -1.624  0.00  0.00    +0.000 A 
ATOM      9  O1  UNL     1      11.566  16.826  -1.314  0.00  0.00    +0.000 OA
ATOM     10  C2  UNL     1      13.783  16.174  -0.701  0.00  0.00    +0.000 A 
ATOM     11  C3  UNL     1      14.802  15.851  -1.505  0.00  0.00    +0.000 A 
ATOM     12  H1  UNL     1      14.754  14.894  -3.256  0.00  0.00    +0.000 HD
ATOM     13  H2  UNL     1      12.629  16.396  -3.706  0.00  0.00    +0.000 HD
ENDBRANCH   2  11
ENDBRANCH   1   4
BRANCH   1  14
ATOM     14  C6  UNL     1      18.132  13.343  -2.722  0.00  0.00    +0.000 C 
ATOM     15  O3  UNL     1      18.789  13.208  -3.755  0.00  0.00    +0.000 OA
ATOM     16  N4  UNL     1      17.257  12.389  -2.249  0.00  0.00    +0.000 N 
ATOM     17  H7  UNL     1      16.651  12.618  -1.471  0.00  0.00    +0.000 HD
BRANCH  16  18
ATOM     18  C7  UNL     1      16.972  11.180  -3.002  0.00  0.00    +0.000 C 
BRANCH  18  19
ATOM     19  C8  UNL     1      15.470  10.944  -3.177  0.00  0.00    +0.000 C 
BRANCH  19  20
ATOM     20  C9  UNL     1      15.055  11.044  -4.623  0.00  0.00    +0.000 A 
ATOM     21  C10 UNL     1      15.969  11.483  -5.591  0.00  0.00    +0.000 A 
ATOM     22  C11 UNL     1      15.582  11.598  -6.926  0.00  0.00    +0.000 A 
ATOM     23  C12 UNL     1      14.280  11.278  -7.307  0.00  0.00    +0.000 A 
ATOM     24  C13 UNL     1      13.363  10.844  -6.352  0.00  0.00    +0.000 A 
ATOM     25  C14 UNL     1      13.748  10.729  -5.014  0.00  0.00    +0.000 A 
ENDBRANCH  19  20
ENDBRANCH  18  19
ENDBRANCH  16  18
ENDBRANCH   1  14
TORSDOF 6
ENDMDL
MODEL 6
REMARK VINA RESULT:    -5.078     14.500     15.857
REMARK INTER + INTRA:          -8.287
REMARK INTER:                  -7.689
REMARK INTRA:                  -0.598
REMARK UNBOUND:                -1.428
REMARK  Name = /home/anacleto/Desktop/manuscript_Mpro/naturecomm/supplementary_file_S2/6-chemical-library/molecular_docking/3D_ligand_structure/438.pdb
REMARK  6 active torsions:
REMARK  status: ('A' for Active; 'I' for Inactive)
REMARK    1  A    between atoms: C3_6  and  C4_7
REMARK    2  A    between atoms: N3_9  and  C5_10
REMARK    3  A    between atoms: C5_10  and  C6_11
REMARK    4  A    between atoms: N4_13  and  C7_14
REMARK    5  A    between atoms: C7_14  and  C8_15
REMARK    6  A    between atoms: C8_15  and  C9_16
REMARK                            x       y       z     vdW  Elec       q    Type
REMARK                         _______ _______ _______ _____ _____    ______ ____
ROOT
ATOM      1  C5  UNL     1      15.864  15.503  -2.084  0.00  0.00    +0.000 C 
ENDROOT
BRANCH   1   4
ATOM      2  C4  UNL     1      17.384  15.540  -0.167  0.00  0.00    +0.000 C 
ATOM      3  O2  UNL     1      16.510  15.700   0.674  0.00  0.00    +0.000 OA
ATOM      4  N3  UNL     1      17.149  15.216  -1.482  0.00  0.00    +0.000 N 
ATOM      5  H4  UNL     1      17.949  15.228  -2.104  0.00  0.00    +0.000 HD
BRANCH   2  11
ATOM      6  N1  UNL     1      19.440  16.985   0.125  0.00  0.00    +0.000 N 
ATOM      7  N2  UNL     1      20.720  16.765   0.655  0.00  0.00    +0.000 N 
ATOM      8  C1  UNL     1      20.930  15.397   0.749  0.00  0.00    +0.000 A 
ATOM      9  O1  UNL     1      21.981  14.824   0.966  0.00  0.00    +0.000 OA
ATOM     10  C2  UNL     1      19.638  14.733   0.501  0.00  0.00    +0.000 A 
ATOM     11  C3  UNL     1      18.828  15.732   0.129  0.00  0.00    +0.000 A 
ATOM     12  H1  UNL     1      18.883  17.651   0.679  0.00  0.00    +0.000 HD
ATOM     13  H2  UNL     1      21.495  17.370   0.402  0.00  0.00    +0.000 HD
ENDBRANCH   2  11
ENDBRANCH   1   4
BRANCH   1  14
ATOM     14  C6  UNL     1      15.224  14.171  -2.490  0.00  0.00    +0.000 C 
ATOM     15  O3  UNL     1      14.246  14.111  -3.234  0.00  0.00    +0.000 OA
ATOM     16  N4  UNL     1      15.871  13.059  -1.994  0.00  0.00    +0.000 N 
ATOM     17  H7  UNL     1      16.582  13.179  -1.283  0.00  0.00    +0.000 HD
BRANCH  16  18
ATOM     18  C7  UNL     1      15.372  11.717  -2.242  0.00  0.00    +0.000 C 
BRANCH  18  19
ATOM     19  C8  UNL     1      16.144  11.006  -3.354  0.00  0.00    +0.000 C 
BRANCH  19  20
ATOM     20  C9  UNL     1      15.440  11.123  -4.683  0.00  0.00    +0.000 A 
ATOM     21  C10 UNL     1      14.078  10.812  -4.790  0.00  0.00    +0.000 A 
ATOM     22  C11 UNL     1      13.428  10.898  -6.021  0.00  0.00    +0.000 A 
ATOM     23  C12 UNL     1      14.134  11.292  -7.157  0.00  0.00    +0.000 A 
ATOM     24  C13 UNL     1      15.489  11.598  -7.062  0.00  0.00    +0.000 A 
ATOM     25  C14 UNL     1      16.142  11.513  -5.831  0.00  0.00    +0.000 A 
ENDBRANCH  19  20
ENDBRANCH  18  19
ENDBRANCH  16  18
ENDBRANCH   1  14
TORSDOF 6
ENDMDL
MODEL 7
REMARK VINA RESULT:    -5.029     15.307     17.754
REMARK INTER + INTRA:          -8.221
REMARK INTER:                  -7.704
REMARK INTRA:                  -0.518
REMARK UNBOUND:                -1.428
REMARK  Name = /home/anacleto/Desktop/manuscript_Mpro/naturecomm/supplementary_file_S2/6-chemical-library/molecular_docking/3D_ligand_structure/438.pdb
REMARK  6 active torsions:
REMARK  status: ('A' for Active; 'I' for Inactive)
REMARK    1  A    between atoms: C3_6  and  C4_7
REMARK    2  A    between atoms: N3_9  and  C5_10
REMARK    3  A    between atoms: C5_10  and  C6_11
REMARK    4  A    between atoms: N4_13  and  C7_14
REMARK    5  A    between atoms: C7_14  and  C8_15
REMARK    6  A    between atoms: C8_15  and  C9_16
REMARK                            x       y       z     vdW  Elec       q    Type
REMARK                         _______ _______ _______ _____ _____    ______ ____
ROOT
ATOM      1  C5  UNL     1      14.515  14.906  -2.359  0.00  0.00    +0.000 C 
ENDROOT
BRANCH   1   4
ATOM      2  C4  UNL     1      14.848  13.503  -4.334  0.00  0.00    +0.000 C 
ATOM      3  O2  UNL     1      15.388  14.370  -5.007  0.00  0.00    +0.000 OA
ATOM      4  N3  UNL     1      14.598  13.605  -2.987  0.00  0.00    +0.000 N 
ATOM      5  H4  UNL     1      14.038  12.869  -2.570  0.00  0.00    +0.000 HD
BRANCH   2  11
ATOM      6  N1  UNL     1      14.230  11.054  -4.180  0.00  0.00    +0.000 N 
ATOM      7  N2  UNL     1      13.526  10.170  -5.014  0.00  0.00    +0.000 N 
ATOM      8  C1  UNL     1      13.435  10.735  -6.278  0.00  0.00    +0.000 A 
ATOM      9  O1  UNL     1      13.083  10.189  -7.307  0.00  0.00    +0.000 OA
ATOM     10  C2  UNL     1      13.882  12.135  -6.171  0.00  0.00    +0.000 A 
ATOM     11  C3  UNL     1      14.342  12.232  -4.919  0.00  0.00    +0.000 A 
ATOM     12  H1  UNL     1      13.746  11.240  -3.291  0.00  0.00    +0.000 HD
ATOM     13  H2  UNL     1      13.651   9.167  -4.925  0.00  0.00    +0.000 HD
ENDBRANCH   2  11
ENDBRANCH   1   4
BRANCH   1  14
ATOM     14  C6  UNL     1      15.865  15.197  -1.695  0.00  0.00    +0.000 C 
ATOM     15  O3  UNL     1      16.511  16.218  -1.935  0.00  0.00    +0.000 OA
ATOM     16  N4  UNL     1      16.259  14.248  -0.775  0.00  0.00    +0.000 N 
ATOM     17  H7  UNL     1      15.754  13.372  -0.724  0.00  0.00    +0.000 HD
BRANCH  16  18
ATOM     18  C7  UNL     1      17.535  14.341  -0.087  0.00  0.00    +0.000 C 
BRANCH  18  19
ATOM     19  C8  UNL     1      18.633  13.538  -0.787  0.00  0.00    +0.000 C 
BRANCH  19  20
ATOM     20  C9  UNL     1      19.970  14.228  -0.697  0.00  0.00    +0.000 A 
ATOM     21  C10 UNL     1      20.748  14.415  -1.848  0.00  0.00    +0.000 A 
ATOM     22  C11 UNL     1      21.995  15.033  -1.765  0.00  0.00    +0.000 A 
ATOM     23  C12 UNL     1      22.479  15.468  -0.533  0.00  0.00    +0.000 A 
ATOM     24  C13 UNL     1      21.717  15.282   0.619  0.00  0.00    +0.000 A 
ATOM     25  C14 UNL     1      20.467  14.663   0.539  0.00  0.00    +0.000 A 
ENDBRANCH  19  20
ENDBRANCH  18  19
ENDBRANCH  16  18
ENDBRANCH   1  14
TORSDOF 6
ENDMDL
MODEL 8
REMARK VINA RESULT:    -4.922     15.760     17.761
REMARK INTER + INTRA:          -8.076
REMARK INTER:                  -6.648
REMARK INTRA:                  -1.428
REMARK UNBOUND:                -1.428
REMARK  Name = /home/anacleto/Desktop/manuscript_Mpro/naturecomm/supplementary_file_S2/6-chemical-library/molecular_docking/3D_ligand_structure/438.pdb
REMARK  6 active torsions:
REMARK  status: ('A' for Active; 'I' for Inactive)
REMARK    1  A    between atoms: C3_6  and  C4_7
REMARK    2  A    between atoms: N3_9  and  C5_10
REMARK    3  A    between atoms: C5_10  and  C6_11
REMARK    4  A    between atoms: N4_13  and  C7_14
REMARK    5  A    between atoms: C7_14  and  C8_15
REMARK    6  A    between atoms: C8_15  and  C9_16
REMARK                            x       y       z     vdW  Elec       q    Type
REMARK                         _______ _______ _______ _____ _____    ______ ____
ROOT
ATOM      1  C5  UNL     1      15.111  15.347  -3.374  0.00  0.00    +0.000 C 
ENDROOT
BRANCH   1   4
ATOM      2  C4  UNL     1      14.654  12.949  -3.531  0.00  0.00    +0.000 C 
ATOM      3  O2  UNL     1      15.125  12.667  -2.437  0.00  0.00    +0.000 OA
ATOM      4  N3  UNL     1      14.406  14.230  -3.965  0.00  0.00    +0.000 N 
ATOM      5  H4  UNL     1      14.127  14.336  -4.934  0.00  0.00    +0.000 HD
BRANCH   2  11
ATOM      6  N1  UNL     1      14.075  10.590  -4.238  0.00  0.00    +0.000 N 
ATOM      7  N2  UNL     1      13.617  10.014  -5.433  0.00  0.00    +0.000 N 
ATOM      8  C1  UNL     1      13.823  10.917  -6.466  0.00  0.00    +0.000 A 
ATOM      9  O1  UNL     1      13.745  10.702  -7.661  0.00  0.00    +0.000 OA
ATOM     10  C2  UNL     1      14.197  12.206  -5.858  0.00  0.00    +0.000 A 
ATOM     11  C3  UNL     1      14.336  11.922  -4.558  0.00  0.00    +0.000 A 
ATOM     12  H1  UNL     1      13.385  10.539  -3.476  0.00  0.00    +0.000 HD
ATOM     13  H2  UNL     1      13.740   9.022  -5.608  0.00  0.00    +0.000 HD
ENDBRANCH   2  11
ENDBRANCH   1   4
BRANCH   1  14
ATOM     14  C6  UNL     1      16.562  15.304  -3.865  0.00  0.00    +0.000 C 
ATOM     15  O3  UNL     1      16.872  15.576  -5.026  0.00  0.00    +0.000 OA
ATOM     16  N4  UNL     1      17.481  14.990  -2.888  0.00  0.00    +0.000 N 
ATOM     17  H7  UNL     1      17.152  14.647  -1.993  0.00  0.00    +0.000 HD
BRANCH  16  18
ATOM     18  C7  UNL     1      18.896  14.859  -3.189  0.00  0.00    +0.000 C 
BRANCH  18  19
ATOM     19  C8  UNL     1      19.438  13.470  -2.844  0.00  0.00    +0.000 C 
BRANCH  19  20
ATOM     20  C9  UNL     1      18.822  12.401  -3.710  0.00  0.00    +0.000 A 
ATOM     21  C10 UNL     1      18.782  12.556  -5.102  0.00  0.00    +0.000 A 
ATOM     22  C11 UNL     1      18.194  11.579  -5.906  0.00  0.00    +0.000 A 
ATOM     23  C12 UNL     1      17.637  10.440  -5.326  0.00  0.00    +0.000 A 
ATOM     24  C13 UNL     1      17.667  10.279  -3.942  0.00  0.00    +0.000 A 
ATOM     25  C14 UNL     1      18.255  11.256  -3.136  0.00  0.00    +0.000 A 
ENDBRANCH  19  20
ENDBRANCH  18  19
ENDBRANCH  16  18
ENDBRANCH   1  14
TORSDOF 6
ENDMDL
MODEL 9
REMARK VINA RESULT:    -4.908      3.352      8.037
REMARK INTER + INTRA:          -8.057
REMARK INTER:                  -7.485
REMARK INTRA:                  -0.573
REMARK UNBOUND:                -1.428
REMARK  Name = /home/anacleto/Desktop/manuscript_Mpro/naturecomm/supplementary_file_S2/6-chemical-library/molecular_docking/3D_ligand_structure/438.pdb
REMARK  6 active torsions:
REMARK  status: ('A' for Active; 'I' for Inactive)
REMARK    1  A    between atoms: C3_6  and  C4_7
REMARK    2  A    between atoms: N3_9  and  C5_10
REMARK    3  A    between atoms: C5_10  and  C6_11
REMARK    4  A    between atoms: N4_13  and  C7_14
REMARK    5  A    between atoms: C7_14  and  C8_15
REMARK    6  A    between atoms: C8_15  and  C9_16
REMARK                            x       y       z     vdW  Elec       q    Type
REMARK                         _______ _______ _______ _____ _____    ______ ____
ROOT
ATOM      1  C5  UNL     1      14.854   4.276  12.765  0.00  0.00    +0.000 C 
ENDROOT
BRANCH   1   4
ATOM      2  C4  UNL     1      13.771   2.479  11.507  0.00  0.00    +0.000 C 
ATOM      3  O2  UNL     1      13.354   1.880  12.490  0.00  0.00    +0.000 OA
ATOM      4  N3  UNL     1      14.305   3.744  11.535  0.00  0.00    +0.000 N 
ATOM      5  H4  UNL     1      14.723   4.082  10.675  0.00  0.00    +0.000 HD
BRANCH   2  11
ATOM      6  N1  UNL     1      12.635   1.617   9.417  0.00  0.00    +0.000 N 
ATOM      7  N2  UNL     1      13.086   1.260   8.137  0.00  0.00    +0.000 N 
ATOM      8  C1  UNL     1      14.463   1.092   8.185  0.00  0.00    +0.000 A 
ATOM      9  O1  UNL     1      15.176   0.591   7.336  0.00  0.00    +0.000 OA
ATOM     10  C2  UNL     1      14.925   1.603   9.488  0.00  0.00    +0.000 A 
ATOM     11  C3  UNL     1      13.794   1.874  10.148  0.00  0.00    +0.000 A 
ATOM     12  H1  UNL     1      12.028   2.448   9.413  0.00  0.00    +0.000 HD
ATOM     13  H2  UNL     1      12.532   0.651   7.545  0.00  0.00    +0.000 HD
ENDBRANCH   2  11
ENDBRANCH   1   4
BRANCH   1  14
ATOM     14  C6  UNL     1      16.333   4.593  12.525  0.00  0.00    +0.000 C 
ATOM     15  O3  UNL     1      17.027   3.943  11.742  0.00  0.00    +0.000 OA
ATOM     16  N4  UNL     1      16.796   5.692  13.216  0.00  0.00    +0.000 N 
ATOM     17  H7  UNL     1      16.216   6.097  13.941  0.00  0.00    +0.000 HD
BRANCH  16  18
ATOM     18  C7  UNL     1      18.186   6.107  13.142  0.00  0.00    +0.000 C 
BRANCH  18  19
ATOM     19  C8  UNL     1      18.383   7.318  12.228  0.00  0.00    +0.000 C 
BRANCH  19  20
ATOM     20  C9  UNL     1      19.376   7.031  11.131  0.00  0.00    +0.000 A 
ATOM     21  C10 UNL     1      20.716   6.764  11.442  0.00  0.00    +0.000 A 
ATOM     22  C11 UNL     1      21.642   6.520  10.428  0.00  0.00    +0.000 A 
ATOM     23  C12 UNL     1      21.239   6.543   9.094  0.00  0.00    +0.000 A 
ATOM     24  C13 UNL     1      19.910   6.811   8.773  0.00  0.00    +0.000 A 
ATOM     25  C14 UNL     1      18.981   7.056   9.787  0.00  0.00    +0.000 A 
ENDBRANCH  19  20
ENDBRANCH  18  19
ENDBRANCH  16  18
ENDBRANCH   1  14
TORSDOF 6
ENDMDL
