MODEL 1
REMARK VINA RESULT:    -5.253      0.000      0.000
REMARK INTER + INTRA:          -7.005
REMARK INTER:                  -6.546
REMARK INTRA:                  -0.459
REMARK UNBOUND:                -0.523
REMARK  Name = /home/anacleto/Desktop/manuscript_Mpro/naturecomm/supplementary_file_S2/6-chemical-library/molecular_docking/3D_ligand_structure/601.pdb
REMARK  4 active torsions:
REMARK  status: ('A' for Active; 'I' for Inactive)
REMARK    1  A    between atoms: N2_4  and  C4_7
REMARK    2  A    between atoms: C4_7  and  C5_8
REMARK    3  A    between atoms: N3_10  and  C6_11
REMARK    4  A    between atoms: C6_11  and  C7_12
REMARK                            x       y       z     vdW  Elec       q    Type
REMARK                         _______ _______ _______ _____ _____    ______ ____
ROOT
ATOM      1  C5  UNL     1      15.629  13.738  -2.645  0.00  0.00    +0.000 C 
ATOM      2  O2  UNL     1      14.697  14.333  -2.108  0.00  0.00    +0.000 OA
ATOM      3  N3  UNL     1      16.744  13.294  -1.970  0.00  0.00    +0.000 N 
ATOM      4  H8  UNL     1      17.370  12.656  -2.460  0.00  0.00    +0.000 HD
ENDROOT
BRANCH   1   5
ATOM      5  C4  UNL     1      15.606  13.366  -4.130  0.00  0.00    +0.000 C 
BRANCH   5   9
ATOM      6  N1  UNL     1      13.840  10.240  -4.633  0.00  0.00    +0.000 N 
ATOM      7  C1  UNL     1      12.995  11.054  -5.466  0.00  0.00    +0.000 C 
ATOM      8  C2  UNL     1      13.767  12.364  -5.573  0.00  0.00    +0.000 C 
ATOM      9  N2  UNL     1      14.642  12.318  -4.422  0.00  0.00    +0.000 N 
ATOM     10  C3  UNL     1      14.771  11.015  -3.965  0.00  0.00    +0.000 C 
ATOM     11  O1  UNL     1      15.589  10.604  -3.161  0.00  0.00    +0.000 OA
ATOM     12  H1  UNL     1      13.677   9.280  -4.360  0.00  0.00    +0.000 HD
ENDBRANCH   5   9
ENDBRANCH   1   5
BRANCH   3  13
ATOM     13  C6  UNL     1      16.870  13.390  -0.537  0.00  0.00    +0.000 C 
BRANCH  13  14
ATOM     14  C7  UNL     1      18.022  14.282  -0.157  0.00  0.00    +0.000 A 
ATOM     15  C8  UNL     1      17.808  15.629   0.169  0.00  0.00    +0.000 A 
ATOM     16  C9  UNL     1      18.882  16.456   0.499  0.00  0.00    +0.000 A 
ATOM     17  C10 UNL     1      20.181  15.949   0.498  0.00  0.00    +0.000 A 
ATOM     18  C11 UNL     1      20.407  14.615   0.164  0.00  0.00    +0.000 A 
ATOM     19  C12 UNL     1      19.334  13.787  -0.167  0.00  0.00    +0.000 A 
ENDBRANCH  13  14
ENDBRANCH   3  13
TORSDOF 4
ENDMDL
MODEL 2
REMARK VINA RESULT:    -5.085      3.736      6.981
REMARK INTER + INTRA:          -6.797
REMARK INTER:                  -6.374
REMARK INTRA:                  -0.423
REMARK UNBOUND:                -0.523
REMARK  Name = /home/anacleto/Desktop/manuscript_Mpro/naturecomm/supplementary_file_S2/6-chemical-library/molecular_docking/3D_ligand_structure/601.pdb
REMARK  4 active torsions:
REMARK  status: ('A' for Active; 'I' for Inactive)
REMARK    1  A    between atoms: N2_4  and  C4_7
REMARK    2  A    between atoms: C4_7  and  C5_8
REMARK    3  A    between atoms: N3_10  and  C6_11
REMARK    4  A    between atoms: C6_11  and  C7_12
REMARK                            x       y       z     vdW  Elec       q    Type
REMARK                         _______ _______ _______ _____ _____    ______ ____
ROOT
ATOM      1  C5  UNL     1      15.931  15.726  -3.289  0.00  0.00    +0.000 C 
ATOM      2  O2  UNL     1      17.004  16.235  -3.606  0.00  0.00    +0.000 OA
ATOM      3  N3  UNL     1      15.232  14.851  -4.092  0.00  0.00    +0.000 N 
ATOM      4  H8  UNL     1      14.454  14.344  -3.671  0.00  0.00    +0.000 HD
ENDROOT
BRANCH   1   5
ATOM      5  C4  UNL     1      15.293  15.965  -1.918  0.00  0.00    +0.000 C 
BRANCH   5   9
ATOM      6  N1  UNL     1      12.179  17.819  -1.972  0.00  0.00    +0.000 N 
ATOM      7  C1  UNL     1      11.601  16.513  -1.801  0.00  0.00    +0.000 C 
ATOM      8  C2  UNL     1      12.808  15.634  -1.491  0.00  0.00    +0.000 C 
ATOM      9  N2  UNL     1      13.912  16.405  -2.020  0.00  0.00    +0.000 N 
ATOM     10  C3  UNL     1      13.545  17.735  -2.170  0.00  0.00    +0.000 C 
ATOM     11  O1  UNL     1      14.289  18.675  -2.384  0.00  0.00    +0.000 OA
ATOM     12  H1  UNL     1      11.683  18.680  -2.159  0.00  0.00    +0.000 HD
ENDBRANCH   5   9
ENDBRANCH   1   5
BRANCH   3  13
ATOM     13  C6  UNL     1      15.755  14.363  -5.343  0.00  0.00    +0.000 C 
BRANCH  13  14
ATOM     14  C7  UNL     1      14.996  13.148  -5.805  0.00  0.00    +0.000 A 
ATOM     15  C8  UNL     1      15.325  12.515  -7.013  0.00  0.00    +0.000 A 
ATOM     16  C9  UNL     1      14.604  11.402  -7.448  0.00  0.00    +0.000 A 
ATOM     17  C10 UNL     1      13.543  10.915  -6.685  0.00  0.00    +0.000 A 
ATOM     18  C11 UNL     1      13.199  11.544  -5.490  0.00  0.00    +0.000 A 
ATOM     19  C12 UNL     1      13.919  12.657  -5.054  0.00  0.00    +0.000 A 
ENDBRANCH  13  14
ENDBRANCH   3  13
TORSDOF 4
ENDMDL
MODEL 3
REMARK VINA RESULT:    -5.071      2.805      6.262
REMARK INTER + INTRA:          -6.779
REMARK INTER:                  -6.232
REMARK INTRA:                  -0.548
REMARK UNBOUND:                -0.523
REMARK  Name = /home/anacleto/Desktop/manuscript_Mpro/naturecomm/supplementary_file_S2/6-chemical-library/molecular_docking/3D_ligand_structure/601.pdb
REMARK  4 active torsions:
REMARK  status: ('A' for Active; 'I' for Inactive)
REMARK    1  A    between atoms: N2_4  and  C4_7
REMARK    2  A    between atoms: C4_7  and  C5_8
REMARK    3  A    between atoms: N3_10  and  C6_11
REMARK    4  A    between atoms: C6_11  and  C7_12
REMARK                            x       y       z     vdW  Elec       q    Type
REMARK                         _______ _______ _______ _____ _____    ______ ____
ROOT
ATOM      1  C5  UNL     1      16.625  12.981  -2.409  0.00  0.00    +0.000 C 
ATOM      2  O2  UNL     1      16.334  12.082  -1.623  0.00  0.00    +0.000 OA
ATOM      3  N3  UNL     1      17.018  12.760  -3.711  0.00  0.00    +0.000 N 
ATOM      4  H8  UNL     1      17.059  13.565  -4.334  0.00  0.00    +0.000 HD
ENDROOT
BRANCH   1   5
ATOM      5  C4  UNL     1      16.507  14.460  -2.032  0.00  0.00    +0.000 C 
BRANCH   5   9
ATOM      6  N1  UNL     1      13.155  15.611  -2.791  0.00  0.00    +0.000 N 
ATOM      7  C1  UNL     1      13.185  16.053  -1.422  0.00  0.00    +0.000 C 
ATOM      8  C2  UNL     1      14.648  15.876  -1.030  0.00  0.00    +0.000 C 
ATOM      9  N2  UNL     1      15.128  14.914  -1.998  0.00  0.00    +0.000 N 
ATOM     10  C3  UNL     1      14.286  14.877  -3.101  0.00  0.00    +0.000 C 
ATOM     11  O1  UNL     1      14.513  14.342  -4.171  0.00  0.00    +0.000 OA
ATOM     12  H1  UNL     1      12.355  15.611  -3.410  0.00  0.00    +0.000 HD
ENDBRANCH   5   9
ENDBRANCH   1   5
BRANCH   3  13
ATOM     13  C6  UNL     1      17.017  11.448  -4.307  0.00  0.00    +0.000 C 
BRANCH  13  14
ATOM     14  C7  UNL     1      15.779  11.234  -5.136  0.00  0.00    +0.000 A 
ATOM     15  C8  UNL     1      15.776  11.529  -6.507  0.00  0.00    +0.000 A 
ATOM     16  C9  UNL     1      14.618  11.350  -7.267  0.00  0.00    +0.000 A 
ATOM     17  C10 UNL     1      13.452  10.883  -6.663  0.00  0.00    +0.000 A 
ATOM     18  C11 UNL     1      13.439  10.600  -5.298  0.00  0.00    +0.000 A 
ATOM     19  C12 UNL     1      14.595  10.778  -4.537  0.00  0.00    +0.000 A 
ENDBRANCH  13  14
ENDBRANCH   3  13
TORSDOF 4
ENDMDL
MODEL 4
REMARK VINA RESULT:    -4.988      1.311      2.470
REMARK INTER + INTRA:          -6.677
REMARK INTER:                  -6.206
REMARK INTRA:                  -0.471
REMARK UNBOUND:                -0.523
REMARK  Name = /home/anacleto/Desktop/manuscript_Mpro/naturecomm/supplementary_file_S2/6-chemical-library/molecular_docking/3D_ligand_structure/601.pdb
REMARK  4 active torsions:
REMARK  status: ('A' for Active; 'I' for Inactive)
REMARK    1  A    between atoms: N2_4  and  C4_7
REMARK    2  A    between atoms: C4_7  and  C5_8
REMARK    3  A    between atoms: N3_10  and  C6_11
REMARK    4  A    between atoms: C6_11  and  C7_12
REMARK                            x       y       z     vdW  Elec       q    Type
REMARK                         _______ _______ _______ _____ _____    ______ ____
ROOT
ATOM      1  C5  UNL     1      17.216  11.366  -2.362  0.00  0.00    +0.000 C 
ATOM      2  O2  UNL     1      18.005  11.178  -3.286  0.00  0.00    +0.000 OA
ATOM      3  N3  UNL     1      17.577  11.899  -1.144  0.00  0.00    +0.000 N 
ATOM      4  H8  UNL     1      16.829  12.185  -0.514  0.00  0.00    +0.000 HD
ENDROOT
BRANCH   1   5
ATOM      5  C4  UNL     1      15.718  11.086  -2.504  0.00  0.00    +0.000 C 
BRANCH   5   9
ATOM      6  N1  UNL     1      13.991  13.377  -4.719  0.00  0.00    +0.000 N 
ATOM      7  C1  UNL     1      13.984  12.242  -5.603  0.00  0.00    +0.000 C 
ATOM      8  C2  UNL     1      14.447  11.099  -4.707  0.00  0.00    +0.000 C 
ATOM      9  N2  UNL     1      15.129  11.787  -3.632  0.00  0.00    +0.000 N 
ATOM     10  C3  UNL     1      14.733  13.116  -3.582  0.00  0.00    +0.000 C 
ATOM     11  O1  UNL     1      14.949  13.905  -2.679  0.00  0.00    +0.000 OA
ATOM     12  H1  UNL     1      13.710  14.322  -4.946  0.00  0.00    +0.000 HD
ENDBRANCH   5   9
ENDBRANCH   1   5
BRANCH   3  13
ATOM     13  C6  UNL     1      18.906  12.391  -0.880  0.00  0.00    +0.000 C 
BRANCH  13  14
ATOM     14  C7  UNL     1      18.857  13.768  -0.271  0.00  0.00    +0.000 A 
ATOM     15  C8  UNL     1      20.001  14.336   0.307  0.00  0.00    +0.000 A 
ATOM     16  C9  UNL     1      19.945  15.603   0.889  0.00  0.00    +0.000 A 
ATOM     17  C10 UNL     1      18.744  16.312   0.907  0.00  0.00    +0.000 A 
ATOM     18  C11 UNL     1      17.597  15.751   0.347  0.00  0.00    +0.000 A 
ATOM     19  C12 UNL     1      17.652  14.484  -0.235  0.00  0.00    +0.000 A 
ENDBRANCH  13  14
ENDBRANCH   3  13
TORSDOF 4
ENDMDL
MODEL 5
REMARK VINA RESULT:    -4.924     14.276     16.362
REMARK INTER + INTRA:          -6.599
REMARK INTER:                  -6.318
REMARK INTRA:                  -0.281
REMARK UNBOUND:                -0.523
REMARK  Name = /home/anacleto/Desktop/manuscript_Mpro/naturecomm/supplementary_file_S2/6-chemical-library/molecular_docking/3D_ligand_structure/601.pdb
REMARK  4 active torsions:
REMARK  status: ('A' for Active; 'I' for Inactive)
REMARK    1  A    between atoms: N2_4  and  C4_7
REMARK    2  A    between atoms: C4_7  and  C5_8
REMARK    3  A    between atoms: N3_10  and  C6_11
REMARK    4  A    between atoms: C6_11  and  C7_12
REMARK                            x       y       z     vdW  Elec       q    Type
REMARK                         _______ _______ _______ _____ _____    ______ ____
ROOT
ATOM      1  C5  UNL     1      18.351   4.412   9.422  0.00  0.00    +0.000 C 
ATOM      2  O2  UNL     1      18.249   4.454  10.646  0.00  0.00    +0.000 OA
ATOM      3  N3  UNL     1      17.395   3.869   8.592  0.00  0.00    +0.000 N 
ATOM      4  H8  UNL     1      17.483   4.044   7.593  0.00  0.00    +0.000 HD
ENDROOT
BRANCH   1   5
ATOM      5  C4  UNL     1      19.540   5.034   8.685  0.00  0.00    +0.000 C 
BRANCH   5   9
ATOM      6  N1  UNL     1      21.564   7.613  10.230  0.00  0.00    +0.000 N 
ATOM      7  C1  UNL     1      22.044   6.515  11.026  0.00  0.00    +0.000 C 
ATOM      8  C2  UNL     1      21.476   5.293  10.314  0.00  0.00    +0.000 C 
ATOM      9  N2  UNL     1      20.371   5.844   9.560  0.00  0.00    +0.000 N 
ATOM     10  C3  UNL     1      20.523   7.215   9.412  0.00  0.00    +0.000 C 
ATOM     11  O1  UNL     1      19.894   7.939   8.661  0.00  0.00    +0.000 OA
ATOM     12  H1  UNL     1      21.762   8.595  10.372  0.00  0.00    +0.000 HD
ENDBRANCH   5   9
ENDBRANCH   1   5
BRANCH   3  13
ATOM     13  C6  UNL     1      16.125   3.396   9.083  0.00  0.00    +0.000 C 
BRANCH  13  14
ATOM     14  C7  UNL     1      15.803   2.037   8.518  0.00  0.00    +0.000 A 
ATOM     15  C8  UNL     1      14.484   1.561   8.506  0.00  0.00    +0.000 A 
ATOM     16  C9  UNL     1      14.195   0.293   8.002  0.00  0.00    +0.000 A 
ATOM     17  C10 UNL     1      15.220  -0.516   7.512  0.00  0.00    +0.000 A 
ATOM     18  C11 UNL     1      16.536  -0.058   7.531  0.00  0.00    +0.000 A 
ATOM     19  C12 UNL     1      16.827   1.210   8.035  0.00  0.00    +0.000 A 
ENDBRANCH  13  14
ENDBRANCH   3  13
TORSDOF 4
ENDMDL
MODEL 6
REMARK VINA RESULT:    -4.923     14.067     14.990
REMARK INTER + INTRA:          -6.597
REMARK INTER:                  -6.244
REMARK INTRA:                  -0.353
REMARK UNBOUND:                -0.523
REMARK  Name = /home/anacleto/Desktop/manuscript_Mpro/naturecomm/supplementary_file_S2/6-chemical-library/molecular_docking/3D_ligand_structure/601.pdb
REMARK  4 active torsions:
REMARK  status: ('A' for Active; 'I' for Inactive)
REMARK    1  A    between atoms: N2_4  and  C4_7
REMARK    2  A    between atoms: C4_7  and  C5_8
REMARK    3  A    between atoms: N3_10  and  C6_11
REMARK    4  A    between atoms: C6_11  and  C7_12
REMARK                            x       y       z     vdW  Elec       q    Type
REMARK                         _______ _______ _______ _____ _____    ______ ____
ROOT
ATOM      1  C5  UNL     1      16.441   3.201   9.096  0.00  0.00    +0.000 C 
ATOM      2  O2  UNL     1      16.092   2.800  10.204  0.00  0.00    +0.000 OA
ATOM      3  N3  UNL     1      17.576   3.951   8.877  0.00  0.00    +0.000 N 
ATOM      4  H8  UNL     1      17.878   4.078   7.913  0.00  0.00    +0.000 HD
ENDROOT
BRANCH   1   5
ATOM      5  C4  UNL     1      15.672   2.841   7.823  0.00  0.00    +0.000 C 
BRANCH   5   9
ATOM      6  N1  UNL     1      14.287  -0.490   8.169  0.00  0.00    +0.000 N 
ATOM      7  C1  UNL     1      15.585  -0.890   7.697  0.00  0.00    +0.000 C 
ATOM      8  C2  UNL     1      16.392   0.402   7.753  0.00  0.00    +0.000 C 
ATOM      9  N2  UNL     1      15.366   1.423   7.745  0.00  0.00    +0.000 N 
ATOM     10  C3  UNL     1      14.145   0.885   8.128  0.00  0.00    +0.000 C 
ATOM     11  O1  UNL     1      13.140   1.503   8.428  0.00  0.00    +0.000 OA
ATOM     12  H1  UNL     1      13.482  -1.088   8.304  0.00  0.00    +0.000 HD
ENDBRANCH   5   9
ENDBRANCH   1   5
BRANCH   3  13
ATOM     13  C6  UNL     1      18.525   4.240   9.923  0.00  0.00    +0.000 C 
BRANCH  13  14
ATOM     14  C7  UNL     1      19.343   5.458   9.584  0.00  0.00    +0.000 A 
ATOM     15  C8  UNL     1      20.594   5.670  10.182  0.00  0.00    +0.000 A 
ATOM     16  C9  UNL     1      21.338   6.811   9.881  0.00  0.00    +0.000 A 
ATOM     17  C10 UNL     1      20.838   7.755   8.986  0.00  0.00    +0.000 A 
ATOM     18  C11 UNL     1      19.591   7.562   8.394  0.00  0.00    +0.000 A 
ATOM     19  C12 UNL     1      18.845   6.421   8.695  0.00  0.00    +0.000 A 
ENDBRANCH  13  14
ENDBRANCH   3  13
TORSDOF 4
ENDMDL
MODEL 7
REMARK VINA RESULT:    -4.824     14.419     16.443
REMARK INTER + INTRA:          -6.475
REMARK INTER:                  -6.119
REMARK INTRA:                  -0.357
REMARK UNBOUND:                -0.523
REMARK  Name = /home/anacleto/Desktop/manuscript_Mpro/naturecomm/supplementary_file_S2/6-chemical-library/molecular_docking/3D_ligand_structure/601.pdb
REMARK  4 active torsions:
REMARK  status: ('A' for Active; 'I' for Inactive)
REMARK    1  A    between atoms: N2_4  and  C4_7
REMARK    2  A    between atoms: C4_7  and  C5_8
REMARK    3  A    between atoms: N3_10  and  C6_11
REMARK    4  A    between atoms: C6_11  and  C7_12
REMARK                            x       y       z     vdW  Elec       q    Type
REMARK                         _______ _______ _______ _____ _____    ______ ____
ROOT
ATOM      1  C5  UNL     1      18.487   3.920   9.522  0.00  0.00    +0.000 C 
ATOM      2  O2  UNL     1      19.313   3.033   9.319  0.00  0.00    +0.000 OA
ATOM      3  N3  UNL     1      17.235   3.946   8.948  0.00  0.00    +0.000 N 
ATOM      4  H8  UNL     1      16.561   4.616   9.316  0.00  0.00    +0.000 HD
ENDROOT
BRANCH   1   5
ATOM      5  C4  UNL     1      18.750   5.064  10.505  0.00  0.00    +0.000 C 
BRANCH   5   9
ATOM      6  N1  UNL     1      21.304   7.584   9.991  0.00  0.00    +0.000 N 
ATOM      7  C1  UNL     1      20.574   7.826   8.775  0.00  0.00    +0.000 C 
ATOM      8  C2  UNL     1      19.298   7.014   8.966  0.00  0.00    +0.000 C 
ATOM      9  N2  UNL     1      19.679   6.047   9.973  0.00  0.00    +0.000 N 
ATOM     10  C3  UNL     1      20.804   6.481  10.659  0.00  0.00    +0.000 C 
ATOM     11  O1  UNL     1      21.249   6.017  11.693  0.00  0.00    +0.000 OA
ATOM     12  H1  UNL     1      22.196   7.983  10.250  0.00  0.00    +0.000 HD
ENDBRANCH   5   9
ENDBRANCH   1   5
BRANCH   3  13
ATOM     13  C6  UNL     1      16.735   2.866   8.135  0.00  0.00    +0.000 C 
BRANCH  13  14
ATOM     14  C7  UNL     1      15.477   2.286   8.727  0.00  0.00    +0.000 A 
ATOM     15  C8  UNL     1      14.727   1.334   8.022  0.00  0.00    +0.000 A 
ATOM     16  C9  UNL     1      13.551   0.816   8.565  0.00  0.00    +0.000 A 
ATOM     17  C10 UNL     1      13.108   1.249   9.814  0.00  0.00    +0.000 A 
ATOM     18  C11 UNL     1      13.839   2.204  10.519  0.00  0.00    +0.000 A 
ATOM     19  C12 UNL     1      15.015   2.724   9.976  0.00  0.00    +0.000 A 
ENDBRANCH  13  14
ENDBRANCH   3  13
TORSDOF 4
ENDMDL
MODEL 8
REMARK VINA RESULT:    -4.735     14.752     16.739
REMARK INTER + INTRA:          -6.365
REMARK INTER:                  -5.836
REMARK INTRA:                  -0.529
REMARK UNBOUND:                -0.523
REMARK  Name = /home/anacleto/Desktop/manuscript_Mpro/naturecomm/supplementary_file_S2/6-chemical-library/molecular_docking/3D_ligand_structure/601.pdb
REMARK  4 active torsions:
REMARK  status: ('A' for Active; 'I' for Inactive)
REMARK    1  A    between atoms: N2_4  and  C4_7
REMARK    2  A    between atoms: C4_7  and  C5_8
REMARK    3  A    between atoms: N3_10  and  C6_11
REMARK    4  A    between atoms: C6_11  and  C7_12
REMARK                            x       y       z     vdW  Elec       q    Type
REMARK                         _______ _______ _______ _____ _____    ______ ____
ROOT
ATOM      1  C5  UNL     1      17.150   3.402   9.880  0.00  0.00    +0.000 C 
ATOM      2  O2  UNL     1      16.102   3.446  10.521  0.00  0.00    +0.000 OA
ATOM      3  N3  UNL     1      17.214   3.084   8.541  0.00  0.00    +0.000 N 
ATOM      4  H8  UNL     1      18.096   3.252   8.058  0.00  0.00    +0.000 HD
ENDROOT
BRANCH   1   5
ATOM      5  C4  UNL     1      18.499   3.771  10.502  0.00  0.00    +0.000 C 
BRANCH   5   9
ATOM      6  N1  UNL     1      19.391   7.254  10.038  0.00  0.00    +0.000 N 
ATOM      7  C1  UNL     1      19.130   7.328  11.451  0.00  0.00    +0.000 C 
ATOM      8  C2  UNL     1      18.995   5.865  11.859  0.00  0.00    +0.000 C 
ATOM      9  N2  UNL     1      18.684   5.208  10.607  0.00  0.00    +0.000 N 
ATOM     10  C3  UNL     1      19.057   6.009   9.536  0.00  0.00    +0.000 C 
ATOM     11  O1  UNL     1      19.131   5.672   8.368  0.00  0.00    +0.000 OA
ATOM     12  H1  UNL     1      19.571   8.030   9.415  0.00  0.00    +0.000 HD
ENDBRANCH   5   9
ENDBRANCH   1   5
BRANCH   3  13
ATOM     13  C6  UNL     1      16.036   2.880   7.737  0.00  0.00    +0.000 C 
BRANCH  13  14
ATOM     14  C7  UNL     1      15.520   1.473   7.887  0.00  0.00    +0.000 A 
ATOM     15  C8  UNL     1      16.320   0.376   7.537  0.00  0.00    +0.000 A 
ATOM     16  C9  UNL     1      15.829  -0.924   7.657  0.00  0.00    +0.000 A 
ATOM     17  C10 UNL     1      14.532  -1.142   8.119  0.00  0.00    +0.000 A 
ATOM     18  C11 UNL     1      13.722  -0.059   8.457  0.00  0.00    +0.000 A 
ATOM     19  C12 UNL     1      14.212   1.243   8.337  0.00  0.00    +0.000 A 
ENDBRANCH  13  14
ENDBRANCH   3  13
TORSDOF 4
ENDMDL
MODEL 9
REMARK VINA RESULT:    -4.706      3.019      4.437
REMARK INTER + INTRA:          -6.330
REMARK INTER:                  -5.807
REMARK INTRA:                  -0.523
REMARK UNBOUND:                -0.523
REMARK  Name = /home/anacleto/Desktop/manuscript_Mpro/naturecomm/supplementary_file_S2/6-chemical-library/molecular_docking/3D_ligand_structure/601.pdb
REMARK  4 active torsions:
REMARK  status: ('A' for Active; 'I' for Inactive)
REMARK    1  A    between atoms: N2_4  and  C4_7
REMARK    2  A    between atoms: C4_7  and  C5_8
REMARK    3  A    between atoms: N3_10  and  C6_11
REMARK    4  A    between atoms: C6_11  and  C7_12
REMARK                            x       y       z     vdW  Elec       q    Type
REMARK                         _______ _______ _______ _____ _____    ______ ____
ROOT
ATOM      1  C5  UNL     1      15.421  13.639  -3.812  0.00  0.00    +0.000 C 
ATOM      2  O2  UNL     1      15.870  14.583  -4.459  0.00  0.00    +0.000 OA
ATOM      3  N3  UNL     1      15.280  13.650  -2.441  0.00  0.00    +0.000 N 
ATOM      4  H8  UNL     1      14.733  12.902  -2.018  0.00  0.00    +0.000 HD
ENDROOT
BRANCH   1   5
ATOM      5  C4  UNL     1      14.901  12.367  -4.485  0.00  0.00    +0.000 C 
BRANCH   5   9
ATOM      6  N1  UNL     1      17.602   9.972  -4.168  0.00  0.00    +0.000 N 
ATOM      7  C1  UNL     1      17.792  10.264  -5.564  0.00  0.00    +0.000 C 
ATOM      8  C2  UNL     1      16.888  11.470  -5.795  0.00  0.00    +0.000 C 
ATOM      9  N2  UNL     1      15.950  11.384  -4.696  0.00  0.00    +0.000 N 
ATOM     10  C3  UNL     1      16.464  10.589  -3.682  0.00  0.00    +0.000 C 
ATOM     11  O1  UNL     1      16.032  10.487  -2.548  0.00  0.00    +0.000 OA
ATOM     12  H1  UNL     1      18.065   9.249  -3.633  0.00  0.00    +0.000 HD
ENDBRANCH   5   9
ENDBRANCH   1   5
BRANCH   3  13
ATOM     13  C6  UNL     1      15.546  14.822  -1.646  0.00  0.00    +0.000 C 
BRANCH  13  14
ATOM     14  C7  UNL     1      14.431  15.825  -1.777  0.00  0.00    +0.000 A 
ATOM     15  C8  UNL     1      14.694  17.139  -2.191  0.00  0.00    +0.000 A 
ATOM     16  C9  UNL     1      13.660  18.071  -2.289  0.00  0.00    +0.000 A 
ATOM     17  C10 UNL     1      12.354  17.702  -1.968  0.00  0.00    +0.000 A 
ATOM     18  C11 UNL     1      12.082  16.402  -1.543  0.00  0.00    +0.000 A 
ATOM     19  C12 UNL     1      13.116  15.470  -1.444  0.00  0.00    +0.000 A 
ENDBRANCH  13  14
ENDBRANCH   3  13
TORSDOF 4
ENDMDL
