MODEL 1
REMARK VINA RESULT:    -4.690      0.000      0.000
REMARK INTER + INTRA:          -5.781
REMARK INTER:                  -5.623
REMARK INTRA:                  -0.159
REMARK UNBOUND:                -0.269
REMARK  Name = /home/anacleto/Desktop/manuscript_Mpro/naturecomm/supplementary_file_S2/6-chemical-library/molecular_docking/3D_ligand_structure/1125.pdb
REMARK  3 active torsions:
REMARK  status: ('A' for Active; 'I' for Inactive)
REMARK    1  A    between atoms: C4_5  and  C5_6
REMARK    2  A    between atoms: C5_6  and  N1_7
REMARK    3  A    between atoms: N1_7  and  C6_8
REMARK                            x       y       z     vdW  Elec       q    Type
REMARK                         _______ _______ _______ _____ _____    ______ ____
ROOT
ATOM      1  N1  UNL     1      18.110   4.904   8.246  0.00  0.00    +0.000 N 
ATOM      2  H6  UNL     1      18.244   4.466   7.339  0.00  0.00    +0.000 HD
ENDROOT
BRANCH   1   3
ATOM      3  C6  UNL     1      19.214   5.718   8.542  0.00  0.00    +0.000 A 
ATOM      4  C7  UNL     1      19.022   7.099   8.562  0.00  0.00    +0.000 A 
ATOM      5  C8  UNL     1      20.086   7.939   8.883  0.00  0.00    +0.000 A 
ATOM      6  C9  UNL     1      21.319   7.381   9.188  0.00  0.00    +0.000 A 
ATOM      7  C10 UNL     1      21.426   6.003   9.161  0.00  0.00    +0.000 A 
ATOM      8  N2  UNL     1      20.406   5.171   8.852  0.00  0.00    +0.000 NA
ENDBRANCH   1   3
BRANCH   1   9
ATOM      9  C5  UNL     1      17.828   3.887   9.256  0.00  0.00    +0.000 C 
BRANCH   9  14
ATOM     10  O1  UNL     1      17.131   1.557   9.356  0.00  0.00    +0.000 OA
ATOM     11  C1  UNL     1      16.319   0.683   8.707  0.00  0.00    +0.000 A 
ATOM     12  C2  UNL     1      15.683   1.303   7.657  0.00  0.00    +0.000 A 
ATOM     13  C3  UNL     1      16.132   2.645   7.660  0.00  0.00    +0.000 A 
ATOM     14  C4  UNL     1      17.011   2.760   8.717  0.00  0.00    +0.000 A 
ENDBRANCH   9  14
ENDBRANCH   1   9
TORSDOF 3
ENDMDL
MODEL 2
REMARK VINA RESULT:    -4.608      2.036      6.075
REMARK INTER + INTRA:          -5.685
REMARK INTER:                  -5.526
REMARK INTRA:                  -0.159
REMARK UNBOUND:                -0.269
REMARK  Name = /home/anacleto/Desktop/manuscript_Mpro/naturecomm/supplementary_file_S2/6-chemical-library/molecular_docking/3D_ligand_structure/1125.pdb
REMARK  3 active torsions:
REMARK  status: ('A' for Active; 'I' for Inactive)
REMARK    1  A    between atoms: C4_5  and  C5_6
REMARK    2  A    between atoms: C5_6  and  N1_7
REMARK    3  A    between atoms: N1_7  and  C6_8
REMARK                            x       y       z     vdW  Elec       q    Type
REMARK                         _______ _______ _______ _____ _____    ______ ____
ROOT
ATOM      1  N1  UNL     1      17.250   3.996   8.193  0.00  0.00    +0.000 N 
ATOM      2  H6  UNL     1      16.787   4.877   7.986  0.00  0.00    +0.000 HD
ENDROOT
BRANCH   1   3
ATOM      3  C6  UNL     1      16.290   3.016   8.485  0.00  0.00    +0.000 A 
ATOM      4  C7  UNL     1      16.122   1.973   7.575  0.00  0.00    +0.000 A 
ATOM      5  C8  UNL     1      15.201   0.963   7.845  0.00  0.00    +0.000 A 
ATOM      6  C9  UNL     1      14.471   1.012   9.023  0.00  0.00    +0.000 A 
ATOM      7  C10 UNL     1      14.705   2.071   9.882  0.00  0.00    +0.000 A 
ATOM      8  N2  UNL     1      15.594   3.060   9.638  0.00  0.00    +0.000 NA
ENDBRANCH   1   3
BRANCH   1   9
ATOM      9  C5  UNL     1      18.246   4.190   9.245  0.00  0.00    +0.000 C 
BRANCH   9  14
ATOM     10  O1  UNL     1      19.286   6.077  10.376  0.00  0.00    +0.000 OA
ATOM     11  C1  UNL     1      19.821   7.294  10.097  0.00  0.00    +0.000 A 
ATOM     12  C2  UNL     1      19.763   7.550   8.748  0.00  0.00    +0.000 A 
ATOM     13  C3  UNL     1      19.151   6.418   8.157  0.00  0.00    +0.000 A 
ATOM     14  C4  UNL     1      18.881   5.540   9.187  0.00  0.00    +0.000 A 
ENDBRANCH   9  14
ENDBRANCH   1   9
TORSDOF 3
ENDMDL
MODEL 3
REMARK VINA RESULT:    -4.477     15.928     17.258
REMARK INTER + INTRA:          -5.531
REMARK INTER:                  -5.335
REMARK INTRA:                  -0.196
REMARK UNBOUND:                -0.269
REMARK  Name = /home/anacleto/Desktop/manuscript_Mpro/naturecomm/supplementary_file_S2/6-chemical-library/molecular_docking/3D_ligand_structure/1125.pdb
REMARK  3 active torsions:
REMARK  status: ('A' for Active; 'I' for Inactive)
REMARK    1  A    between atoms: C4_5  and  C5_6
REMARK    2  A    between atoms: C5_6  and  N1_7
REMARK    3  A    between atoms: N1_7  and  C6_8
REMARK                            x       y       z     vdW  Elec       q    Type
REMARK                         _______ _______ _______ _____ _____    ______ ____
ROOT
ATOM      1  N1  UNL     1      14.623  14.726  -4.239  0.00  0.00    +0.000 N 
ATOM      2  H6  UNL     1      13.852  15.277  -4.605  0.00  0.00    +0.000 HD
ENDROOT
BRANCH   1   3
ATOM      3  C6  UNL     1      14.603  13.447  -4.815  0.00  0.00    +0.000 A 
ATOM      4  C7  UNL     1      14.834  13.343  -6.186  0.00  0.00    +0.000 A 
ATOM      5  C8  UNL     1      14.853  12.088  -6.790  0.00  0.00    +0.000 A 
ATOM      6  C9  UNL     1      14.650  10.960  -6.009  0.00  0.00    +0.000 A 
ATOM      7  C10 UNL     1      14.443  11.143  -4.654  0.00  0.00    +0.000 A 
ATOM      8  N2  UNL     1      14.420  12.353  -4.050  0.00  0.00    +0.000 NA
ENDBRANCH   1   3
BRANCH   1   9
ATOM      9  C5  UNL     1      14.588  14.725  -2.778  0.00  0.00    +0.000 C 
BRANCH   9  14
ATOM     10  O1  UNL     1      13.834  17.018  -2.468  0.00  0.00    +0.000 OA
ATOM     11  C1  UNL     1      12.825  17.714  -1.885  0.00  0.00    +0.000 A 
ATOM     12  C2  UNL     1      11.940  16.859  -1.272  0.00  0.00    +0.000 A 
ATOM     13  C3  UNL     1      12.437  15.552  -1.491  0.00  0.00    +0.000 A 
ATOM     14  C4  UNL     1      13.593  15.694  -2.231  0.00  0.00    +0.000 A 
ENDBRANCH   9  14
ENDBRANCH   1   9
TORSDOF 3
ENDMDL
MODEL 4
REMARK VINA RESULT:    -4.436     14.052     15.383
REMARK INTER + INTRA:          -5.482
REMARK INTER:                  -5.255
REMARK INTRA:                  -0.227
REMARK UNBOUND:                -0.269
REMARK  Name = /home/anacleto/Desktop/manuscript_Mpro/naturecomm/supplementary_file_S2/6-chemical-library/molecular_docking/3D_ligand_structure/1125.pdb
REMARK  3 active torsions:
REMARK  status: ('A' for Active; 'I' for Inactive)
REMARK    1  A    between atoms: C4_5  and  C5_6
REMARK    2  A    between atoms: C5_6  and  N1_7
REMARK    3  A    between atoms: N1_7  and  C6_8
REMARK                            x       y       z     vdW  Elec       q    Type
REMARK                         _______ _______ _______ _____ _____    ______ ____
ROOT
ATOM      1  N1  UNL     1      14.981  10.819  -3.168  0.00  0.00    +0.000 N 
ATOM      2  H6  UNL     1      15.738  10.164  -2.992  0.00  0.00    +0.000 HD
ENDROOT
BRANCH   1   3
ATOM      3  C6  UNL     1      14.791  10.957  -4.551  0.00  0.00    +0.000 A 
ATOM      4  C7  UNL     1      13.557  10.586  -5.083  0.00  0.00    +0.000 A 
ATOM      5  C8  UNL     1      13.319  10.737  -6.448  0.00  0.00    +0.000 A 
ATOM      6  C9  UNL     1      14.318  11.267  -7.252  0.00  0.00    +0.000 A 
ATOM      7  C10 UNL     1      15.509  11.626  -6.648  0.00  0.00    +0.000 A 
ATOM      8  N2  UNL     1      15.759  11.486  -5.327  0.00  0.00    +0.000 NA
ENDBRANCH   1   3
BRANCH   1   9
ATOM      9  C5  UNL     1      15.237  12.077  -2.471  0.00  0.00    +0.000 C 
BRANCH   9  14
ATOM     10  O1  UNL     1      16.893  13.233  -1.112  0.00  0.00    +0.000 OA
ATOM     11  C1  UNL     1      18.131  13.039  -0.589  0.00  0.00    +0.000 A 
ATOM     12  C2  UNL     1      18.609  11.795  -0.926  0.00  0.00    +0.000 A 
ATOM     13  C3  UNL     1      17.601  11.184  -1.710  0.00  0.00    +0.000 A 
ATOM     14  C4  UNL     1      16.567  12.094  -1.794  0.00  0.00    +0.000 A 
ENDBRANCH   9  14
ENDBRANCH   1   9
TORSDOF 3
ENDMDL
MODEL 5
REMARK VINA RESULT:    -4.379      3.609      5.154
REMARK INTER + INTRA:          -5.416
REMARK INTER:                  -5.185
REMARK INTRA:                  -0.231
REMARK UNBOUND:                -0.269
REMARK  Name = /home/anacleto/Desktop/manuscript_Mpro/naturecomm/supplementary_file_S2/6-chemical-library/molecular_docking/3D_ligand_structure/1125.pdb
REMARK  3 active torsions:
REMARK  status: ('A' for Active; 'I' for Inactive)
REMARK    1  A    between atoms: C4_5  and  C5_6
REMARK    2  A    between atoms: C5_6  and  N1_7
REMARK    3  A    between atoms: N1_7  and  C6_8
REMARK                            x       y       z     vdW  Elec       q    Type
REMARK                         _______ _______ _______ _____ _____    ______ ____
ROOT
ATOM      1  N1  UNL     1      21.648   7.543  11.031  0.00  0.00    +0.000 N 
ATOM      2  H6  UNL     1      21.482   8.546  11.035  0.00  0.00    +0.000 HD
ENDROOT
BRANCH   1   3
ATOM      3  C6  UNL     1      20.900   6.947  10.005  0.00  0.00    +0.000 A 
ATOM      4  C7  UNL     1      19.912   7.711   9.385  0.00  0.00    +0.000 A 
ATOM      5  C8  UNL     1      19.170   7.164   8.341  0.00  0.00    +0.000 A 
ATOM      6  C9  UNL     1      19.436   5.866   7.931  0.00  0.00    +0.000 A 
ATOM      7  C10 UNL     1      20.441   5.177   8.585  0.00  0.00    +0.000 A 
ATOM      8  N2  UNL     1      21.172   5.689   9.600  0.00  0.00    +0.000 NA
ENDBRANCH   1   3
BRANCH   1   9
ATOM      9  C5  UNL     1      21.393   6.988  12.358  0.00  0.00    +0.000 C 
BRANCH   9  14
ATOM     10  O1  UNL     1      19.324   5.779  12.783  0.00  0.00    +0.000 OA
ATOM     11  C1  UNL     1      18.026   6.015  13.105  0.00  0.00    +0.000 A 
ATOM     12  C2  UNL     1      17.798   7.364  13.237  0.00  0.00    +0.000 A 
ATOM     13  C3  UNL     1      19.037   8.001  12.978  0.00  0.00    +0.000 A 
ATOM     14  C4  UNL     1      19.943   6.996  12.711  0.00  0.00    +0.000 A 
ENDBRANCH   9  14
ENDBRANCH   1   9
TORSDOF 3
ENDMDL
MODEL 6
REMARK VINA RESULT:    -4.223     15.113     16.424
REMARK INTER + INTRA:          -5.232
REMARK INTER:                  -4.974
REMARK INTRA:                  -0.259
REMARK UNBOUND:                -0.269
REMARK  Name = /home/anacleto/Desktop/manuscript_Mpro/naturecomm/supplementary_file_S2/6-chemical-library/molecular_docking/3D_ligand_structure/1125.pdb
REMARK  3 active torsions:
REMARK  status: ('A' for Active; 'I' for Inactive)
REMARK    1  A    between atoms: C4_5  and  C5_6
REMARK    2  A    between atoms: C5_6  and  N1_7
REMARK    3  A    between atoms: N1_7  and  C6_8
REMARK                            x       y       z     vdW  Elec       q    Type
REMARK                         _______ _______ _______ _____ _____    ______ ____
ROOT
ATOM      1  N1  UNL     1      14.819  14.260  -4.648  0.00  0.00    +0.000 N 
ATOM      2  H6  UNL     1      14.494  15.120  -5.080  0.00  0.00    +0.000 HD
ENDROOT
BRANCH   1   3
ATOM      3  C6  UNL     1      14.462  13.166  -5.450  0.00  0.00    +0.000 A 
ATOM      4  C7  UNL     1      15.301  12.831  -6.512  0.00  0.00    +0.000 A 
ATOM      5  C8  UNL     1      14.998  11.732  -7.312  0.00  0.00    +0.000 A 
ATOM      6  C9  UNL     1      13.865  10.983  -7.028  0.00  0.00    +0.000 A 
ATOM      7  C10 UNL     1      13.092  11.368  -5.948  0.00  0.00    +0.000 A 
ATOM      8  N2  UNL     1      13.369  12.432  -5.161  0.00  0.00    +0.000 NA
ENDBRANCH   1   3
BRANCH   1   9
ATOM      9  C5  UNL     1      14.334  14.178  -3.272  0.00  0.00    +0.000 C 
BRANCH   9  14
ATOM     10  O1  UNL     1      16.061  14.269  -1.560  0.00  0.00    +0.000 OA
ATOM     11  C1  UNL     1      16.859  13.441  -0.839  0.00  0.00    +0.000 A 
ATOM     12  C2  UNL     1      16.622  12.129  -1.174  0.00  0.00    +0.000 A 
ATOM     13  C3  UNL     1      15.613  12.151  -2.167  0.00  0.00    +0.000 A 
ATOM     14  C4  UNL     1      15.295  13.478  -2.369  0.00  0.00    +0.000 A 
ENDBRANCH   9  14
ENDBRANCH   1   9
TORSDOF 3
ENDMDL
MODEL 7
REMARK VINA RESULT:    -4.137      4.520      5.546
REMARK INTER + INTRA:          -5.132
REMARK INTER:                  -4.919
REMARK INTRA:                  -0.213
REMARK UNBOUND:                -0.269
REMARK  Name = /home/anacleto/Desktop/manuscript_Mpro/naturecomm/supplementary_file_S2/6-chemical-library/molecular_docking/3D_ligand_structure/1125.pdb
REMARK  3 active torsions:
REMARK  status: ('A' for Active; 'I' for Inactive)
REMARK    1  A    between atoms: C4_5  and  C5_6
REMARK    2  A    between atoms: C5_6  and  N1_7
REMARK    3  A    between atoms: N1_7  and  C6_8
REMARK                            x       y       z     vdW  Elec       q    Type
REMARK                         _______ _______ _______ _____ _____    ______ ____
ROOT
ATOM      1  N1  UNL     1      19.086   6.390  12.206  0.00  0.00    +0.000 N 
ATOM      2  H6  UNL     1      20.036   6.394  12.564  0.00  0.00    +0.000 HD
ENDROOT
BRANCH   1   3
ATOM      3  C6  UNL     1      19.110   6.311  10.806  0.00  0.00    +0.000 A 
ATOM      4  C7  UNL     1      19.562   7.422  10.095  0.00  0.00    +0.000 A 
ATOM      5  C8  UNL     1      19.631   7.371   8.704  0.00  0.00    +0.000 A 
ATOM      6  C9  UNL     1      19.256   6.206   8.052  0.00  0.00    +0.000 A 
ATOM      7  C10 UNL     1      18.833   5.142   8.827  0.00  0.00    +0.000 A 
ATOM      8  N2  UNL     1      18.758   5.172  10.177  0.00  0.00    +0.000 NA
ENDBRANCH   1   3
BRANCH   1   9
ATOM      9  C5  UNL     1      18.350   7.539  12.728  0.00  0.00    +0.000 C 
BRANCH   9  14
ATOM     10  O1  UNL     1      16.773   8.096  14.497  0.00  0.00    +0.000 OA
ATOM     11  C1  UNL     1      15.783   7.523  15.229  0.00  0.00    +0.000 A 
ATOM     12  C2  UNL     1      15.606   6.211  14.860  0.00  0.00    +0.000 A 
ATOM     13  C3  UNL     1      16.549   5.959  13.834  0.00  0.00    +0.000 A 
ATOM     14  C4  UNL     1      17.238   7.138  13.640  0.00  0.00    +0.000 A 
ENDBRANCH   9  14
ENDBRANCH   1   9
TORSDOF 3
ENDMDL
MODEL 8
REMARK VINA RESULT:    -3.967     12.961     14.002
REMARK INTER + INTRA:          -4.931
REMARK INTER:                  -4.688
REMARK INTRA:                  -0.243
REMARK UNBOUND:                -0.269
REMARK  Name = /home/anacleto/Desktop/manuscript_Mpro/naturecomm/supplementary_file_S2/6-chemical-library/molecular_docking/3D_ligand_structure/1125.pdb
REMARK  3 active torsions:
REMARK  status: ('A' for Active; 'I' for Inactive)
REMARK    1  A    between atoms: C4_5  and  C5_6
REMARK    2  A    between atoms: C5_6  and  N1_7
REMARK    3  A    between atoms: N1_7  and  C6_8
REMARK                            x       y       z     vdW  Elec       q    Type
REMARK                         _______ _______ _______ _____ _____    ______ ____
ROOT
ATOM      1  N1  UNL     1      24.715  16.550   9.213  0.00  0.00    +0.000 N 
ATOM      2  H6  UNL     1      24.385  17.260   8.565  0.00  0.00    +0.000 HD
ENDROOT
BRANCH   1   3
ATOM      3  C6  UNL     1      23.989  16.632  10.411  0.00  0.00    +0.000 A 
ATOM      4  C7  UNL     1      23.191  15.545  10.768  0.00  0.00    +0.000 A 
ATOM      5  C8  UNL     1      22.479  15.576  11.965  0.00  0.00    +0.000 A 
ATOM      6  C9  UNL     1      22.586  16.689  12.786  0.00  0.00    +0.000 A 
ATOM      7  C10 UNL     1      23.409  17.719  12.370  0.00  0.00    +0.000 A 
ATOM      8  N2  UNL     1      24.107  17.709  11.212  0.00  0.00    +0.000 NA
ENDBRANCH   1   3
BRANCH   1   9
ATOM      9  C5  UNL     1      26.162  16.661   9.382  0.00  0.00    +0.000 C 
BRANCH   9  14
ATOM     10  O1  UNL     1      27.089  14.587  10.255  0.00  0.00    +0.000 OA
ATOM     11  C1  UNL     1      27.737  13.474   9.827  0.00  0.00    +0.000 A 
ATOM     12  C2  UNL     1      27.938  13.523   8.468  0.00  0.00    +0.000 A 
ATOM     13  C3  UNL     1      27.377  14.748   8.031  0.00  0.00    +0.000 A 
ATOM     14  C4  UNL     1      26.864  15.364   9.153  0.00  0.00    +0.000 A 
ENDBRANCH   9  14
ENDBRANCH   1   9
TORSDOF 3
ENDMDL
MODEL 9
REMARK VINA RESULT:    -3.955     15.586     16.277
REMARK INTER + INTRA:          -4.918
REMARK INTER:                  -4.649
REMARK INTRA:                  -0.269
REMARK UNBOUND:                -0.269
REMARK  Name = /home/anacleto/Desktop/manuscript_Mpro/naturecomm/supplementary_file_S2/6-chemical-library/molecular_docking/3D_ligand_structure/1125.pdb
REMARK  3 active torsions:
REMARK  status: ('A' for Active; 'I' for Inactive)
REMARK    1  A    between atoms: C4_5  and  C5_6
REMARK    2  A    between atoms: C5_6  and  N1_7
REMARK    3  A    between atoms: N1_7  and  C6_8
REMARK                            x       y       z     vdW  Elec       q    Type
REMARK                         _______ _______ _______ _____ _____    ______ ____
ROOT
ATOM      1  N1  UNL     1      17.951  11.534  -5.994  0.00  0.00    +0.000 N 
ATOM      2  H6  UNL     1      17.477  11.785  -6.857  0.00  0.00    +0.000 HD
ENDROOT
BRANCH   1   3
ATOM      3  C6  UNL     1      18.804  10.445  -6.224  0.00  0.00    +0.000 A 
ATOM      4  C7  UNL     1      18.679   9.758  -7.431  0.00  0.00    +0.000 A 
ATOM      5  C8  UNL     1      19.529   8.690  -7.710  0.00  0.00    +0.000 A 
ATOM      6  C9  UNL     1      20.495   8.336  -6.780  0.00  0.00    +0.000 A 
ATOM      7  C10 UNL     1      20.567   9.075  -5.613  0.00  0.00    +0.000 A 
ATOM      8  N2  UNL     1      19.751  10.113  -5.324  0.00  0.00    +0.000 NA
ENDBRANCH   1   3
BRANCH   1   9
ATOM      9  C5  UNL     1      16.972  11.315  -4.932  0.00  0.00    +0.000 C 
BRANCH   9  14
ATOM     10  O1  UNL     1      14.631  10.752  -4.578  0.00  0.00    +0.000 OA
ATOM     11  C1  UNL     1      13.454  10.716  -5.254  0.00  0.00    +0.000 A 
ATOM     12  C2  UNL     1      13.630  11.128  -6.554  0.00  0.00    +0.000 A 
ATOM     13  C3  UNL     1      15.006  11.437  -6.687  0.00  0.00    +0.000 A 
ATOM     14  C4  UNL     1      15.580  11.199  -5.455  0.00  0.00    +0.000 A 
ENDBRANCH   9  14
ENDBRANCH   1   9
TORSDOF 3
ENDMDL
