MODEL 1
REMARK VINA RESULT:    -3.927      0.000      0.000
REMARK INTER + INTRA:          -4.737
REMARK INTER:                  -4.440
REMARK INTRA:                  -0.297
REMARK UNBOUND:                -0.351
REMARK  Name = /home/anacleto/Desktop/manuscript_Mpro/naturecomm/supplementary_file_S2/6-chemical-library/molecular_docking/3D_ligand_structure/1258.pdb
REMARK  2 active torsions:
REMARK  status: ('A' for Active; 'I' for Inactive)
REMARK    1  A    between atoms: C2_5  and  S1_6
REMARK    2  A    between atoms: S1_6  and  C3_7
REMARK                            x       y       z     vdW  Elec       q    Type
REMARK                         _______ _______ _______ _____ _____    ______ ____
ROOT
ATOM      1  N1  UNL     1      13.054  16.008  -2.800  0.00  0.00    +0.000 N 
ATOM      2  C1  UNL     1      11.943  16.634  -2.326  0.00  0.00    +0.000 A 
ATOM      3  N2  UNL     1      12.036  16.758  -1.023  0.00  0.00    +0.000 NA
ATOM      4  N3  UNL     1      13.237  16.200  -0.638  0.00  0.00    +0.000 NA
ATOM      5  C2  UNL     1      13.838  15.753  -1.712  0.00  0.00    +0.000 A 
ATOM      6  H1  UNL     1      13.269  15.774  -3.757  0.00  0.00    +0.000 HD
ENDROOT
BRANCH   5   7
ATOM      7  S1  UNL     1      15.341  14.961  -1.949  0.00  0.00    +0.000 S 
BRANCH   7   8
ATOM      8  C3  UNL     1      15.000  13.559  -2.951  0.00  0.00    +0.000 A 
ATOM      9  N4  UNL     1      14.430  13.785  -4.121  0.00  0.00    +0.000 NA
ATOM     10  C4  UNL     1      14.222  12.600  -4.795  0.00  0.00    +0.000 A 
ATOM     11  C5  UNL     1      14.636  11.466  -4.136  0.00  0.00    +0.000 A 
ATOM     12  S2  UNL     1      15.306  11.902  -2.624  0.00  0.00    +0.000 S 
ENDBRANCH   7   8
ENDBRANCH   5   7
TORSDOF 2
ENDMDL
MODEL 2
REMARK VINA RESULT:    -3.773      1.784      4.674
REMARK INTER + INTRA:          -4.565
REMARK INTER:                  -4.226
REMARK INTRA:                  -0.339
REMARK UNBOUND:                -0.351
REMARK  Name = /home/anacleto/Desktop/manuscript_Mpro/naturecomm/supplementary_file_S2/6-chemical-library/molecular_docking/3D_ligand_structure/1258.pdb
REMARK  2 active torsions:
REMARK  status: ('A' for Active; 'I' for Inactive)
REMARK    1  A    between atoms: C2_5  and  S1_6
REMARK    2  A    between atoms: S1_6  and  C3_7
REMARK                            x       y       z     vdW  Elec       q    Type
REMARK                         _______ _______ _______ _____ _____    ______ ____
ROOT
ATOM      1  N1  UNL     1      13.796  12.724  -5.357  0.00  0.00    +0.000 N 
ATOM      2  C1  UNL     1      12.978  11.674  -5.640  0.00  0.00    +0.000 A 
ATOM      3  N2  UNL     1      13.376  10.620  -4.965  0.00  0.00    +0.000 NA
ATOM      4  N3  UNL     1      14.478  10.992  -4.226  0.00  0.00    +0.000 NA
ATOM      5  C2  UNL     1      14.721  12.256  -4.469  0.00  0.00    +0.000 A 
ATOM      6  H1  UNL     1      13.743  13.663  -5.721  0.00  0.00    +0.000 HD
ENDROOT
BRANCH   5   7
ATOM      7  S1  UNL     1      15.924  13.333  -3.891  0.00  0.00    +0.000 S 
BRANCH   7   8
ATOM      8  C3  UNL     1      15.113  14.415  -2.772  0.00  0.00    +0.000 A 
ATOM      9  N4  UNL     1      13.851  14.708  -3.032  0.00  0.00    +0.000 NA
ATOM     10  C4  UNL     1      13.345  15.563  -2.075  0.00  0.00    +0.000 A 
ATOM     11  C5  UNL     1      14.226  15.924  -1.082  0.00  0.00    +0.000 A 
ATOM     12  S2  UNL     1      15.733  15.166  -1.359  0.00  0.00    +0.000 S 
ENDBRANCH   7   8
ENDBRANCH   5   7
TORSDOF 2
ENDMDL
MODEL 3
REMARK VINA RESULT:    -3.597      2.546      3.406
REMARK INTER + INTRA:          -4.368
REMARK INTER:                  -4.024
REMARK INTRA:                  -0.344
REMARK UNBOUND:                -0.351
REMARK  Name = /home/anacleto/Desktop/manuscript_Mpro/naturecomm/supplementary_file_S2/6-chemical-library/molecular_docking/3D_ligand_structure/1258.pdb
REMARK  2 active torsions:
REMARK  status: ('A' for Active; 'I' for Inactive)
REMARK    1  A    between atoms: C2_5  and  S1_6
REMARK    2  A    between atoms: S1_6  and  C3_7
REMARK                            x       y       z     vdW  Elec       q    Type
REMARK                         _______ _______ _______ _____ _____    ______ ____
ROOT
ATOM      1  N1  UNL     1      13.710  17.019  -2.426  0.00  0.00    +0.000 N 
ATOM      2  C1  UNL     1      12.660  17.730  -1.933  0.00  0.00    +0.000 A 
ATOM      3  N2  UNL     1      11.883  16.933  -1.238  0.00  0.00    +0.000 NA
ATOM      4  N3  UNL     1      12.439  15.672  -1.278  0.00  0.00    +0.000 NA
ATOM      5  C2  UNL     1      13.534  15.736  -1.994  0.00  0.00    +0.000 A 
ATOM      6  H1  UNL     1      14.470  17.356  -2.996  0.00  0.00    +0.000 HD
ENDROOT
BRANCH   5   7
ATOM      7  S1  UNL     1      14.694  14.553  -2.438  0.00  0.00    +0.000 S 
BRANCH   7   8
ATOM      8  C3  UNL     1      16.081  14.814  -1.394  0.00  0.00    +0.000 A 
ATOM      9  N4  UNL     1      15.950  15.719  -0.440  0.00  0.00    +0.000 NA
ATOM     10  C4  UNL     1      17.111  15.817   0.298  0.00  0.00    +0.000 A 
ATOM     11  C5  UNL     1      18.132  14.984  -0.096  0.00  0.00    +0.000 A 
ATOM     12  S2  UNL     1      17.617  14.050  -1.432  0.00  0.00    +0.000 S 
ENDBRANCH   7   8
ENDBRANCH   5   7
TORSDOF 2
ENDMDL
MODEL 4
REMARK VINA RESULT:    -3.586      4.022      5.188
REMARK INTER + INTRA:          -4.356
REMARK INTER:                  -3.994
REMARK INTRA:                  -0.362
REMARK UNBOUND:                -0.351
REMARK  Name = /home/anacleto/Desktop/manuscript_Mpro/naturecomm/supplementary_file_S2/6-chemical-library/molecular_docking/3D_ligand_structure/1258.pdb
REMARK  2 active torsions:
REMARK  status: ('A' for Active; 'I' for Inactive)
REMARK    1  A    between atoms: C2_5  and  S1_6
REMARK    2  A    between atoms: S1_6  and  C3_7
REMARK                            x       y       z     vdW  Elec       q    Type
REMARK                         _______ _______ _______ _____ _____    ______ ____
ROOT
ATOM      1  N1  UNL     1      14.251  10.595  -4.254  0.00  0.00    +0.000 N 
ATOM      2  C1  UNL     1      13.151  10.373  -5.024  0.00  0.00    +0.000 A 
ATOM      3  N2  UNL     1      12.871  11.459  -5.706  0.00  0.00    +0.000 NA
ATOM      4  N3  UNL     1      13.810  12.411  -5.374  0.00  0.00    +0.000 NA
ATOM      5  C2  UNL     1      14.633  11.882  -4.502  0.00  0.00    +0.000 A 
ATOM      6  H1  UNL     1      14.704   9.950  -3.625  0.00  0.00    +0.000 HD
ENDROOT
BRANCH   5   7
ATOM      7  S1  UNL     1      16.009  12.502  -3.687  0.00  0.00    +0.000 S 
BRANCH   7   8
ATOM      8  C3  UNL     1      17.401  11.722  -4.418  0.00  0.00    +0.000 A 
ATOM      9  N4  UNL     1      17.158  10.753  -5.283  0.00  0.00    +0.000 NA
ATOM     10  C4  UNL     1      18.338  10.234  -5.774  0.00  0.00    +0.000 A 
ATOM     11  C5  UNL     1      19.485  10.810  -5.280  0.00  0.00    +0.000 A 
ATOM     12  S2  UNL     1      19.069  12.039  -4.167  0.00  0.00    +0.000 S 
ENDBRANCH   7   8
ENDBRANCH   5   7
TORSDOF 2
ENDMDL
MODEL 5
REMARK VINA RESULT:    -3.585      4.580      5.499
REMARK INTER + INTRA:          -4.355
REMARK INTER:                  -4.040
REMARK INTRA:                  -0.315
REMARK UNBOUND:                -0.351
REMARK  Name = /home/anacleto/Desktop/manuscript_Mpro/naturecomm/supplementary_file_S2/6-chemical-library/molecular_docking/3D_ligand_structure/1258.pdb
REMARK  2 active torsions:
REMARK  status: ('A' for Active; 'I' for Inactive)
REMARK    1  A    between atoms: C2_5  and  S1_6
REMARK    2  A    between atoms: S1_6  and  C3_7
REMARK                            x       y       z     vdW  Elec       q    Type
REMARK                         _______ _______ _______ _____ _____    ______ ____
ROOT
ATOM      1  N1  UNL     1      14.308  10.596  -4.565  0.00  0.00    +0.000 N 
ATOM      2  C1  UNL     1      13.160  10.731  -5.283  0.00  0.00    +0.000 A 
ATOM      3  N2  UNL     1      13.445  11.201  -6.475  0.00  0.00    +0.000 NA
ATOM      4  N3  UNL     1      14.811  11.377  -6.536  0.00  0.00    +0.000 NA
ATOM      5  C2  UNL     1      15.318  11.011  -5.384  0.00  0.00    +0.000 A 
ATOM      6  H1  UNL     1      14.409  10.259  -3.620  0.00  0.00    +0.000 HD
ENDROOT
BRANCH   5   7
ATOM      7  S1  UNL     1      16.927  10.972  -4.790  0.00  0.00    +0.000 S 
BRANCH   7   8
ATOM      8  C3  UNL     1      16.851  11.564  -3.139  0.00  0.00    +0.000 A 
ATOM      9  N4  UNL     1      16.257  10.786  -2.252  0.00  0.00    +0.000 NA
ATOM     10  C4  UNL     1      16.272  11.375  -1.005  0.00  0.00    +0.000 A 
ATOM     11  C5  UNL     1      16.878  12.607  -0.942  0.00  0.00    +0.000 A 
ATOM     12  S2  UNL     1      17.448  13.038  -2.495  0.00  0.00    +0.000 S 
ENDBRANCH   7   8
ENDBRANCH   5   7
TORSDOF 2
ENDMDL
MODEL 6
REMARK VINA RESULT:    -3.584      2.515      5.140
REMARK INTER + INTRA:          -4.353
REMARK INTER:                  -4.000
REMARK INTRA:                  -0.353
REMARK UNBOUND:                -0.351
REMARK  Name = /home/anacleto/Desktop/manuscript_Mpro/naturecomm/supplementary_file_S2/6-chemical-library/molecular_docking/3D_ligand_structure/1258.pdb
REMARK  2 active torsions:
REMARK  status: ('A' for Active; 'I' for Inactive)
REMARK    1  A    between atoms: C2_5  and  S1_6
REMARK    2  A    between atoms: S1_6  and  C3_7
REMARK                            x       y       z     vdW  Elec       q    Type
REMARK                         _______ _______ _______ _____ _____    ______ ____
ROOT
ATOM      1  N1  UNL     1      15.141  11.620  -5.939  0.00  0.00    +0.000 N 
ATOM      2  C1  UNL     1      14.251  11.401  -6.945  0.00  0.00    +0.000 A 
ATOM      3  N2  UNL     1      13.229  10.721  -6.481  0.00  0.00    +0.000 NA
ATOM      4  N3  UNL     1      13.456  10.492  -5.141  0.00  0.00    +0.000 NA
ATOM      5  C2  UNL     1      14.606  11.035  -4.827  0.00  0.00    +0.000 A 
ATOM      6  H1  UNL     1      16.019  12.112  -5.989  0.00  0.00    +0.000 HD
ENDROOT
BRANCH   5   7
ATOM      7  S1  UNL     1      15.479  11.123  -3.353  0.00  0.00    +0.000 S 
BRANCH   7   8
ATOM      8  C3  UNL     1      15.412  12.802  -2.846  0.00  0.00    +0.000 A 
ATOM      9  N4  UNL     1      14.540  13.579  -3.464  0.00  0.00    +0.000 NA
ATOM     10  C4  UNL     1      14.598  14.864  -2.966  0.00  0.00    +0.000 A 
ATOM     11  C5  UNL     1      15.519  15.067  -1.965  0.00  0.00    +0.000 A 
ATOM     12  S2  UNL     1      16.334  13.601  -1.639  0.00  0.00    +0.000 S 
ENDBRANCH   7   8
ENDBRANCH   5   7
TORSDOF 2
ENDMDL
MODEL 7
REMARK VINA RESULT:    -3.369     16.782     17.808
REMARK INTER + INTRA:          -4.114
REMARK INTER:                  -3.751
REMARK INTRA:                  -0.363
REMARK UNBOUND:                -0.351
REMARK  Name = /home/anacleto/Desktop/manuscript_Mpro/naturecomm/supplementary_file_S2/6-chemical-library/molecular_docking/3D_ligand_structure/1258.pdb
REMARK  2 active torsions:
REMARK  status: ('A' for Active; 'I' for Inactive)
REMARK    1  A    between atoms: C2_5  and  S1_6
REMARK    2  A    between atoms: S1_6  and  C3_7
REMARK                            x       y       z     vdW  Elec       q    Type
REMARK                         _______ _______ _______ _____ _____    ______ ____
ROOT
ATOM      1  N1  UNL     1      25.479  15.067   8.745  0.00  0.00    +0.000 N 
ATOM      2  C1  UNL     1      26.666  14.514   8.371  0.00  0.00    +0.000 A 
ATOM      3  N2  UNL     1      27.646  15.316   8.716  0.00  0.00    +0.000 NA
ATOM      4  N3  UNL     1      27.086  16.417   9.328  0.00  0.00    +0.000 NA
ATOM      5  C2  UNL     1      25.786  16.256   9.340  0.00  0.00    +0.000 A 
ATOM      6  H1  UNL     1      24.555  14.687   8.616  0.00  0.00    +0.000 HD
ENDROOT
BRANCH   5   7
ATOM      7  S1  UNL     1      24.507  17.229   9.940  0.00  0.00    +0.000 S 
BRANCH   7   8
ATOM      8  C3  UNL     1      23.865  16.382  11.337  0.00  0.00    +0.000 A 
ATOM      9  N4  UNL     1      24.493  15.281  11.710  0.00  0.00    +0.000 NA
ATOM     10  C4  UNL     1      23.881  14.725  12.814  0.00  0.00    +0.000 A 
ATOM     11  C5  UNL     1      22.782  15.405  13.284  0.00  0.00    +0.000 A 
ATOM     12  S2  UNL     1      22.510  16.784  12.310  0.00  0.00    +0.000 S 
ENDBRANCH   7   8
ENDBRANCH   5   7
TORSDOF 2
ENDMDL
MODEL 8
REMARK VINA RESULT:    -3.246      3.411      4.029
REMARK INTER + INTRA:          -3.976
REMARK INTER:                  -3.627
REMARK INTRA:                  -0.349
REMARK UNBOUND:                -0.351
REMARK  Name = /home/anacleto/Desktop/manuscript_Mpro/naturecomm/supplementary_file_S2/6-chemical-library/molecular_docking/3D_ligand_structure/1258.pdb
REMARK  2 active torsions:
REMARK  status: ('A' for Active; 'I' for Inactive)
REMARK    1  A    between atoms: C2_5  and  S1_6
REMARK    2  A    between atoms: S1_6  and  C3_7
REMARK                            x       y       z     vdW  Elec       q    Type
REMARK                         _______ _______ _______ _____ _____    ______ ____
ROOT
ATOM      1  N1  UNL     1      15.776  13.233  -2.416  0.00  0.00    +0.000 N 
ATOM      2  C1  UNL     1      16.141  14.115  -1.447  0.00  0.00    +0.000 A 
ATOM      3  N2  UNL     1      16.872  13.497  -0.549  0.00  0.00    +0.000 NA
ATOM      4  N3  UNL     1      16.987  12.181  -0.942  0.00  0.00    +0.000 NA
ATOM      5  C2  UNL     1      16.326  12.034  -2.063  0.00  0.00    +0.000 A 
ATOM      6  H1  UNL     1      15.216  13.412  -3.234  0.00  0.00    +0.000 HD
ENDROOT
BRANCH   5   7
ATOM      7  S1  UNL     1      16.063  10.678  -3.080  0.00  0.00    +0.000 S 
BRANCH   7   8
ATOM      8  C3  UNL     1      15.337  11.305  -4.550  0.00  0.00    +0.000 A 
ATOM      9  N4  UNL     1      14.065  11.657  -4.487  0.00  0.00    +0.000 NA
ATOM     10  C4  UNL     1      13.631  12.128  -5.708  0.00  0.00    +0.000 A 
ATOM     11  C5  UNL     1      14.576  12.134  -6.707  0.00  0.00    +0.000 A 
ATOM     12  S2  UNL     1      16.053  11.531  -6.093  0.00  0.00    +0.000 S 
ENDBRANCH   7   8
ENDBRANCH   5   7
TORSDOF 2
ENDMDL
MODEL 9
REMARK VINA RESULT:    -3.168     16.614     17.492
REMARK INTER + INTRA:          -3.890
REMARK INTER:                  -3.539
REMARK INTRA:                  -0.351
REMARK UNBOUND:                -0.351
REMARK  Name = /home/anacleto/Desktop/manuscript_Mpro/naturecomm/supplementary_file_S2/6-chemical-library/molecular_docking/3D_ligand_structure/1258.pdb
REMARK  2 active torsions:
REMARK  status: ('A' for Active; 'I' for Inactive)
REMARK    1  A    between atoms: C2_5  and  S1_6
REMARK    2  A    between atoms: S1_6  and  C3_7
REMARK                            x       y       z     vdW  Elec       q    Type
REMARK                         _______ _______ _______ _____ _____    ______ ____
ROOT
ATOM      1  N1  UNL     1      19.509   7.377   9.805  0.00  0.00    +0.000 N 
ATOM      2  C1  UNL     1      19.455   7.352   8.445  0.00  0.00    +0.000 A 
ATOM      3  N2  UNL     1      19.085   6.157   8.047  0.00  0.00    +0.000 NA
ATOM      4  N3  UNL     1      18.892   5.386   9.174  0.00  0.00    +0.000 NA
ATOM      5  C2  UNL     1      19.149   6.128  10.222  0.00  0.00    +0.000 A 
ATOM      6  H1  UNL     1      19.760   8.153  10.397  0.00  0.00    +0.000 HD
ENDROOT
BRANCH   5   7
ATOM      7  S1  UNL     1      19.107   5.804  11.905  0.00  0.00    +0.000 S 
BRANCH   7   8
ATOM      8  C3  UNL     1      20.425   6.724  12.612  0.00  0.00    +0.000 A 
ATOM      9  N4  UNL     1      21.593   6.664  11.998  0.00  0.00    +0.000 NA
ATOM     10  C4  UNL     1      22.529   7.431  12.660  0.00  0.00    +0.000 A 
ATOM     11  C5  UNL     1      22.072   8.078  13.784  0.00  0.00    +0.000 A 
ATOM     12  S2  UNL     1      20.418   7.712  14.015  0.00  0.00    +0.000 S 
ENDBRANCH   7   8
ENDBRANCH   5   7
TORSDOF 2
ENDMDL
