MODEL 1
REMARK VINA RESULT:    -4.238      0.000      0.000
REMARK INTER + INTRA:          -4.568
REMARK INTER:                  -4.494
REMARK INTRA:                  -0.074
REMARK UNBOUND:                -0.082
REMARK  Name = /home/anacleto/Desktop/manuscript_Mpro/naturecomm/supplementary_file_S2/6-chemical-library/molecular_docking/3D_ligand_structure/1373.pdb
REMARK  1 active torsions:
REMARK  status: ('A' for Active; 'I' for Inactive)
REMARK    1  A    between atoms: C3_5  and  C4_6
REMARK                            x       y       z     vdW  Elec       q    Type
REMARK                         _______ _______ _______ _____ _____    ______ ____
ROOT
ATOM      1  C1  UNL     1     -37.291   8.248 -15.697  0.00  0.00    +0.000 A 
ATOM      2  N1  UNL     1     -37.759   9.451 -16.135  0.00  0.00    +0.000 N 
ATOM      3  N2  UNL     1     -38.980   9.753 -15.669  0.00  0.00    +0.000 NA
ATOM      4  C2  UNL     1     -39.286   8.708 -14.896  0.00  0.00    +0.000 A 
ATOM      5  C3  UNL     1     -38.268   7.721 -14.875  0.00  0.00    +0.000 A 
ATOM      6  H2  UNL     1     -37.305  10.115 -16.754  0.00  0.00    +0.000 HD
ENDROOT
BRANCH   5   7
ATOM      7  C4  UNL     1     -38.257   6.422 -14.153  0.00  0.00    +0.000 C 
ATOM      8  C5  UNL     1     -36.993   5.589 -14.376  0.00  0.00    +0.000 C 
ATOM      9  C6  UNL     1     -37.497   4.218 -14.811  0.00  0.00    +0.000 C 
ATOM     10  C7  UNL     1     -38.953   4.211 -14.392  0.00  0.00    +0.000 C 
ATOM     11  N3  UNL     1     -39.358   5.589 -14.642  0.00  0.00    +0.000 NA
ATOM     12  H11 UNL     1     -40.222   5.822 -14.159  0.00  0.00    +0.000 HD
ENDBRANCH   5   7
TORSDOF 1
ENDMDL
MODEL 2
REMARK VINA RESULT:    -4.002     24.791     25.813
REMARK INTER + INTRA:          -4.318
REMARK INTER:                  -4.248
REMARK INTRA:                  -0.069
REMARK UNBOUND:                -0.082
REMARK  Name = /home/anacleto/Desktop/manuscript_Mpro/naturecomm/supplementary_file_S2/6-chemical-library/molecular_docking/3D_ligand_structure/1373.pdb
REMARK  1 active torsions:
REMARK  status: ('A' for Active; 'I' for Inactive)
REMARK    1  A    between atoms: C3_5  and  C4_6
REMARK                            x       y       z     vdW  Elec       q    Type
REMARK                         _______ _______ _______ _____ _____    ______ ____
ROOT
ATOM      1  C1  UNL     1     -26.320   4.126 -38.346  0.00  0.00    +0.000 A 
ATOM      2  N1  UNL     1     -25.727   2.989 -37.884  0.00  0.00    +0.000 N 
ATOM      3  N2  UNL     1     -26.581   1.965 -37.730  0.00  0.00    +0.000 NA
ATOM      4  C2  UNL     1     -27.751   2.473 -38.124  0.00  0.00    +0.000 A 
ATOM      5  C3  UNL     1     -27.659   3.831 -38.517  0.00  0.00    +0.000 A 
ATOM      6  H2  UNL     1     -24.751   2.838 -37.650  0.00  0.00    +0.000 HD
ENDROOT
BRANCH   5   7
ATOM      7  C4  UNL     1     -28.743   4.731 -38.990  0.00  0.00    +0.000 C 
ATOM      8  C5  UNL     1     -28.755   6.108 -38.322  0.00  0.00    +0.000 C 
ATOM      9  C6  UNL     1     -30.179   6.285 -37.809  0.00  0.00    +0.000 C 
ATOM     10  C7  UNL     1     -30.977   5.249 -38.573  0.00  0.00    +0.000 C 
ATOM     11  N3  UNL     1     -30.041   4.135 -38.663  0.00  0.00    +0.000 NA
ATOM     12  H11 UNL     1     -30.316   3.467 -39.379  0.00  0.00    +0.000 HD
ENDBRANCH   5   7
TORSDOF 1
ENDMDL
MODEL 3
REMARK VINA RESULT:    -3.901     28.681     30.107
REMARK INTER + INTRA:          -4.211
REMARK INTER:                  -4.126
REMARK INTRA:                  -0.085
REMARK UNBOUND:                -0.082
REMARK  Name = /home/anacleto/Desktop/manuscript_Mpro/naturecomm/supplementary_file_S2/6-chemical-library/molecular_docking/3D_ligand_structure/1373.pdb
REMARK  1 active torsions:
REMARK  status: ('A' for Active; 'I' for Inactive)
REMARK    1  A    between atoms: C3_5  and  C4_6
REMARK                            x       y       z     vdW  Elec       q    Type
REMARK                         _______ _______ _______ _____ _____    ______ ____
ROOT
ATOM      1  C1  UNL     1     -19.871   7.491 -38.864  0.00  0.00    +0.000 A 
ATOM      2  N1  UNL     1     -20.715   6.439 -38.665  0.00  0.00    +0.000 N 
ATOM      3  N2  UNL     1     -21.724   6.713 -37.824  0.00  0.00    +0.000 NA
ATOM      4  C2  UNL     1     -21.515   7.989 -37.492  0.00  0.00    +0.000 A 
ATOM      5  C3  UNL     1     -20.361   8.538 -38.107  0.00  0.00    +0.000 A 
ATOM      6  H2  UNL     1     -20.665   5.507 -39.065  0.00  0.00    +0.000 HD
ENDROOT
BRANCH   5   7
ATOM      7  C4  UNL     1     -19.802   9.907 -37.963  0.00  0.00    +0.000 C 
ATOM      8  C5  UNL     1     -20.181  10.863 -39.097  0.00  0.00    +0.000 C 
ATOM      9  C6  UNL     1     -18.857  11.440 -39.584  0.00  0.00    +0.000 C 
ATOM     10  C7  UNL     1     -17.888  11.142 -38.458  0.00  0.00    +0.000 C 
ATOM     11  N3  UNL     1     -18.339   9.836 -37.994  0.00  0.00    +0.000 NA
ATOM     12  H11 UNL     1     -17.974   9.617 -37.070  0.00  0.00    +0.000 HD
ENDBRANCH   5   7
TORSDOF 1
ENDMDL
MODEL 4
REMARK VINA RESULT:    -3.889     24.896     25.814
REMARK INTER + INTRA:          -4.199
REMARK INTER:                  -4.120
REMARK INTRA:                  -0.079
REMARK UNBOUND:                -0.082
REMARK  Name = /home/anacleto/Desktop/manuscript_Mpro/naturecomm/supplementary_file_S2/6-chemical-library/molecular_docking/3D_ligand_structure/1373.pdb
REMARK  1 active torsions:
REMARK  status: ('A' for Active; 'I' for Inactive)
REMARK    1  A    between atoms: C3_5  and  C4_6
REMARK                            x       y       z     vdW  Elec       q    Type
REMARK                         _______ _______ _______ _____ _____    ______ ____
ROOT
ATOM      1  C1  UNL     1     -30.684   4.609 -38.720  0.00  0.00    +0.000 A 
ATOM      2  N1  UNL     1     -31.133   5.730 -38.086  0.00  0.00    +0.000 N 
ATOM      3  N2  UNL     1     -30.148   6.537 -37.664  0.00  0.00    +0.000 NA
ATOM      4  C2  UNL     1     -29.038   5.909 -38.060  0.00  0.00    +0.000 A 
ATOM      5  C3  UNL     1     -29.304   4.685 -38.725  0.00  0.00    +0.000 A 
ATOM      6  H2  UNL     1     -32.091   6.008 -37.902  0.00  0.00    +0.000 HD
ENDROOT
BRANCH   5   7
ATOM      7  C4  UNL     1     -28.334   3.709 -39.285  0.00  0.00    +0.000 C 
ATOM      8  C5  UNL     1     -27.920   2.604 -38.310  0.00  0.00    +0.000 C 
ATOM      9  C6  UNL     1     -26.396   2.625 -38.315  0.00  0.00    +0.000 C 
ATOM     10  C7  UNL     1     -26.043   3.395 -39.572  0.00  0.00    +0.000 C 
ATOM     11  N3  UNL     1     -27.091   4.406 -39.626  0.00  0.00    +0.000 NA
ATOM     12  H11 UNL     1     -27.162   4.827 -40.549  0.00  0.00    +0.000 HD
ENDBRANCH   5   7
TORSDOF 1
ENDMDL
MODEL 5
REMARK VINA RESULT:    -3.775     19.022     20.046
REMARK INTER + INTRA:          -4.078
REMARK INTER:                  -4.002
REMARK INTRA:                  -0.076
REMARK UNBOUND:                -0.082
REMARK  Name = /home/anacleto/Desktop/manuscript_Mpro/naturecomm/supplementary_file_S2/6-chemical-library/molecular_docking/3D_ligand_structure/1373.pdb
REMARK  1 active torsions:
REMARK  status: ('A' for Active; 'I' for Inactive)
REMARK    1  A    between atoms: C3_5  and  C4_6
REMARK                            x       y       z     vdW  Elec       q    Type
REMARK                         _______ _______ _______ _____ _____    ______ ____
ROOT
ATOM      1  C1  UNL     1     -29.698  -5.846 -26.039  0.00  0.00    +0.000 A 
ATOM      2  N1  UNL     1     -29.689  -6.283 -24.748  0.00  0.00    +0.000 N 
ATOM      3  N2  UNL     1     -28.475  -6.250 -24.179  0.00  0.00    +0.000 NA
ATOM      4  C2  UNL     1     -27.692  -5.759 -25.144  0.00  0.00    +0.000 A 
ATOM      5  C3  UNL     1     -28.398  -5.490 -26.343  0.00  0.00    +0.000 A 
ATOM      6  H2  UNL     1     -30.469  -6.621 -24.193  0.00  0.00    +0.000 HD
ENDROOT
BRANCH   5   7
ATOM      7  C4  UNL     1     -27.868  -4.962 -27.627  0.00  0.00    +0.000 C 
ATOM      8  C5  UNL     1     -26.354  -5.116 -27.794  0.00  0.00    +0.000 C 
ATOM      9  C6  UNL     1     -25.854  -3.722 -28.152  0.00  0.00    +0.000 C 
ATOM     10  C7  UNL     1     -27.101  -2.985 -28.594  0.00  0.00    +0.000 C 
ATOM     11  N3  UNL     1     -28.117  -3.520 -27.695  0.00  0.00    +0.000 NA
ATOM     12  H11 UNL     1     -29.057  -3.338 -28.037  0.00  0.00    +0.000 HD
ENDBRANCH   5   7
TORSDOF 1
ENDMDL
MODEL 6
REMARK VINA RESULT:    -3.754     19.739     20.193
REMARK INTER + INTRA:          -4.055
REMARK INTER:                  -3.981
REMARK INTRA:                  -0.074
REMARK UNBOUND:                -0.082
REMARK  Name = /home/anacleto/Desktop/manuscript_Mpro/naturecomm/supplementary_file_S2/6-chemical-library/molecular_docking/3D_ligand_structure/1373.pdb
REMARK  1 active torsions:
REMARK  status: ('A' for Active; 'I' for Inactive)
REMARK    1  A    between atoms: C3_5  and  C4_6
REMARK                            x       y       z     vdW  Elec       q    Type
REMARK                         _______ _______ _______ _____ _____    ______ ____
ROOT
ATOM      1  C1  UNL     1     -27.807  -4.848 -26.694  0.00  0.00    +0.000 A 
ATOM      2  N1  UNL     1     -28.566  -4.320 -27.696  0.00  0.00    +0.000 N 
ATOM      3  N2  UNL     1     -27.874  -3.539 -28.538  0.00  0.00    +0.000 NA
ATOM      4  C2  UNL     1     -26.629  -3.588 -28.057  0.00  0.00    +0.000 A 
ATOM      5  C3  UNL     1     -26.519  -4.390 -26.893  0.00  0.00    +0.000 A 
ATOM      6  H2  UNL     1     -29.559  -4.446 -27.866  0.00  0.00    +0.000 HD
ENDROOT
BRANCH   5   7
ATOM      7  C4  UNL     1     -25.311  -4.664 -26.073  0.00  0.00    +0.000 C 
ATOM      8  C5  UNL     1     -25.553  -5.608 -24.892  0.00  0.00    +0.000 C 
ATOM      9  C6  UNL     1     -25.001  -4.871 -23.678  0.00  0.00    +0.000 C 
ATOM     10  C7  UNL     1     -24.110  -3.799 -24.272  0.00  0.00    +0.000 C 
ATOM     11  N3  UNL     1     -24.841  -3.413 -25.472  0.00  0.00    +0.000 NA
ATOM     12  H11 UNL     1     -24.251  -2.905 -26.127  0.00  0.00    +0.000 HD
ENDBRANCH   5   7
TORSDOF 1
ENDMDL
MODEL 7
REMARK VINA RESULT:    -3.717     28.163     29.356
REMARK INTER + INTRA:          -4.016
REMARK INTER:                  -3.930
REMARK INTRA:                  -0.086
REMARK UNBOUND:                -0.082
REMARK  Name = /home/anacleto/Desktop/manuscript_Mpro/naturecomm/supplementary_file_S2/6-chemical-library/molecular_docking/3D_ligand_structure/1373.pdb
REMARK  1 active torsions:
REMARK  status: ('A' for Active; 'I' for Inactive)
REMARK    1  A    between atoms: C3_5  and  C4_6
REMARK                            x       y       z     vdW  Elec       q    Type
REMARK                         _______ _______ _______ _____ _____    ______ ____
ROOT
ATOM      1  C1  UNL     1     -20.568   8.890 -37.815  0.00  0.00    +0.000 A 
ATOM      2  N1  UNL     1     -19.411   9.611 -37.813  0.00  0.00    +0.000 N 
ATOM      3  N2  UNL     1     -18.429   9.049 -38.535  0.00  0.00    +0.000 NA
ATOM      4  C2  UNL     1     -18.995   7.942 -39.022  0.00  0.00    +0.000 A 
ATOM      5  C3  UNL     1     -20.338   7.778 -38.602  0.00  0.00    +0.000 A 
ATOM      6  H2  UNL     1     -19.216  10.488 -37.342  0.00  0.00    +0.000 HD
ENDROOT
BRANCH   5   7
ATOM      7  C4  UNL     1     -21.276   6.669 -38.918  0.00  0.00    +0.000 C 
ATOM      8  C5  UNL     1     -22.342   7.024 -39.957  0.00  0.00    +0.000 C 
ATOM      9  C6  UNL     1     -23.667   6.641 -39.308  0.00  0.00    +0.000 C 
ATOM     10  C7  UNL     1     -23.269   5.715 -38.177  0.00  0.00    +0.000 C 
ATOM     11  N3  UNL     1     -22.022   6.308 -37.710  0.00  0.00    +0.000 NA
ATOM     12  H11 UNL     1     -21.484   5.658 -37.142  0.00  0.00    +0.000 HD
ENDBRANCH   5   7
TORSDOF 1
ENDMDL
MODEL 8
REMARK VINA RESULT:    -3.689     19.484     19.994
REMARK INTER + INTRA:          -3.987
REMARK INTER:                  -3.918
REMARK INTRA:                  -0.069
REMARK UNBOUND:                -0.082
REMARK  Name = /home/anacleto/Desktop/manuscript_Mpro/naturecomm/supplementary_file_S2/6-chemical-library/molecular_docking/3D_ligand_structure/1373.pdb
REMARK  1 active torsions:
REMARK  status: ('A' for Active; 'I' for Inactive)
REMARK    1  A    between atoms: C3_5  and  C4_6
REMARK                            x       y       z     vdW  Elec       q    Type
REMARK                         _______ _______ _______ _____ _____    ______ ____
ROOT
ATOM      1  C1  UNL     1     -28.123  -4.642 -26.841  0.00  0.00    +0.000 A 
ATOM      2  N1  UNL     1     -29.391  -5.137 -26.773  0.00  0.00    +0.000 N 
ATOM      3  N2  UNL     1     -29.513  -6.185 -25.945  0.00  0.00    +0.000 NA
ATOM      4  C2  UNL     1     -28.278  -6.347 -25.463  0.00  0.00    +0.000 A 
ATOM      5  C3  UNL     1     -27.353  -5.412 -25.991  0.00  0.00    +0.000 A 
ATOM      6  H2  UNL     1     -30.220  -4.815 -27.263  0.00  0.00    +0.000 HD
ENDROOT
BRANCH   5   7
ATOM      7  C4  UNL     1     -25.899  -5.294 -25.710  0.00  0.00    +0.000 C 
ATOM      8  C5  UNL     1     -25.525  -5.474 -24.237  0.00  0.00    +0.000 C 
ATOM      9  C6  UNL     1     -24.688  -4.249 -23.890  0.00  0.00    +0.000 C 
ATOM     10  C7  UNL     1     -24.270  -3.695 -25.237  0.00  0.00    +0.000 C 
ATOM     11  N3  UNL     1     -25.449  -3.943 -26.058  0.00  0.00    +0.000 NA
ATOM     12  H11 UNL     1     -25.237  -3.884 -27.051  0.00  0.00    +0.000 HD
ENDBRANCH   5   7
TORSDOF 1
ENDMDL
MODEL 9
REMARK VINA RESULT:    -3.535     20.402     21.627
REMARK INTER + INTRA:          -3.824
REMARK INTER:                  -3.742
REMARK INTRA:                  -0.082
REMARK UNBOUND:                -0.082
REMARK  Name = /home/anacleto/Desktop/manuscript_Mpro/naturecomm/supplementary_file_S2/6-chemical-library/molecular_docking/3D_ligand_structure/1373.pdb
REMARK  1 active torsions:
REMARK  status: ('A' for Active; 'I' for Inactive)
REMARK    1  A    between atoms: C3_5  and  C4_6
REMARK                            x       y       z     vdW  Elec       q    Type
REMARK                         _______ _______ _______ _____ _____    ______ ____
ROOT
ATOM      1  C1  UNL     1     -27.143  -3.019 -28.534  0.00  0.00    +0.000 A 
ATOM      2  N1  UNL     1     -28.261  -3.397 -27.850  0.00  0.00    +0.000 N 
ATOM      3  N2  UNL     1     -28.040  -4.380 -26.965  0.00  0.00    +0.000 NA
ATOM      4  C2  UNL     1     -26.732  -4.620 -27.085  0.00  0.00    +0.000 A 
ATOM      5  C3  UNL     1     -26.108  -3.803 -28.061  0.00  0.00    +0.000 A 
ATOM      6  H2  UNL     1     -29.204  -3.033 -27.937  0.00  0.00    +0.000 HD
ENDROOT
BRANCH   5   7
ATOM      7  C4  UNL     1     -24.684  -3.795 -28.485  0.00  0.00    +0.000 C 
ATOM      8  C5  UNL     1     -24.289  -4.970 -29.383  0.00  0.00    +0.000 C 
ATOM      9  C6  UNL     1     -23.061  -5.579 -28.716  0.00  0.00    +0.000 C 
ATOM     10  C7  UNL     1     -22.579  -4.496 -27.773  0.00  0.00    +0.000 C 
ATOM     11  N3  UNL     1     -23.828  -3.911 -27.302  0.00  0.00    +0.000 NA
ATOM     12  H11 UNL     1     -23.681  -2.997 -26.879  0.00  0.00    +0.000 HD
ENDBRANCH   5   7
TORSDOF 1
ENDMDL
