MODEL 1
REMARK VINA RESULT:    -4.380      0.000      0.000
REMARK INTER + INTRA:          -5.129
REMARK INTER:                  -4.799
REMARK INTRA:                  -0.330
REMARK UNBOUND:                -0.237
REMARK  Name = /home/anacleto/Desktop/manuscript_Mpro/naturecomm/supplementary_file_S2/6-chemical-library/molecular_docking/3D_ligand_structure/1146.pdb
REMARK  2 active torsions:
REMARK  status: ('A' for Active; 'I' for Inactive)
REMARK    1  A    between atoms: C6_6  and  O1_7
REMARK    2  A    between atoms: O1_7  and  C7_8
REMARK                            x       y       z     vdW  Elec       q    Type
REMARK                         _______ _______ _______ _____ _____    ______ ____
ROOT
ATOM      1  O1  UNL     1     -24.735   6.215 -38.741  0.00  0.00    +0.000 OA
ENDROOT
BRANCH   1   7
ATOM      2  C1  UNL     1     -24.555   4.843 -40.662  0.00  0.00    +0.000 A 
ATOM      3  C2  UNL     1     -24.727   3.614 -41.302  0.00  0.00    +0.000 A 
ATOM      4  C3  UNL     1     -25.219   2.520 -40.588  0.00  0.00    +0.000 A 
ATOM      5  C4  UNL     1     -25.544   2.655 -39.237  0.00  0.00    +0.000 A 
ATOM      6  C5  UNL     1     -25.373   3.882 -38.596  0.00  0.00    +0.000 A 
ATOM      7  C6  UNL     1     -24.859   4.969 -39.306  0.00  0.00    +0.000 A 
ENDBRANCH   1   7
BRANCH   1   8
ATOM      8  C7  UNL     1     -23.472   6.799 -38.749  0.00  0.00    +0.000 A 
ATOM      9  C8  UNL     1     -22.494   6.138 -38.020  0.00  0.00    +0.000 A 
ATOM     10  C9  UNL     1     -21.220   6.695 -37.965  0.00  0.00    +0.000 A 
ATOM     11  C10 UNL     1     -20.973   7.890 -38.630  0.00  0.00    +0.000 A 
ATOM     12  C11 UNL     1     -22.015   8.485 -39.323  0.00  0.00    +0.000 A 
ATOM     13  N1  UNL     1     -23.261   7.969 -39.395  0.00  0.00    +0.000 NA
ENDBRANCH   1   8
TORSDOF 2
ENDMDL
MODEL 2
REMARK VINA RESULT:    -4.330      2.065      3.163
REMARK INTER + INTRA:          -5.073
REMARK INTER:                  -4.770
REMARK INTRA:                  -0.304
REMARK UNBOUND:                -0.237
REMARK  Name = /home/anacleto/Desktop/manuscript_Mpro/naturecomm/supplementary_file_S2/6-chemical-library/molecular_docking/3D_ligand_structure/1146.pdb
REMARK  2 active torsions:
REMARK  status: ('A' for Active; 'I' for Inactive)
REMARK    1  A    between atoms: C6_6  and  O1_7
REMARK    2  A    between atoms: O1_7  and  C7_8
REMARK                            x       y       z     vdW  Elec       q    Type
REMARK                         _______ _______ _______ _____ _____    ______ ____
ROOT
ATOM      1  O1  UNL     1     -21.488   6.315 -37.904  0.00  0.00    +0.000 OA
ENDROOT
BRANCH   1   7
ATOM      2  C1  UNL     1     -23.685   5.440 -38.014  0.00  0.00    +0.000 A 
ATOM      3  C2  UNL     1     -24.845   5.147 -38.732  0.00  0.00    +0.000 A 
ATOM      4  C3  UNL     1     -24.941   5.508 -40.077  0.00  0.00    +0.000 A 
ATOM      5  C4  UNL     1     -23.876   6.157 -40.705  0.00  0.00    +0.000 A 
ATOM      6  C5  UNL     1     -22.716   6.451 -39.989  0.00  0.00    +0.000 A 
ATOM      7  C6  UNL     1     -22.631   6.109 -38.637  0.00  0.00    +0.000 A 
ENDBRANCH   1   7
BRANCH   1   8
ATOM      8  C7  UNL     1     -20.908   7.578 -37.963  0.00  0.00    +0.000 A 
ATOM      9  C8  UNL     1     -21.594   8.591 -37.309  0.00  0.00    +0.000 A 
ATOM     10  C9  UNL     1     -21.077   9.882 -37.363  0.00  0.00    +0.000 A 
ATOM     11  C10 UNL     1     -19.904  10.114 -38.072  0.00  0.00    +0.000 A 
ATOM     12  C11 UNL     1     -19.294   9.041 -38.704  0.00  0.00    +0.000 A 
ATOM     13  N1  UNL     1     -19.771   7.778 -38.669  0.00  0.00    +0.000 NA
ENDBRANCH   1   8
TORSDOF 2
ENDMDL
MODEL 3
REMARK VINA RESULT:    -4.322      2.026      4.988
REMARK INTER + INTRA:          -5.064
REMARK INTER:                  -5.006
REMARK INTRA:                  -0.058
REMARK UNBOUND:                -0.237
REMARK  Name = /home/anacleto/Desktop/manuscript_Mpro/naturecomm/supplementary_file_S2/6-chemical-library/molecular_docking/3D_ligand_structure/1146.pdb
REMARK  2 active torsions:
REMARK  status: ('A' for Active; 'I' for Inactive)
REMARK    1  A    between atoms: C6_6  and  O1_7
REMARK    2  A    between atoms: O1_7  and  C7_8
REMARK                            x       y       z     vdW  Elec       q    Type
REMARK                         _______ _______ _______ _____ _____    ______ ____
ROOT
ATOM      1  O1  UNL     1     -25.051   5.224 -40.247  0.00  0.00    +0.000 OA
ENDROOT
BRANCH   1   7
ATOM      2  C1  UNL     1     -22.973   6.357 -40.287  0.00  0.00    +0.000 A 
ATOM      3  C2  UNL     1     -21.807   6.788 -39.650  0.00  0.00    +0.000 A 
ATOM      4  C3  UNL     1     -21.620   6.528 -38.291  0.00  0.00    +0.000 A 
ATOM      5  C4  UNL     1     -22.593   5.833 -37.571  0.00  0.00    +0.000 A 
ATOM      6  C5  UNL     1     -23.758   5.402 -38.205  0.00  0.00    +0.000 A 
ATOM      7  C6  UNL     1     -23.954   5.683 -39.559  0.00  0.00    +0.000 A 
ENDBRANCH   1   7
BRANCH   1   8
ATOM      8  C7  UNL     1     -25.998   4.498 -39.532  0.00  0.00    +0.000 A 
ATOM      9  C8  UNL     1     -25.748   3.139 -39.401  0.00  0.00    +0.000 A 
ATOM     10  C9  UNL     1     -26.679   2.358 -38.724  0.00  0.00    +0.000 A 
ATOM     11  C10 UNL     1     -27.824   2.957 -38.212  0.00  0.00    +0.000 A 
ATOM     12  C11 UNL     1     -27.994   4.319 -38.402  0.00  0.00    +0.000 A 
ATOM     13  N1  UNL     1     -27.109   5.104 -39.054  0.00  0.00    +0.000 NA
ENDBRANCH   1   8
TORSDOF 2
ENDMDL
MODEL 4
REMARK VINA RESULT:    -4.286     16.162     17.367
REMARK INTER + INTRA:          -5.025
REMARK INTER:                  -4.704
REMARK INTRA:                  -0.321
REMARK UNBOUND:                -0.237
REMARK  Name = /home/anacleto/Desktop/manuscript_Mpro/naturecomm/supplementary_file_S2/6-chemical-library/molecular_docking/3D_ligand_structure/1146.pdb
REMARK  2 active torsions:
REMARK  status: ('A' for Active; 'I' for Inactive)
REMARK    1  A    between atoms: C6_6  and  O1_7
REMARK    2  A    between atoms: O1_7  and  C7_8
REMARK                            x       y       z     vdW  Elec       q    Type
REMARK                         _______ _______ _______ _____ _____    ______ ____
ROOT
ATOM      1  O1  UNL     1     -24.384  -4.461 -26.441  0.00  0.00    +0.000 OA
ENDROOT
BRANCH   1   7
ATOM      2  C1  UNL     1     -26.555  -3.970 -27.249  0.00  0.00    +0.000 A 
ATOM      3  C2  UNL     1     -27.928  -4.216 -27.278  0.00  0.00    +0.000 A 
ATOM      4  C3  UNL     1     -28.463  -5.268 -26.532  0.00  0.00    +0.000 A 
ATOM      5  C4  UNL     1     -27.627  -6.069 -25.753  0.00  0.00    +0.000 A 
ATOM      6  C5  UNL     1     -26.254  -5.825 -25.722  0.00  0.00    +0.000 A 
ATOM      7  C6  UNL     1     -25.718  -4.786 -26.487  0.00  0.00    +0.000 A 
ENDBRANCH   1   7
BRANCH   1   8
ATOM      8  C7  UNL     1     -23.835  -4.185 -25.192  0.00  0.00    +0.000 A 
ATOM      9  C8  UNL     1     -24.322  -3.055 -24.553  0.00  0.00    +0.000 A 
ATOM     10  C9  UNL     1     -23.785  -2.711 -23.315  0.00  0.00    +0.000 A 
ATOM     11  C10 UNL     1     -22.780  -3.501 -22.770  0.00  0.00    +0.000 A 
ATOM     12  C11 UNL     1     -22.349  -4.606 -23.487  0.00  0.00    +0.000 A 
ATOM     13  N1  UNL     1     -22.850  -4.964 -24.689  0.00  0.00    +0.000 NA
ENDBRANCH   1   8
TORSDOF 2
ENDMDL
MODEL 5
REMARK VINA RESULT:    -4.285     15.624     17.287
REMARK INTER + INTRA:          -5.024
REMARK INTER:                  -4.897
REMARK INTRA:                  -0.126
REMARK UNBOUND:                -0.237
REMARK  Name = /home/anacleto/Desktop/manuscript_Mpro/naturecomm/supplementary_file_S2/6-chemical-library/molecular_docking/3D_ligand_structure/1146.pdb
REMARK  2 active torsions:
REMARK  status: ('A' for Active; 'I' for Inactive)
REMARK    1  A    between atoms: C6_6  and  O1_7
REMARK    2  A    between atoms: O1_7  and  C7_8
REMARK                            x       y       z     vdW  Elec       q    Type
REMARK                         _______ _______ _______ _____ _____    ______ ____
ROOT
ATOM      1  O1  UNL     1     -24.318  -5.079 -26.436  0.00  0.00    +0.000 OA
ENDROOT
BRANCH   1   7
ATOM      2  C1  UNL     1     -22.945  -5.159 -24.508  0.00  0.00    +0.000 A 
ATOM      3  C2  UNL     1     -22.504  -4.610 -23.303  0.00  0.00    +0.000 A 
ATOM      4  C3  UNL     1     -22.999  -3.376 -22.878  0.00  0.00    +0.000 A 
ATOM      5  C4  UNL     1     -23.938  -2.694 -23.653  0.00  0.00    +0.000 A 
ATOM      6  C5  UNL     1     -24.381  -3.241 -24.857  0.00  0.00    +0.000 A 
ATOM      7  C6  UNL     1     -23.867  -4.465 -25.292  0.00  0.00    +0.000 A 
ENDBRANCH   1   7
BRANCH   1   8
ATOM      8  C7  UNL     1     -25.502  -4.607 -26.992  0.00  0.00    +0.000 A 
ATOM      9  C8  UNL     1     -26.672  -5.118 -26.451  0.00  0.00    +0.000 A 
ATOM     10  C9  UNL     1     -27.887  -4.706 -26.992  0.00  0.00    +0.000 A 
ATOM     11  C10 UNL     1     -27.887  -3.809 -28.054  0.00  0.00    +0.000 A 
ATOM     12  C11 UNL     1     -26.668  -3.361 -28.536  0.00  0.00    +0.000 A 
ATOM     13  N1  UNL     1     -25.474  -3.742 -28.033  0.00  0.00    +0.000 NA
ENDBRANCH   1   8
TORSDOF 2
ENDMDL
MODEL 6
REMARK VINA RESULT:    -4.252     28.153     29.281
REMARK INTER + INTRA:          -4.986
REMARK INTER:                  -4.783
REMARK INTRA:                  -0.203
REMARK UNBOUND:                -0.237
REMARK  Name = /home/anacleto/Desktop/manuscript_Mpro/naturecomm/supplementary_file_S2/6-chemical-library/molecular_docking/3D_ligand_structure/1146.pdb
REMARK  2 active torsions:
REMARK  status: ('A' for Active; 'I' for Inactive)
REMARK    1  A    between atoms: C6_6  and  O1_7
REMARK    2  A    between atoms: O1_7  and  C7_8
REMARK                            x       y       z     vdW  Elec       q    Type
REMARK                         _______ _______ _______ _____ _____    ______ ____
ROOT
ATOM      1  O1  UNL     1     -37.808   6.756 -13.536  0.00  0.00    +0.000 OA
ENDROOT
BRANCH   1   7
ATOM      2  C1  UNL     1     -37.673   8.408 -15.227  0.00  0.00    +0.000 A 
ATOM      3  C2  UNL     1     -38.230   9.472 -15.938  0.00  0.00    +0.000 A 
ATOM      4  C3  UNL     1     -39.534   9.888 -15.661  0.00  0.00    +0.000 A 
ATOM      5  C4  UNL     1     -40.277   9.246 -14.669  0.00  0.00    +0.000 A 
ATOM      6  C5  UNL     1     -39.722   8.183 -13.957  0.00  0.00    +0.000 A 
ATOM      7  C6  UNL     1     -38.426   7.753 -14.252  0.00  0.00    +0.000 A 
ENDBRANCH   1   7
BRANCH   1   8
ATOM      8  C7  UNL     1     -38.145   5.442 -13.846  0.00  0.00    +0.000 A 
ATOM      9  C8  UNL     1     -37.285   4.785 -14.714  0.00  0.00    +0.000 A 
ATOM     10  C9  UNL     1     -37.590   3.479 -15.085  0.00  0.00    +0.000 A 
ATOM     11  C10 UNL     1     -38.743   2.883 -14.585  0.00  0.00    +0.000 A 
ATOM     12  C11 UNL     1     -39.548   3.622 -13.733  0.00  0.00    +0.000 A 
ATOM     13  N1  UNL     1     -39.278   4.890 -13.355  0.00  0.00    +0.000 NA
ENDBRANCH   1   8
TORSDOF 2
ENDMDL
MODEL 7
REMARK VINA RESULT:    -4.002     13.055     13.889
REMARK INTER + INTRA:          -4.707
REMARK INTER:                  -4.455
REMARK INTRA:                  -0.252
REMARK UNBOUND:                -0.237
REMARK  Name = /home/anacleto/Desktop/manuscript_Mpro/naturecomm/supplementary_file_S2/6-chemical-library/molecular_docking/3D_ligand_structure/1146.pdb
REMARK  2 active torsions:
REMARK  status: ('A' for Active; 'I' for Inactive)
REMARK    1  A    between atoms: C6_6  and  O1_7
REMARK    2  A    between atoms: O1_7  and  C7_8
REMARK                            x       y       z     vdW  Elec       q    Type
REMARK                         _______ _______ _______ _____ _____    ______ ____
ROOT
ATOM      1  O1  UNL     1     -33.329  12.698 -32.789  0.00  0.00    +0.000 OA
ENDROOT
BRANCH   1   7
ATOM      2  C1  UNL     1     -35.283  12.742 -31.453  0.00  0.00    +0.000 A 
ATOM      3  C2  UNL     1     -36.482  12.167 -31.029  0.00  0.00    +0.000 A 
ATOM      4  C3  UNL     1     -36.918  10.969 -31.595  0.00  0.00    +0.000 A 
ATOM      5  C4  UNL     1     -36.154  10.342 -32.581  0.00  0.00    +0.000 A 
ATOM      6  C5  UNL     1     -34.956  10.915 -33.006  0.00  0.00    +0.000 A 
ATOM      7  C6  UNL     1     -34.533  12.126 -32.454  0.00  0.00    +0.000 A 
ENDBRANCH   1   7
BRANCH   1   8
ATOM      8  C7  UNL     1     -33.018  12.791 -34.141  0.00  0.00    +0.000 A 
ATOM      9  C8  UNL     1     -31.826  12.198 -34.531  0.00  0.00    +0.000 A 
ATOM     10  C9  UNL     1     -31.447  12.289 -35.868  0.00  0.00    +0.000 A 
ATOM     11  C10 UNL     1     -32.265  12.974 -36.759  0.00  0.00    +0.000 A 
ATOM     12  C11 UNL     1     -33.432  13.545 -36.276  0.00  0.00    +0.000 A 
ATOM     13  N1  UNL     1     -33.826  13.473 -34.986  0.00  0.00    +0.000 NA
ENDBRANCH   1   8
TORSDOF 2
ENDMDL
MODEL 8
REMARK VINA RESULT:    -3.994     14.438     15.853
REMARK INTER + INTRA:          -4.699
REMARK INTER:                  -4.435
REMARK INTRA:                  -0.263
REMARK UNBOUND:                -0.237
REMARK  Name = /home/anacleto/Desktop/manuscript_Mpro/naturecomm/supplementary_file_S2/6-chemical-library/molecular_docking/3D_ligand_structure/1146.pdb
REMARK  2 active torsions:
REMARK  status: ('A' for Active; 'I' for Inactive)
REMARK    1  A    between atoms: C6_6  and  O1_7
REMARK    2  A    between atoms: O1_7  and  C7_8
REMARK                            x       y       z     vdW  Elec       q    Type
REMARK                         _______ _______ _______ _____ _____    ______ ____
ROOT
ATOM      1  O1  UNL     1     -21.927  -3.360 -28.547  0.00  0.00    +0.000 OA
ENDROOT
BRANCH   1   7
ATOM      2  C1  UNL     1     -21.224  -5.612 -28.749  0.00  0.00    +0.000 A 
ATOM      3  C2  UNL     1     -20.300  -6.627 -28.496  0.00  0.00    +0.000 A 
ATOM      4  C3  UNL     1     -19.119  -6.338 -27.810  0.00  0.00    +0.000 A 
ATOM      5  C4  UNL     1     -18.864  -5.037 -27.372  0.00  0.00    +0.000 A 
ATOM      6  C5  UNL     1     -19.786  -4.022 -27.624  0.00  0.00    +0.000 A 
ATOM      7  C6  UNL     1     -20.956  -4.308 -28.331  0.00  0.00    +0.000 A 
ENDBRANCH   1   7
BRANCH   1   8
ATOM      8  C7  UNL     1     -23.189  -3.603 -28.014  0.00  0.00    +0.000 A 
ATOM      9  C8  UNL     1     -24.248  -3.532 -28.908  0.00  0.00    +0.000 A 
ATOM     10  C9  UNL     1     -25.537  -3.733 -28.424  0.00  0.00    +0.000 A 
ATOM     11  C10 UNL     1     -25.721  -3.987 -27.070  0.00  0.00    +0.000 A 
ATOM     12  C11 UNL     1     -24.605  -4.028 -26.251  0.00  0.00    +0.000 A 
ATOM     13  N1  UNL     1     -23.342  -3.837 -26.691  0.00  0.00    +0.000 NA
ENDBRANCH   1   8
TORSDOF 2
ENDMDL
MODEL 9
REMARK VINA RESULT:    -3.960     18.755     19.957
REMARK INTER + INTRA:          -4.659
REMARK INTER:                  -4.422
REMARK INTRA:                  -0.237
REMARK UNBOUND:                -0.237
REMARK  Name = /home/anacleto/Desktop/manuscript_Mpro/naturecomm/supplementary_file_S2/6-chemical-library/molecular_docking/3D_ligand_structure/1146.pdb
REMARK  2 active torsions:
REMARK  status: ('A' for Active; 'I' for Inactive)
REMARK    1  A    between atoms: C6_6  and  O1_7
REMARK    2  A    between atoms: O1_7  and  C7_8
REMARK                            x       y       z     vdW  Elec       q    Type
REMARK                         _______ _______ _______ _____ _____    ______ ____
ROOT
ATOM      1  O1  UNL     1     -37.068  -1.950 -25.709  0.00  0.00    +0.000 OA
ENDROOT
BRANCH   1   7
ATOM      2  C1  UNL     1     -38.756  -2.640 -27.219  0.00  0.00    +0.000 A 
ATOM      3  C2  UNL     1     -39.301  -2.675 -28.504  0.00  0.00    +0.000 A 
ATOM      4  C3  UNL     1     -38.679  -1.982 -29.544  0.00  0.00    +0.000 A 
ATOM      5  C4  UNL     1     -37.510  -1.258 -29.301  0.00  0.00    +0.000 A 
ATOM      6  C5  UNL     1     -36.963  -1.222 -28.018  0.00  0.00    +0.000 A 
ATOM      7  C6  UNL     1     -37.600  -1.898 -26.975  0.00  0.00    +0.000 A 
ENDBRANCH   1   7
BRANCH   1   8
ATOM      8  C7  UNL     1     -35.891  -2.670 -25.538  0.00  0.00    +0.000 A 
ATOM      9  C8  UNL     1     -36.042  -4.017 -25.241  0.00  0.00    +0.000 A 
ATOM     10  C9  UNL     1     -34.898  -4.780 -25.026  0.00  0.00    +0.000 A 
ATOM     11  C10 UNL     1     -33.652  -4.171 -25.107  0.00  0.00    +0.000 A 
ATOM     12  C11 UNL     1     -33.599  -2.817 -25.397  0.00  0.00    +0.000 A 
ATOM     13  N1  UNL     1     -34.690  -2.051 -25.611  0.00  0.00    +0.000 NA
ENDBRANCH   1   8
TORSDOF 2
ENDMDL
