MODEL 1
REMARK VINA RESULT:    -4.263      0.000      0.000
REMARK INTER + INTRA:          -4.725
REMARK INTER:                  -4.533
REMARK INTRA:                  -0.192
REMARK UNBOUND:                -0.213
REMARK  Name = /home/anacleto/Desktop/manuscript_Mpro/naturecomm/supplementary_file_S2/6-chemical-library/molecular_docking/3D_ligand_structure/1218.pdb
REMARK  1 active torsions:
REMARK  status: ('A' for Active; 'I' for Inactive)
REMARK    1  A    between atoms: C4_5  and  C5_6
REMARK                            x       y       z     vdW  Elec       q    Type
REMARK                         _______ _______ _______ _____ _____    ______ ____
ROOT
ATOM      1  C5  UNL     1      15.393  10.921  -3.439  0.00  0.00    +0.000 C 
ATOM      2  C6  UNL     1      14.499  11.397  -4.311  0.00  0.00    +0.000 C 
ATOM      3  C7  UNL     1      14.096  12.743  -4.775  0.00  0.00    +0.000 C 
ATOM      4  O2  UNL     1      14.527  13.838  -4.482  0.00  0.00    +0.000 OA
ATOM      5  N1  UNL     1      13.090  12.454  -5.691  0.00  0.00    +0.000 N 
ATOM      6  N2  UNL     1      12.827  11.113  -5.882  0.00  0.00    +0.000 NA
ATOM      7  C8  UNL     1      13.639  10.487  -5.085  0.00  0.00    +0.000 C 
ATOM      8  H5  UNL     1      12.597  13.161  -6.221  0.00  0.00    +0.000 HD
ENDROOT
BRANCH   1  13
ATOM      9  O1  UNL     1      16.048  11.945  -1.283  0.00  0.00    +0.000 OA
ATOM     10  C1  UNL     1      17.040  12.746  -0.830  0.00  0.00    +0.000 A 
ATOM     11  C2  UNL     1      17.905  13.052  -1.848  0.00  0.00    +0.000 A 
ATOM     12  C3  UNL     1      17.397  12.396  -2.994  0.00  0.00    +0.000 A 
ATOM     13  C4  UNL     1      16.233  11.727  -2.626  0.00  0.00    +0.000 A 
ENDBRANCH   1  13
TORSDOF 1
ENDMDL
MODEL 2
REMARK VINA RESULT:    -4.155     16.062     17.335
REMARK INTER + INTRA:          -4.612
REMARK INTER:                  -4.404
REMARK INTRA:                  -0.208
REMARK UNBOUND:                -0.213
REMARK  Name = /home/anacleto/Desktop/manuscript_Mpro/naturecomm/supplementary_file_S2/6-chemical-library/molecular_docking/3D_ligand_structure/1218.pdb
REMARK  1 active torsions:
REMARK  status: ('A' for Active; 'I' for Inactive)
REMARK    1  A    between atoms: C4_5  and  C5_6
REMARK                            x       y       z     vdW  Elec       q    Type
REMARK                         _______ _______ _______ _____ _____    ______ ____
ROOT
ATOM      1  C5  UNL     1      18.688   7.010  11.427  0.00  0.00    +0.000 C 
ATOM      2  C6  UNL     1      18.700   7.470  12.682  0.00  0.00    +0.000 C 
ATOM      3  C7  UNL     1      19.740   7.958  13.614  0.00  0.00    +0.000 C 
ATOM      4  O2  UNL     1      20.933   8.104  13.455  0.00  0.00    +0.000 OA
ATOM      5  N1  UNL     1      19.003   8.260  14.754  0.00  0.00    +0.000 N 
ATOM      6  N2  UNL     1      17.642   8.051  14.654  0.00  0.00    +0.000 NA
ATOM      7  C8  UNL     1      17.453   7.592  13.454  0.00  0.00    +0.000 C 
ATOM      8  H5  UNL     1      19.409   8.642  15.598  0.00  0.00    +0.000 HD
ENDROOT
BRANCH   1  13
ATOM      9  O1  UNL     1      20.827   5.896  10.871  0.00  0.00    +0.000 OA
ATOM     10  C1  UNL     1      21.768   5.989   9.904  0.00  0.00    +0.000 A 
ATOM     11  C2  UNL     1      21.422   6.956   8.996  0.00  0.00    +0.000 A 
ATOM     12  C3  UNL     1      20.191   7.485   9.451  0.00  0.00    +0.000 A 
ATOM     13  C4  UNL     1      19.847   6.825  10.627  0.00  0.00    +0.000 A 
ENDBRANCH   1  13
TORSDOF 1
ENDMDL
MODEL 3
REMARK VINA RESULT:    -4.154      2.740      4.464
REMARK INTER + INTRA:          -4.610
REMARK INTER:                  -4.397
REMARK INTRA:                  -0.214
REMARK UNBOUND:                -0.213
REMARK  Name = /home/anacleto/Desktop/manuscript_Mpro/naturecomm/supplementary_file_S2/6-chemical-library/molecular_docking/3D_ligand_structure/1218.pdb
REMARK  1 active torsions:
REMARK  status: ('A' for Active; 'I' for Inactive)
REMARK    1  A    between atoms: C4_5  and  C5_6
REMARK                            x       y       z     vdW  Elec       q    Type
REMARK                         _______ _______ _______ _____ _____    ______ ____
ROOT
ATOM      1  C5  UNL     1      15.413  10.956  -3.574  0.00  0.00    +0.000 C 
ATOM      2  C6  UNL     1      15.686  12.007  -2.795  0.00  0.00    +0.000 C 
ATOM      3  C7  UNL     1      15.392  13.456  -2.843  0.00  0.00    +0.000 C 
ATOM      4  O2  UNL     1      14.756  14.104  -3.647  0.00  0.00    +0.000 OA
ATOM      5  N1  UNL     1      16.008  13.925  -1.687  0.00  0.00    +0.000 N 
ATOM      6  N2  UNL     1      16.624  12.964  -0.911  0.00  0.00    +0.000 NA
ATOM      7  C8  UNL     1      16.444  11.845  -1.544  0.00  0.00    +0.000 C 
ATOM      8  H5  UNL     1      15.987  14.894  -1.395  0.00  0.00    +0.000 HD
ENDROOT
BRANCH   1  13
ATOM      9  O1  UNL     1      13.382  10.786  -4.978  0.00  0.00    +0.000 OA
ATOM     10  C1  UNL     1      13.064  10.963  -6.281  0.00  0.00    +0.000 A 
ATOM     11  C2  UNL     1      14.170  11.346  -6.993  0.00  0.00    +0.000 A 
ATOM     12  C3  UNL     1      15.230  11.398  -6.056  0.00  0.00    +0.000 A 
ATOM     13  C4  UNL     1      14.723  11.030  -4.813  0.00  0.00    +0.000 A 
ENDBRANCH   1  13
TORSDOF 1
ENDMDL
MODEL 4
REMARK VINA RESULT:    -4.144      3.157      5.009
REMARK INTER + INTRA:          -4.599
REMARK INTER:                  -4.389
REMARK INTRA:                  -0.210
REMARK UNBOUND:                -0.213
REMARK  Name = /home/anacleto/Desktop/manuscript_Mpro/naturecomm/supplementary_file_S2/6-chemical-library/molecular_docking/3D_ligand_structure/1218.pdb
REMARK  1 active torsions:
REMARK  status: ('A' for Active; 'I' for Inactive)
REMARK    1  A    between atoms: C4_5  and  C5_6
REMARK                            x       y       z     vdW  Elec       q    Type
REMARK                         _______ _______ _______ _____ _____    ______ ____
ROOT
ATOM      1  C5  UNL     1      14.957  11.641  -3.561  0.00  0.00    +0.000 C 
ATOM      2  C6  UNL     1      16.147  11.248  -3.095  0.00  0.00    +0.000 C 
ATOM      3  C7  UNL     1      17.333  10.578  -3.672  0.00  0.00    +0.000 C 
ATOM      4  O2  UNL     1      17.557  10.213  -4.807  0.00  0.00    +0.000 OA
ATOM      5  N1  UNL     1      18.188  10.489  -2.579  0.00  0.00    +0.000 N 
ATOM      6  N2  UNL     1      17.709  11.033  -1.404  0.00  0.00    +0.000 NA
ATOM      7  C8  UNL     1      16.523  11.479  -1.691  0.00  0.00    +0.000 C 
ATOM      8  H5  UNL     1      19.117  10.090  -2.626  0.00  0.00    +0.000 HD
ENDROOT
BRANCH   1  13
ATOM      9  O1  UNL     1      15.027  12.025  -6.005  0.00  0.00    +0.000 OA
ATOM     10  C1  UNL     1      14.361  11.577  -7.095  0.00  0.00    +0.000 A 
ATOM     11  C2  UNL     1      13.408  10.663  -6.728  0.00  0.00    +0.000 A 
ATOM     12  C3  UNL     1      13.501  10.558  -5.320  0.00  0.00    +0.000 A 
ATOM     13  C4  UNL     1      14.501  11.424  -4.888  0.00  0.00    +0.000 A 
ENDBRANCH   1  13
TORSDOF 1
ENDMDL
MODEL 5
REMARK VINA RESULT:    -4.112     15.305     17.144
REMARK INTER + INTRA:          -4.565
REMARK INTER:                  -4.347
REMARK INTRA:                  -0.219
REMARK UNBOUND:                -0.213
REMARK  Name = /home/anacleto/Desktop/manuscript_Mpro/naturecomm/supplementary_file_S2/6-chemical-library/molecular_docking/3D_ligand_structure/1218.pdb
REMARK  1 active torsions:
REMARK  status: ('A' for Active; 'I' for Inactive)
REMARK    1  A    between atoms: C4_5  and  C5_6
REMARK                            x       y       z     vdW  Elec       q    Type
REMARK                         _______ _______ _______ _____ _____    ______ ____
ROOT
ATOM      1  C5  UNL     1      20.710   6.866  11.595  0.00  0.00    +0.000 C 
ATOM      2  C6  UNL     1      20.075   7.333  12.674  0.00  0.00    +0.000 C 
ATOM      3  C7  UNL     1      18.675   7.682  13.002  0.00  0.00    +0.000 C 
ATOM      4  O2  UNL     1      17.667   7.600  12.332  0.00  0.00    +0.000 OA
ATOM      5  N1  UNL     1      18.774   8.111  14.320  0.00  0.00    +0.000 N 
ATOM      6  N2  UNL     1      20.039   8.054  14.870  0.00  0.00    +0.000 NA
ATOM      7  C8  UNL     1      20.804   7.603  13.923  0.00  0.00    +0.000 C 
ATOM      8  H5  UNL     1      17.980   8.414  14.872  0.00  0.00    +0.000 HD
ENDROOT
BRANCH   1  13
ATOM      9  O1  UNL     1      19.565   5.407   9.956  0.00  0.00    +0.000 OA
ATOM     10  C1  UNL     1      19.046   5.535   8.713  0.00  0.00    +0.000 A 
ATOM     11  C2  UNL     1      19.194   6.821   8.266  0.00  0.00    +0.000 A 
ATOM     12  C3  UNL     1      19.854   7.516   9.308  0.00  0.00    +0.000 A 
ATOM     13  C4  UNL     1      20.091   6.615  10.342  0.00  0.00    +0.000 A 
ENDBRANCH   1  13
TORSDOF 1
ENDMDL
MODEL 6
REMARK VINA RESULT:    -4.110      1.707      2.209
REMARK INTER + INTRA:          -4.563
REMARK INTER:                  -4.340
REMARK INTRA:                  -0.223
REMARK UNBOUND:                -0.213
REMARK  Name = /home/anacleto/Desktop/manuscript_Mpro/naturecomm/supplementary_file_S2/6-chemical-library/molecular_docking/3D_ligand_structure/1218.pdb
REMARK  1 active torsions:
REMARK  status: ('A' for Active; 'I' for Inactive)
REMARK    1  A    between atoms: C4_5  and  C5_6
REMARK                            x       y       z     vdW  Elec       q    Type
REMARK                         _______ _______ _______ _____ _____    ______ ____
ROOT
ATOM      1  C5  UNL     1      14.616  13.677  -4.412  0.00  0.00    +0.000 C 
ATOM      2  C6  UNL     1      14.291  12.419  -4.728  0.00  0.00    +0.000 C 
ATOM      3  C7  UNL     1      14.617  11.081  -4.188  0.00  0.00    +0.000 C 
ATOM      4  O2  UNL     1      15.291  10.762  -3.232  0.00  0.00    +0.000 OA
ATOM      5  N1  UNL     1      13.918  10.236  -5.042  0.00  0.00    +0.000 N 
ATOM      6  N2  UNL     1      13.178  10.862  -6.024  0.00  0.00    +0.000 NA
ATOM      7  C8  UNL     1      13.387  12.132  -5.853  0.00  0.00    +0.000 C 
ATOM      8  H5  UNL     1      13.906   9.228  -4.945  0.00  0.00    +0.000 HD
ENDROOT
BRANCH   1  13
ATOM      9  O1  UNL     1      15.152  14.203  -2.053  0.00  0.00    +0.000 OA
ATOM     10  C1  UNL     1      16.253  14.533  -1.340  0.00  0.00    +0.000 A 
ATOM     11  C2  UNL     1      17.354  14.570  -2.155  0.00  0.00    +0.000 A 
ATOM     12  C3  UNL     1      16.883  14.247  -3.450  0.00  0.00    +0.000 A 
ATOM     13  C4  UNL     1      15.509  14.039  -3.369  0.00  0.00    +0.000 A 
ENDBRANCH   1  13
TORSDOF 1
ENDMDL
MODEL 7
REMARK VINA RESULT:    -4.080      2.813      4.855
REMARK INTER + INTRA:          -4.532
REMARK INTER:                  -4.320
REMARK INTRA:                  -0.213
REMARK UNBOUND:                -0.213
REMARK  Name = /home/anacleto/Desktop/manuscript_Mpro/naturecomm/supplementary_file_S2/6-chemical-library/molecular_docking/3D_ligand_structure/1218.pdb
REMARK  1 active torsions:
REMARK  status: ('A' for Active; 'I' for Inactive)
REMARK    1  A    between atoms: C4_5  and  C5_6
REMARK                            x       y       z     vdW  Elec       q    Type
REMARK                         _______ _______ _______ _____ _____    ______ ____
ROOT
ATOM      1  C5  UNL     1      14.769  13.388  -4.563  0.00  0.00    +0.000 C 
ATOM      2  C6  UNL     1      15.346  13.076  -3.398  0.00  0.00    +0.000 C 
ATOM      3  C7  UNL     1      15.737  11.821  -2.721  0.00  0.00    +0.000 C 
ATOM      4  O2  UNL     1      15.654  10.668  -3.091  0.00  0.00    +0.000 OA
ATOM      5  N1  UNL     1      16.278  12.281  -1.526  0.00  0.00    +0.000 N 
ATOM      6  N2  UNL     1      16.302  13.653  -1.374  0.00  0.00    +0.000 NA
ATOM      7  C8  UNL     1      15.763  14.127  -2.456  0.00  0.00    +0.000 C 
ATOM      8  H5  UNL     1      16.668  11.673  -0.817  0.00  0.00    +0.000 HD
ENDROOT
BRANCH   1  13
ATOM      9  O1  UNL     1      13.131  11.732  -5.399  0.00  0.00    +0.000 OA
ATOM     10  C1  UNL     1      12.999  10.933  -6.483  0.00  0.00    +0.000 A 
ATOM     11  C2  UNL     1      14.056  11.110  -7.336  0.00  0.00    +0.000 A 
ATOM     12  C3  UNL     1      14.887  12.078  -6.721  0.00  0.00    +0.000 A 
ATOM     13  C4  UNL     1      14.303  12.438  -5.510  0.00  0.00    +0.000 A 
ENDBRANCH   1  13
TORSDOF 1
ENDMDL
MODEL 8
REMARK VINA RESULT:    -3.989     15.380     16.951
REMARK INTER + INTRA:          -4.436
REMARK INTER:                  -4.222
REMARK INTRA:                  -0.213
REMARK UNBOUND:                -0.213
REMARK  Name = /home/anacleto/Desktop/manuscript_Mpro/naturecomm/supplementary_file_S2/6-chemical-library/molecular_docking/3D_ligand_structure/1218.pdb
REMARK  1 active torsions:
REMARK  status: ('A' for Active; 'I' for Inactive)
REMARK    1  A    between atoms: C4_5  and  C5_6
REMARK                            x       y       z     vdW  Elec       q    Type
REMARK                         _______ _______ _______ _____ _____    ______ ____
ROOT
ATOM      1  C5  UNL     1      19.079   7.413  11.489  0.00  0.00    +0.000 C 
ATOM      2  C6  UNL     1      18.302   6.931  12.464  0.00  0.00    +0.000 C 
ATOM      3  C7  UNL     1      17.573   5.666  12.699  0.00  0.00    +0.000 C 
ATOM      4  O2  UNL     1      17.514   4.656  12.030  0.00  0.00    +0.000 OA
ATOM      5  N1  UNL     1      16.973   5.891  13.933  0.00  0.00    +0.000 N 
ATOM      6  N2  UNL     1      17.246   7.114  14.512  0.00  0.00    +0.000 NA
ATOM      7  C8  UNL     1      18.019   7.728  13.668  0.00  0.00    +0.000 C 
ATOM      8  H5  UNL     1      16.400   5.206  14.410  0.00  0.00    +0.000 HD
ENDROOT
BRANCH   1  13
ATOM      9  O1  UNL     1      20.149   5.601  10.186  0.00  0.00    +0.000 OA
ATOM     10  C1  UNL     1      20.201   5.213   8.891  0.00  0.00    +0.000 A 
ATOM     11  C2  UNL     1      19.448   6.052   8.113  0.00  0.00    +0.000 A 
ATOM     12  C3  UNL     1      18.910   7.016   8.999  0.00  0.00    +0.000 A 
ATOM     13  C4  UNL     1      19.372   6.729  10.280  0.00  0.00    +0.000 A 
ENDBRANCH   1  13
TORSDOF 1
ENDMDL
MODEL 9
REMARK VINA RESULT:    -3.966      4.117      5.232
REMARK INTER + INTRA:          -4.412
REMARK INTER:                  -4.191
REMARK INTRA:                  -0.221
REMARK UNBOUND:                -0.213
REMARK  Name = /home/anacleto/Desktop/manuscript_Mpro/naturecomm/supplementary_file_S2/6-chemical-library/molecular_docking/3D_ligand_structure/1218.pdb
REMARK  1 active torsions:
REMARK  status: ('A' for Active; 'I' for Inactive)
REMARK    1  A    between atoms: C4_5  and  C5_6
REMARK                            x       y       z     vdW  Elec       q    Type
REMARK                         _______ _______ _______ _____ _____    ______ ____
ROOT
ATOM      1  C5  UNL     1      15.323  15.526  -1.121  0.00  0.00    +0.000 C 
ATOM      2  C6  UNL     1      15.700  14.477  -1.858  0.00  0.00    +0.000 C 
ATOM      3  C7  UNL     1      15.155  13.771  -3.038  0.00  0.00    +0.000 C 
ATOM      4  O2  UNL     1      14.169  13.999  -3.705  0.00  0.00    +0.000 OA
ATOM      5  N1  UNL     1      16.091  12.762  -3.241  0.00  0.00    +0.000 N 
ATOM      6  N2  UNL     1      17.158  12.756  -2.365  0.00  0.00    +0.000 NA
ATOM      7  C8  UNL     1      16.943  13.749  -1.556  0.00  0.00    +0.000 C 
ATOM      8  H5  UNL     1      16.034  12.089  -3.995  0.00  0.00    +0.000 HD
ENDROOT
BRANCH   1  13
ATOM      9  O1  UNL     1      13.999  17.352  -2.140  0.00  0.00    +0.000 OA
ATOM     10  C1  UNL     1      12.719  17.788  -2.098  0.00  0.00    +0.000 A 
ATOM     11  C2  UNL     1      11.971  16.986  -1.275  0.00  0.00    +0.000 A 
ATOM     12  C3  UNL     1      12.864  16.004  -0.783  0.00  0.00    +0.000 A 
ATOM     13  C4  UNL     1      14.123  16.259  -1.318  0.00  0.00    +0.000 A 
ENDBRANCH   1  13
TORSDOF 1
ENDMDL
