MODEL 1
REMARK VINA RESULT:    -5.008      0.000      0.000
REMARK INTER + INTRA:          -5.976
REMARK INTER:                  -5.614
REMARK INTRA:                  -0.362
REMARK UNBOUND:                -0.383
REMARK  Name = /home/anacleto/Desktop/manuscript_Mpro/naturecomm/supplementary_file_S2/6-chemical-library/molecular_docking/3D_ligand_structure/1122.pdb
REMARK  2 active torsions:
REMARK  status: ('A' for Active; 'I' for Inactive)
REMARK    1  A    between atoms: C6_6  and  C7_7
REMARK    2  A    between atoms: C7_7  and  C8_8
REMARK                            x       y       z     vdW  Elec       q    Type
REMARK                         _______ _______ _______ _____ _____    ______ ____
ROOT
ATOM      1  C7  UNL     1      18.138   4.487   9.498  0.00  0.00    +0.000 C 
ENDROOT
BRANCH   1   7
ATOM      2  C1  UNL     1      20.607   5.083   9.745  0.00  0.00    +0.000 C 
ATOM      3  C2  UNL     1      21.654   6.071   9.247  0.00  0.00    +0.000 C 
ATOM      4  C3  UNL     1      21.086   7.487   9.142  0.00  0.00    +0.000 C 
ATOM      5  C4  UNL     1      19.585   7.518   8.846  0.00  0.00    +0.000 C 
ATOM      6  C5  UNL     1      19.144   6.306   8.036  0.00  0.00    +0.000 C 
ATOM      7  C6  UNL     1      19.411   4.976   8.774  0.00  0.00    +0.000 C 
ENDBRANCH   1   7
BRANCH   1   8
ATOM      8  C8  UNL     1      17.609   3.171   8.977  0.00  0.00    +0.000 A 
ATOM      9  C9  UNL     1      16.518   3.140   8.099  0.00  0.00    +0.000 A 
ATOM     10  C10 UNL     1      16.026   1.923   7.625  0.00  0.00    +0.000 A 
ATOM     11  C11 UNL     1      16.620   0.727   8.022  0.00  0.00    +0.000 A 
ATOM     12  C12 UNL     1      17.707   0.746   8.893  0.00  0.00    +0.000 A 
ATOM     13  C13 UNL     1      18.199   1.961   9.370  0.00  0.00    +0.000 A 
ENDBRANCH   1   8
TORSDOF 2
ENDMDL
MODEL 2
REMARK VINA RESULT:    -4.925      1.388      5.749
REMARK INTER + INTRA:          -5.883
REMARK INTER:                  -5.522
REMARK INTRA:                  -0.361
REMARK UNBOUND:                -0.383
REMARK  Name = /home/anacleto/Desktop/manuscript_Mpro/naturecomm/supplementary_file_S2/6-chemical-library/molecular_docking/3D_ligand_structure/1122.pdb
REMARK  2 active torsions:
REMARK  status: ('A' for Active; 'I' for Inactive)
REMARK    1  A    between atoms: C6_6  and  C7_7
REMARK    2  A    between atoms: C7_7  and  C8_8
REMARK                            x       y       z     vdW  Elec       q    Type
REMARK                         _______ _______ _______ _____ _____    ______ ____
ROOT
ATOM      1  C7  UNL     1      18.152   3.543   9.124  0.00  0.00    +0.000 C 
ENDROOT
BRANCH   1   7
ATOM      2  C1  UNL     1      15.960   2.700  10.120  0.00  0.00    +0.000 C 
ATOM      3  C2  UNL     1      14.612   2.113   9.719  0.00  0.00    +0.000 C 
ATOM      4  C3  UNL     1      14.756   1.095   8.586  0.00  0.00    +0.000 C 
ATOM      5  C4  UNL     1      15.940   1.380   7.662  0.00  0.00    +0.000 C 
ATOM      6  C5  UNL     1      16.248   2.870   7.581  0.00  0.00    +0.000 C 
ATOM      7  C6  UNL     1      16.619   3.470   8.955  0.00  0.00    +0.000 C 
ENDBRANCH   1   7
BRANCH   1   8
ATOM      8  C8  UNL     1      18.676   4.947   9.319  0.00  0.00    +0.000 A 
ATOM      9  C9  UNL     1      19.021   5.738   8.215  0.00  0.00    +0.000 A 
ATOM     10  C10 UNL     1      19.512   7.031   8.397  0.00  0.00    +0.000 A 
ATOM     11  C11 UNL     1      19.661   7.548   9.683  0.00  0.00    +0.000 A 
ATOM     12  C12 UNL     1      19.320   6.771  10.788  0.00  0.00    +0.000 A 
ATOM     13  C13 UNL     1      18.831   5.477  10.608  0.00  0.00    +0.000 A 
ENDBRANCH   1   8
TORSDOF 2
ENDMDL
MODEL 3
REMARK VINA RESULT:    -4.674      1.264      2.012
REMARK INTER + INTRA:          -5.603
REMARK INTER:                  -5.237
REMARK INTRA:                  -0.367
REMARK UNBOUND:                -0.383
REMARK  Name = /home/anacleto/Desktop/manuscript_Mpro/naturecomm/supplementary_file_S2/6-chemical-library/molecular_docking/3D_ligand_structure/1122.pdb
REMARK  2 active torsions:
REMARK  status: ('A' for Active; 'I' for Inactive)
REMARK    1  A    between atoms: C6_6  and  C7_7
REMARK    2  A    between atoms: C7_7  and  C8_8
REMARK                            x       y       z     vdW  Elec       q    Type
REMARK                         _______ _______ _______ _____ _____    ______ ____
ROOT
ATOM      1  C7  UNL     1      18.804   3.948   9.168  0.00  0.00    +0.000 C 
ENDROOT
BRANCH   1   7
ATOM      2  C1  UNL     1      19.124   6.295   8.221  0.00  0.00    +0.000 C 
ATOM      3  C2  UNL     1      19.733   7.650   8.562  0.00  0.00    +0.000 C 
ATOM      4  C3  UNL     1      21.085   7.499   9.261  0.00  0.00    +0.000 C 
ATOM      5  C4  UNL     1      21.205   6.211  10.078  0.00  0.00    +0.000 C 
ATOM      6  C5  UNL     1      19.854   5.755  10.615  0.00  0.00    +0.000 C 
ATOM      7  C6  UNL     1      18.842   5.459   9.487  0.00  0.00    +0.000 C 
ENDBRANCH   1   7
BRANCH   1   8
ATOM      8  C8  UNL     1      17.423   3.342   9.257  0.00  0.00    +0.000 A 
ATOM      9  C9  UNL     1      16.769   2.887   8.105  0.00  0.00    +0.000 A 
ATOM     10  C10 UNL     1      15.491   2.334   8.188  0.00  0.00    +0.000 A 
ATOM     11  C11 UNL     1      14.854   2.229   9.423  0.00  0.00    +0.000 A 
ATOM     12  C12 UNL     1      15.495   2.676  10.576  0.00  0.00    +0.000 A 
ATOM     13  C13 UNL     1      16.773   3.231  10.495  0.00  0.00    +0.000 A 
ENDBRANCH   1   8
TORSDOF 2
ENDMDL
MODEL 4
REMARK VINA RESULT:    -4.351     14.673     16.241
REMARK INTER + INTRA:          -5.243
REMARK INTER:                  -4.823
REMARK INTRA:                  -0.419
REMARK UNBOUND:                -0.383
REMARK  Name = /home/anacleto/Desktop/manuscript_Mpro/naturecomm/supplementary_file_S2/6-chemical-library/molecular_docking/3D_ligand_structure/1122.pdb
REMARK  2 active torsions:
REMARK  status: ('A' for Active; 'I' for Inactive)
REMARK    1  A    between atoms: C6_6  and  C7_7
REMARK    2  A    between atoms: C7_7  and  C8_8
REMARK                            x       y       z     vdW  Elec       q    Type
REMARK                         _______ _______ _______ _____ _____    ______ ____
ROOT
ATOM      1  C7  UNL     1      16.007  12.940  -3.970  0.00  0.00    +0.000 C 
ENDROOT
BRANCH   1   7
ATOM      2  C1  UNL     1      14.248  14.544  -3.054  0.00  0.00    +0.000 C 
ATOM      3  C2  UNL     1      13.916  15.379  -1.823  0.00  0.00    +0.000 C 
ATOM      4  C3  UNL     1      15.162  16.052  -1.246  0.00  0.00    +0.000 C 
ATOM      5  C4  UNL     1      16.448  15.262  -1.496  0.00  0.00    +0.000 C 
ATOM      6  C5  UNL     1      16.185  13.763  -1.572  0.00  0.00    +0.000 C 
ATOM      7  C6  UNL     1      15.221  13.393  -2.721  0.00  0.00    +0.000 C 
ENDBRANCH   1   7
BRANCH   1   8
ATOM      8  C8  UNL     1      15.173  12.168  -4.966  0.00  0.00    +0.000 A 
ATOM      9  C9  UNL     1      15.271  12.437  -6.337  0.00  0.00    +0.000 A 
ATOM     10  C10 UNL     1      14.495  11.728  -7.255  0.00  0.00    +0.000 A 
ATOM     11  C11 UNL     1      13.615  10.743  -6.812  0.00  0.00    +0.000 A 
ATOM     12  C12 UNL     1      13.509  10.466  -5.451  0.00  0.00    +0.000 A 
ATOM     13  C13 UNL     1      14.284  11.175  -4.532  0.00  0.00    +0.000 A 
ENDBRANCH   1   8
TORSDOF 2
ENDMDL
MODEL 5
REMARK VINA RESULT:    -4.339     13.731     15.273
REMARK INTER + INTRA:          -5.229
REMARK INTER:                  -4.836
REMARK INTRA:                  -0.392
REMARK UNBOUND:                -0.383
REMARK  Name = /home/anacleto/Desktop/manuscript_Mpro/naturecomm/supplementary_file_S2/6-chemical-library/molecular_docking/3D_ligand_structure/1122.pdb
REMARK  2 active torsions:
REMARK  status: ('A' for Active; 'I' for Inactive)
REMARK    1  A    between atoms: C6_6  and  C7_7
REMARK    2  A    between atoms: C7_7  and  C8_8
REMARK                            x       y       z     vdW  Elec       q    Type
REMARK                         _______ _______ _______ _____ _____    ______ ____
ROOT
ATOM      1  C7  UNL     1      16.921  12.013  -4.255  0.00  0.00    +0.000 C 
ENDROOT
BRANCH   1   7
ATOM      2  C1  UNL     1      16.484  13.548  -2.264  0.00  0.00    +0.000 C 
ATOM      3  C2  UNL     1      16.837  13.727  -0.793  0.00  0.00    +0.000 C 
ATOM      4  C3  UNL     1      18.312  13.421  -0.527  0.00  0.00    +0.000 C 
ATOM      5  C4  UNL     1      18.900  12.387  -1.488  0.00  0.00    +0.000 C 
ATOM      6  C5  UNL     1      17.845  11.398  -1.968  0.00  0.00    +0.000 C 
ATOM      7  C6  UNL     1      16.693  12.090  -2.730  0.00  0.00    +0.000 C 
ENDBRANCH   1   7
BRANCH   1   8
ATOM      8  C8  UNL     1      15.697  11.592  -5.033  0.00  0.00    +0.000 A 
ATOM      9  C9  UNL     1      15.629  11.792  -6.418  0.00  0.00    +0.000 A 
ATOM     10  C10 UNL     1      14.494  11.409  -7.133  0.00  0.00    +0.000 A 
ATOM     11  C11 UNL     1      13.416  10.822  -6.473  0.00  0.00    +0.000 A 
ATOM     12  C12 UNL     1      13.473  10.617  -5.096  0.00  0.00    +0.000 A 
ATOM     13  C13 UNL     1      14.607  11.000  -4.379  0.00  0.00    +0.000 A 
ENDBRANCH   1   8
TORSDOF 2
ENDMDL
MODEL 6
REMARK VINA RESULT:    -4.329     14.240     16.390
REMARK INTER + INTRA:          -5.217
REMARK INTER:                  -4.858
REMARK INTRA:                  -0.359
REMARK UNBOUND:                -0.383
REMARK  Name = /home/anacleto/Desktop/manuscript_Mpro/naturecomm/supplementary_file_S2/6-chemical-library/molecular_docking/3D_ligand_structure/1122.pdb
REMARK  2 active torsions:
REMARK  status: ('A' for Active; 'I' for Inactive)
REMARK    1  A    between atoms: C6_6  and  C7_7
REMARK    2  A    between atoms: C7_7  and  C8_8
REMARK                            x       y       z     vdW  Elec       q    Type
REMARK                         _______ _______ _______ _____ _____    ______ ____
ROOT
ATOM      1  C7  UNL     1      14.545  13.316  -3.790  0.00  0.00    +0.000 C 
ENDROOT
BRANCH   1   7
ATOM      2  C1  UNL     1      15.248  12.771  -6.181  0.00  0.00    +0.000 C 
ATOM      3  C2  UNL     1      15.195  11.656  -7.218  0.00  0.00    +0.000 C 
ATOM      4  C3  UNL     1      13.841  10.945  -7.209  0.00  0.00    +0.000 C 
ATOM      5  C4  UNL     1      13.161  10.952  -5.840  0.00  0.00    +0.000 C 
ATOM      6  C5  UNL     1      14.176  10.974  -4.705  0.00  0.00    +0.000 C 
ATOM      7  C6  UNL     1      15.078  12.227  -4.746  0.00  0.00    +0.000 C 
ENDBRANCH   1   7
BRANCH   1   8
ATOM      8  C8  UNL     1      15.424  13.550  -2.583  0.00  0.00    +0.000 A 
ATOM      9  C9  UNL     1      16.142  12.493  -2.010  0.00  0.00    +0.000 A 
ATOM     10  C10 UNL     1      16.948  12.709  -0.891  0.00  0.00    +0.000 A 
ATOM     11  C11 UNL     1      17.045  13.984  -0.336  0.00  0.00    +0.000 A 
ATOM     12  C12 UNL     1      16.336  15.043  -0.899  0.00  0.00    +0.000 A 
ATOM     13  C13 UNL     1      15.529  14.828  -2.017  0.00  0.00    +0.000 A 
ENDBRANCH   1   8
TORSDOF 2
ENDMDL
MODEL 7
REMARK VINA RESULT:    -4.256     17.175     18.656
REMARK INTER + INTRA:          -5.137
REMARK INTER:                  -4.757
REMARK INTRA:                  -0.379
REMARK UNBOUND:                -0.383
REMARK  Name = /home/anacleto/Desktop/manuscript_Mpro/naturecomm/supplementary_file_S2/6-chemical-library/molecular_docking/3D_ligand_structure/1122.pdb
REMARK  2 active torsions:
REMARK  status: ('A' for Active; 'I' for Inactive)
REMARK    1  A    between atoms: C6_6  and  C7_7
REMARK    2  A    between atoms: C7_7  and  C8_8
REMARK                            x       y       z     vdW  Elec       q    Type
REMARK                         _______ _______ _______ _____ _____    ______ ____
ROOT
ATOM      1  C7  UNL     1      16.817  11.738  -7.682  0.00  0.00    +0.000 C 
ENDROOT
BRANCH   1   7
ATOM      2  C1  UNL     1      16.087  14.171  -7.920  0.00  0.00    +0.000 C 
ATOM      3  C2  UNL     1      16.560  15.514  -8.463  0.00  0.00    +0.000 C 
ATOM      4  C3  UNL     1      17.275  15.357  -9.806  0.00  0.00    +0.000 C 
ATOM      5  C4  UNL     1      17.979  14.008  -9.964  0.00  0.00    +0.000 C 
ATOM      6  C5  UNL     1      18.442  13.452  -8.624  0.00  0.00    +0.000 C 
ATOM      7  C6  UNL     1      17.268  13.215  -7.648  0.00  0.00    +0.000 C 
ENDBRANCH   1   7
BRANCH   1   8
ATOM      8  C8  UNL     1      15.649  11.438  -6.773  0.00  0.00    +0.000 A 
ATOM      9  C9  UNL     1      15.821  11.392  -5.384  0.00  0.00    +0.000 A 
ATOM     10  C10 UNL     1      14.741  11.106  -4.546  0.00  0.00    +0.000 A 
ATOM     11  C11 UNL     1      13.480  10.866  -5.089  0.00  0.00    +0.000 A 
ATOM     12  C12 UNL     1      13.298  10.910  -6.469  0.00  0.00    +0.000 A 
ATOM     13  C13 UNL     1      14.376  11.194  -7.308  0.00  0.00    +0.000 A 
ENDBRANCH   1   8
TORSDOF 2
ENDMDL
MODEL 8
REMARK VINA RESULT:    -4.145      2.817      6.587
REMARK INTER + INTRA:          -5.012
REMARK INTER:                  -4.745
REMARK INTRA:                  -0.268
REMARK UNBOUND:                -0.383
REMARK  Name = /home/anacleto/Desktop/manuscript_Mpro/naturecomm/supplementary_file_S2/6-chemical-library/molecular_docking/3D_ligand_structure/1122.pdb
REMARK  2 active torsions:
REMARK  status: ('A' for Active; 'I' for Inactive)
REMARK    1  A    between atoms: C6_6  and  C7_7
REMARK    2  A    between atoms: C7_7  and  C8_8
REMARK                            x       y       z     vdW  Elec       q    Type
REMARK                         _______ _______ _______ _____ _____    ______ ____
ROOT
ATOM      1  C7  UNL     1      15.515   0.158   7.392  0.00  0.00    +0.000 C 
ENDROOT
BRANCH   1   7
ATOM      2  C1  UNL     1      13.474   1.221   8.495  0.00  0.00    +0.000 C 
ATOM      3  C2  UNL     1      12.514   1.035   9.663  0.00  0.00    +0.000 C 
ATOM      4  C3  UNL     1      13.247   0.581  10.927  0.00  0.00    +0.000 C 
ATOM      5  C4  UNL     1      14.503  -0.241  10.637  0.00  0.00    +0.000 C 
ATOM      6  C5  UNL     1      14.379  -1.023   9.335  0.00  0.00    +0.000 C 
ATOM      7  C6  UNL     1      14.174  -0.101   8.113  0.00  0.00    +0.000 C 
ENDBRANCH   1   7
BRANCH   1   8
ATOM      8  C8  UNL     1      16.352   1.239   8.036  0.00  0.00    +0.000 A 
ATOM      9  C9  UNL     1      16.146   2.586   7.715  0.00  0.00    +0.000 A 
ATOM     10  C10 UNL     1      16.925   3.582   8.305  0.00  0.00    +0.000 A 
ATOM     11  C11 UNL     1      17.917   3.241   9.222  0.00  0.00    +0.000 A 
ATOM     12  C12 UNL     1      18.131   1.904   9.550  0.00  0.00    +0.000 A 
ATOM     13  C13 UNL     1      17.353   0.907   8.960  0.00  0.00    +0.000 A 
ENDBRANCH   1   8
TORSDOF 2
ENDMDL
MODEL 9
REMARK VINA RESULT:    -4.038     13.921     16.109
REMARK INTER + INTRA:          -4.893
REMARK INTER:                  -4.510
REMARK INTRA:                  -0.383
REMARK UNBOUND:                -0.383
REMARK  Name = /home/anacleto/Desktop/manuscript_Mpro/naturecomm/supplementary_file_S2/6-chemical-library/molecular_docking/3D_ligand_structure/1122.pdb
REMARK  2 active torsions:
REMARK  status: ('A' for Active; 'I' for Inactive)
REMARK    1  A    between atoms: C6_6  and  C7_7
REMARK    2  A    between atoms: C7_7  and  C8_8
REMARK                            x       y       z     vdW  Elec       q    Type
REMARK                         _______ _______ _______ _____ _____    ______ ____
ROOT
ATOM      1  C7  UNL     1      16.719  12.513  -4.175  0.00  0.00    +0.000 C 
ENDROOT
BRANCH   1   7
ATOM      2  C1  UNL     1      14.702  10.958  -4.327  0.00  0.00    +0.000 C 
ATOM      3  C2  UNL     1      13.423  10.733  -5.124  0.00  0.00    +0.000 C 
ATOM      4  C3  UNL     1      13.643  10.970  -6.619  0.00  0.00    +0.000 C 
ATOM      5  C4  UNL     1      14.737  11.997  -6.916  0.00  0.00    +0.000 C 
ATOM      6  C5  UNL     1      14.847  13.040  -5.811  0.00  0.00    +0.000 C 
ATOM      7  C6  UNL     1      15.202  12.414  -4.445  0.00  0.00    +0.000 C 
ENDBRANCH   1   7
BRANCH   1   8
ATOM      8  C8  UNL     1      17.060  13.080  -2.817  0.00  0.00    +0.000 A 
ATOM      9  C9  UNL     1      16.196  13.983  -2.185  0.00  0.00    +0.000 A 
ATOM     10  C10 UNL     1      16.517  14.512  -0.933  0.00  0.00    +0.000 A 
ATOM     11  C11 UNL     1      17.703  14.142  -0.302  0.00  0.00    +0.000 A 
ATOM     12  C12 UNL     1      18.570  13.244  -0.921  0.00  0.00    +0.000 A 
ATOM     13  C13 UNL     1      18.251  12.716  -2.173  0.00  0.00    +0.000 A 
ENDBRANCH   1   8
TORSDOF 2
ENDMDL
