MODEL 1
REMARK VINA RESULT:    -5.365      0.000      0.000
REMARK INTER + INTRA:          -5.365
REMARK INTER:                  -5.365
REMARK INTRA:                   0.000
REMARK UNBOUND:                 0.000
REMARK  Name = /home/anacleto/Desktop/manuscript_Mpro/naturecomm/supplementary_file_S2/6-chemical-library/molecular_docking/3D_ligand_structure/1451.pdb
REMARK  0 active torsions:
REMARK  status: ('A' for Active; 'I' for Inactive)
REMARK                            x       y       z     vdW  Elec       q    Type
REMARK                         _______ _______ _______ _____ _____    ______ ____
ROOT
ATOM      1  C1  UNL     1      13.485  10.618  -5.089  0.00  0.00    +0.000 A 
ATOM      2  C2  UNL     1      13.268  10.706  -6.468  0.00  0.00    +0.000 A 
ATOM      3  C3  UNL     1      14.271  11.192  -7.308  0.00  0.00    +0.000 A 
ATOM      4  C4  UNL     1      15.498  11.586  -6.775  0.00  0.00    +0.000 A 
ATOM      5  C5  UNL     1      15.713  11.501  -5.400  0.00  0.00    +0.000 A 
ATOM      6  C6  UNL     1      14.700  11.035  -4.544  0.00  0.00    +0.000 A 
ATOM      7  O1  UNL     1      16.952  11.899  -4.932  0.00  0.00    +0.000 OA
ATOM      8  C7  UNL     1      17.163  11.855  -3.566  0.00  0.00    +0.000 A 
ATOM      9  C8  UNL     1      16.184  11.399  -2.667  0.00  0.00    +0.000 A 
ATOM     10  N1  UNL     1      14.975  10.902  -3.175  0.00  0.00    +0.000 N 
ATOM     11  C9  UNL     1      16.478  11.351  -1.304  0.00  0.00    +0.000 A 
ATOM     12  C10 UNL     1      17.720  11.795  -0.839  0.00  0.00    +0.000 A 
ATOM     13  C11 UNL     1      18.678  12.270  -1.737  0.00  0.00    +0.000 A 
ATOM     14  C12 UNL     1      18.403  12.297  -3.104  0.00  0.00    +0.000 A 
ATOM     15  H5  UNL     1      14.184  10.887  -2.548  0.00  0.00    +0.000 HD
ENDROOT
TORSDOF 0
ENDMDL
MODEL 2
REMARK VINA RESULT:    -5.333      0.090      4.812
REMARK INTER + INTRA:          -5.333
REMARK INTER:                  -5.333
REMARK INTRA:                   0.000
REMARK UNBOUND:                 0.000
REMARK  Name = /home/anacleto/Desktop/manuscript_Mpro/naturecomm/supplementary_file_S2/6-chemical-library/molecular_docking/3D_ligand_structure/1451.pdb
REMARK  0 active torsions:
REMARK  status: ('A' for Active; 'I' for Inactive)
REMARK                            x       y       z     vdW  Elec       q    Type
REMARK                         _______ _______ _______ _____ _____    ______ ____
ROOT
ATOM      1  C1  UNL     1      16.497  11.284  -1.368  0.00  0.00    +0.000 A 
ATOM      2  C2  UNL     1      17.736  11.734  -0.902  0.00  0.00    +0.000 A 
ATOM      3  C3  UNL     1      18.670  12.269  -1.791  0.00  0.00    +0.000 A 
ATOM      4  C4  UNL     1      18.368  12.363  -3.149  0.00  0.00    +0.000 A 
ATOM      5  C5  UNL     1      17.134  11.911  -3.614  0.00  0.00    +0.000 A 
ATOM      6  C6  UNL     1      16.196  11.349  -2.730  0.00  0.00    +0.000 A 
ATOM      7  O1  UNL     1      16.888  12.037  -4.969  0.00  0.00    +0.000 OA
ATOM      8  C7  UNL     1      15.683  11.557  -5.448  0.00  0.00    +0.000 A 
ATOM      9  C8  UNL     1      14.713  10.987  -4.607  0.00  0.00    +0.000 A 
ATOM     10  N1  UNL     1      14.941  10.966  -3.223  0.00  0.00    +0.000 N 
ATOM     11  C9  UNL     1      13.505  10.554  -5.155  0.00  0.00    +0.000 A 
ATOM     12  C10 UNL     1      13.286  10.649  -6.532  0.00  0.00    +0.000 A 
ATOM     13  C11 UNL     1      14.265  11.195  -7.364  0.00  0.00    +0.000 A 
ATOM     14  C12 UNL     1      15.465  11.655  -6.823  0.00  0.00    +0.000 A 
ATOM     15  H5  UNL     1      14.421  10.291  -2.682  0.00  0.00    +0.000 HD
ENDROOT
TORSDOF 0
ENDMDL
MODEL 3
REMARK VINA RESULT:    -5.041      1.085      5.259
REMARK INTER + INTRA:          -5.041
REMARK INTER:                  -5.041
REMARK INTRA:                   0.000
REMARK UNBOUND:                 0.000
REMARK  Name = /home/anacleto/Desktop/manuscript_Mpro/naturecomm/supplementary_file_S2/6-chemical-library/molecular_docking/3D_ligand_structure/1451.pdb
REMARK  0 active torsions:
REMARK  status: ('A' for Active; 'I' for Inactive)
REMARK                            x       y       z     vdW  Elec       q    Type
REMARK                         _______ _______ _______ _____ _____    ______ ____
ROOT
ATOM      1  C1  UNL     1      18.292  12.272  -3.058  0.00  0.00    +0.000 A 
ATOM      2  C2  UNL     1      18.450  12.212  -1.670  0.00  0.00    +0.000 A 
ATOM      3  C3  UNL     1      17.413  11.741  -0.864  0.00  0.00    +0.000 A 
ATOM      4  C4  UNL     1      16.215  11.321  -1.441  0.00  0.00    +0.000 A 
ATOM      5  C5  UNL     1      16.057  11.384  -2.825  0.00  0.00    +0.000 A 
ATOM      6  C6  UNL     1      17.087  11.879  -3.643  0.00  0.00    +0.000 A 
ATOM      7  O1  UNL     1      14.850  10.946  -3.340  0.00  0.00    +0.000 OA
ATOM      8  C7  UNL     1      14.667  11.039  -4.707  0.00  0.00    +0.000 A 
ATOM      9  C8  UNL     1      15.665  11.527  -5.569  0.00  0.00    +0.000 A 
ATOM     10  N1  UNL     1      16.917  11.865  -5.035  0.00  0.00    +0.000 N 
ATOM     11  C9  UNL     1      15.422  11.562  -6.942  0.00  0.00    +0.000 A 
ATOM     12  C10 UNL     1      14.183  11.156  -7.446  0.00  0.00    +0.000 A 
ATOM     13  C11 UNL     1      13.189  10.695  -6.581  0.00  0.00    +0.000 A 
ATOM     14  C12 UNL     1      13.430  10.632  -5.209  0.00  0.00    +0.000 A 
ATOM     15  H5  UNL     1      17.490  12.497  -5.574  0.00  0.00    +0.000 HD
ENDROOT
TORSDOF 0
ENDMDL
MODEL 4
REMARK VINA RESULT:    -5.031      1.080      2.125
REMARK INTER + INTRA:          -5.031
REMARK INTER:                  -5.031
REMARK INTRA:                   0.000
REMARK UNBOUND:                 0.000
REMARK  Name = /home/anacleto/Desktop/manuscript_Mpro/naturecomm/supplementary_file_S2/6-chemical-library/molecular_docking/3D_ligand_structure/1451.pdb
REMARK  0 active torsions:
REMARK  status: ('A' for Active; 'I' for Inactive)
REMARK                            x       y       z     vdW  Elec       q    Type
REMARK                         _______ _______ _______ _____ _____    ______ ____
ROOT
ATOM      1  C1  UNL     1      15.438  11.712  -6.887  0.00  0.00    +0.000 A 
ATOM      2  C2  UNL     1      14.205  11.233  -7.341  0.00  0.00    +0.000 A 
ATOM      3  C3  UNL     1      13.289  10.684  -6.443  0.00  0.00    +0.000 A 
ATOM      4  C4  UNL     1      13.596  10.618  -5.085  0.00  0.00    +0.000 A 
ATOM      5  C5  UNL     1      14.827  11.093  -4.632  0.00  0.00    +0.000 A 
ATOM      6  C6  UNL     1      15.765  11.625  -5.533  0.00  0.00    +0.000 A 
ATOM      7  O1  UNL     1      15.071  11.008  -3.273  0.00  0.00    +0.000 OA
ATOM      8  C7  UNL     1      16.303  11.440  -2.818  0.00  0.00    +0.000 A 
ATOM      9  C8  UNL     1      17.276  11.979  -3.676  0.00  0.00    +0.000 A 
ATOM     10  N1  UNL     1      16.964  12.153  -5.033  0.00  0.00    +0.000 N 
ATOM     11  C9  UNL     1      18.485  12.427  -3.142  0.00  0.00    +0.000 A 
ATOM     12  C10 UNL     1      18.737  12.297  -1.773  0.00  0.00    +0.000 A 
ATOM     13  C11 UNL     1      17.774  11.738  -0.930  0.00  0.00    +0.000 A 
ATOM     14  C12 UNL     1      16.552  11.312  -1.451  0.00  0.00    +0.000 A 
ATOM     15  H5  UNL     1      17.738  12.224  -5.677  0.00  0.00    +0.000 HD
ENDROOT
TORSDOF 0
ENDMDL
MODEL 5
REMARK VINA RESULT:    -4.954     17.042     18.372
REMARK INTER + INTRA:          -4.954
REMARK INTER:                  -4.954
REMARK INTRA:                   0.000
REMARK UNBOUND:                 0.000
REMARK  Name = /home/anacleto/Desktop/manuscript_Mpro/naturecomm/supplementary_file_S2/6-chemical-library/molecular_docking/3D_ligand_structure/1451.pdb
REMARK  0 active torsions:
REMARK  status: ('A' for Active; 'I' for Inactive)
REMARK                            x       y       z     vdW  Elec       q    Type
REMARK                         _______ _______ _______ _____ _____    ______ ____
ROOT
ATOM      1  C1  UNL     1      26.593  14.654   8.323  0.00  0.00    +0.000 A 
ATOM      2  C2  UNL     1      27.901  14.172   8.213  0.00  0.00    +0.000 A 
ATOM      3  C3  UNL     1      28.592  13.745   9.347  0.00  0.00    +0.000 A 
ATOM      4  C4  UNL     1      27.978  13.791  10.598  0.00  0.00    +0.000 A 
ATOM      5  C5  UNL     1      26.674  14.275  10.709  0.00  0.00    +0.000 A 
ATOM      6  C6  UNL     1      25.979  14.730   9.575  0.00  0.00    +0.000 A 
ATOM      7  O1  UNL     1      26.115  14.289  11.974  0.00  0.00    +0.000 OA
ATOM      8  C7  UNL     1      24.838  14.803  12.102  0.00  0.00    +0.000 A 
ATOM      9  C8  UNL     1      24.100  15.270  11.001  0.00  0.00    +0.000 A 
ATOM     10  N1  UNL     1      24.648  15.147   9.715  0.00  0.00    +0.000 N 
ATOM     11  C9  UNL     1      22.803  15.744  11.200  0.00  0.00    +0.000 A 
ATOM     12  C10 UNL     1      22.265  15.792  12.489  0.00  0.00    +0.000 A 
ATOM     13  C11 UNL     1      23.013  15.348  13.581  0.00  0.00    +0.000 A 
ATOM     14  C12 UNL     1      24.301  14.848  13.389  0.00  0.00    +0.000 A 
ATOM     15  H5  UNL     1      24.280  15.756   8.999  0.00  0.00    +0.000 HD
ENDROOT
TORSDOF 0
ENDMDL
MODEL 6
REMARK VINA RESULT:    -4.952     14.650     17.237
REMARK INTER + INTRA:          -4.952
REMARK INTER:                  -4.952
REMARK INTRA:                   0.000
REMARK UNBOUND:                 0.000
REMARK  Name = /home/anacleto/Desktop/manuscript_Mpro/naturecomm/supplementary_file_S2/6-chemical-library/molecular_docking/3D_ligand_structure/1451.pdb
REMARK  0 active torsions:
REMARK  status: ('A' for Active; 'I' for Inactive)
REMARK                            x       y       z     vdW  Elec       q    Type
REMARK                         _______ _______ _______ _____ _____    ______ ____
ROOT
ATOM      1  C1  UNL     1      19.705   7.622   9.402  0.00  0.00    +0.000 A 
ATOM      2  C2  UNL     1      19.483   6.829   8.273  0.00  0.00    +0.000 A 
ATOM      3  C3  UNL     1      19.011   5.522   8.412  0.00  0.00    +0.000 A 
ATOM      4  C4  UNL     1      18.753   5.005   9.681  0.00  0.00    +0.000 A 
ATOM      5  C5  UNL     1      18.978   5.796  10.807  0.00  0.00    +0.000 A 
ATOM      6  C6  UNL     1      19.476   7.104  10.677  0.00  0.00    +0.000 A 
ATOM      7  O1  UNL     1      18.696   5.231  12.038  0.00  0.00    +0.000 OA
ATOM      8  C7  UNL     1      18.952   5.991  13.164  0.00  0.00    +0.000 A 
ATOM      9  C8  UNL     1      19.449   7.303  13.089  0.00  0.00    +0.000 A 
ATOM     10  N1  UNL     1      19.627   7.891  11.828  0.00  0.00    +0.000 N 
ATOM     11  C9  UNL     1      19.652   8.024  14.266  0.00  0.00    +0.000 A 
ATOM     12  C10 UNL     1      19.403   7.428  15.505  0.00  0.00    +0.000 A 
ATOM     13  C11 UNL     1      18.931   6.115  15.572  0.00  0.00    +0.000 A 
ATOM     14  C12 UNL     1      18.701   5.395  14.400  0.00  0.00    +0.000 A 
ATOM     15  H5  UNL     1      20.266   8.671  11.770  0.00  0.00    +0.000 HD
ENDROOT
TORSDOF 0
ENDMDL
MODEL 7
REMARK VINA RESULT:    -4.887     14.458     15.772
REMARK INTER + INTRA:          -4.887
REMARK INTER:                  -4.887
REMARK INTRA:                   0.000
REMARK UNBOUND:                 0.000
REMARK  Name = /home/anacleto/Desktop/manuscript_Mpro/naturecomm/supplementary_file_S2/6-chemical-library/molecular_docking/3D_ligand_structure/1451.pdb
REMARK  0 active torsions:
REMARK  status: ('A' for Active; 'I' for Inactive)
REMARK                            x       y       z     vdW  Elec       q    Type
REMARK                         _______ _______ _______ _____ _____    ______ ____
ROOT
ATOM      1  C1  UNL     1      16.459   2.679   7.887  0.00  0.00    +0.000 A 
ATOM      2  C2  UNL     1      15.720   1.646   8.473  0.00  0.00    +0.000 A 
ATOM      3  C3  UNL     1      15.745   1.459   9.856  0.00  0.00    +0.000 A 
ATOM      4  C4  UNL     1      16.503   2.308  10.662  0.00  0.00    +0.000 A 
ATOM      5  C5  UNL     1      17.243   3.336  10.077  0.00  0.00    +0.000 A 
ATOM      6  C6  UNL     1      17.243   3.516   8.683  0.00  0.00    +0.000 A 
ATOM      7  O1  UNL     1      17.969   4.149  10.928  0.00  0.00    +0.000 OA
ATOM      8  C7  UNL     1      18.736   5.148  10.357  0.00  0.00    +0.000 A 
ATOM      9  C8  UNL     1      18.771   5.370   8.970  0.00  0.00    +0.000 A 
ATOM     10  N1  UNL     1      17.945   4.600   8.138  0.00  0.00    +0.000 N 
ATOM     11  C9  UNL     1      19.543   6.418   8.467  0.00  0.00    +0.000 A 
ATOM     12  C10 UNL     1      20.305   7.207   9.333  0.00  0.00    +0.000 A 
ATOM     13  C11 UNL     1      20.283   6.964  10.708  0.00  0.00    +0.000 A 
ATOM     14  C12 UNL     1      19.495   5.936  11.224  0.00  0.00    +0.000 A 
ATOM     15  H5  UNL     1      18.206   4.536   7.165  0.00  0.00    +0.000 HD
ENDROOT
TORSDOF 0
ENDMDL
MODEL 8
REMARK VINA RESULT:    -4.882     14.969     17.310
REMARK INTER + INTRA:          -4.882
REMARK INTER:                  -4.882
REMARK INTRA:                   0.000
REMARK UNBOUND:                 0.000
REMARK  Name = /home/anacleto/Desktop/manuscript_Mpro/naturecomm/supplementary_file_S2/6-chemical-library/molecular_docking/3D_ligand_structure/1451.pdb
REMARK  0 active torsions:
REMARK  status: ('A' for Active; 'I' for Inactive)
REMARK                            x       y       z     vdW  Elec       q    Type
REMARK                         _______ _______ _______ _____ _____    ______ ____
ROOT
ATOM      1  C1  UNL     1      20.136   7.983  14.022  0.00  0.00    +0.000 A 
ATOM      2  C2  UNL     1      19.030   8.230  14.841  0.00  0.00    +0.000 A 
ATOM      3  C3  UNL     1      17.748   7.874  14.419  0.00  0.00    +0.000 A 
ATOM      4  C4  UNL     1      17.565   7.264  13.179  0.00  0.00    +0.000 A 
ATOM      5  C5  UNL     1      18.668   7.021  12.360  0.00  0.00    +0.000 A 
ATOM      6  C6  UNL     1      19.960   7.397  12.767  0.00  0.00    +0.000 A 
ATOM      7  O1  UNL     1      18.424   6.406  11.146  0.00  0.00    +0.000 OA
ATOM      8  C7  UNL     1      19.504   6.194  10.309  0.00  0.00    +0.000 A 
ATOM      9  C8  UNL     1      20.816   6.552  10.667  0.00  0.00    +0.000 A 
ATOM     10  N1  UNL     1      21.051   7.077  11.946  0.00  0.00    +0.000 N 
ATOM     11  C9  UNL     1      21.862   6.278   9.786  0.00  0.00    +0.000 A 
ATOM     12  C10 UNL     1      21.598   5.694   8.544  0.00  0.00    +0.000 A 
ATOM     13  C11 UNL     1      20.290   5.364   8.186  0.00  0.00    +0.000 A 
ATOM     14  C12 UNL     1      19.239   5.610   9.070  0.00  0.00    +0.000 A 
ATOM     15  H5  UNL     1      21.895   7.616  12.074  0.00  0.00    +0.000 HD
ENDROOT
TORSDOF 0
ENDMDL
MODEL 9
REMARK VINA RESULT:    -4.831     17.022     18.064
REMARK INTER + INTRA:          -4.831
REMARK INTER:                  -4.831
REMARK INTRA:                   0.000
REMARK UNBOUND:                 0.000
REMARK  Name = /home/anacleto/Desktop/manuscript_Mpro/naturecomm/supplementary_file_S2/6-chemical-library/molecular_docking/3D_ligand_structure/1451.pdb
REMARK  0 active torsions:
REMARK  status: ('A' for Active; 'I' for Inactive)
REMARK                            x       y       z     vdW  Elec       q    Type
REMARK                         _______ _______ _______ _____ _____    ______ ____
ROOT
ATOM      1  C1  UNL     1      26.566  14.767   8.348  0.00  0.00    +0.000 A 
ATOM      2  C2  UNL     1      27.726  15.285   7.764  0.00  0.00    +0.000 A 
ATOM      3  C3  UNL     1      28.194  16.548   8.128  0.00  0.00    +0.000 A 
ATOM      4  C4  UNL     1      27.509  17.298   9.084  0.00  0.00    +0.000 A 
ATOM      5  C5  UNL     1      26.350  16.782   9.664  0.00  0.00    +0.000 A 
ATOM      6  C6  UNL     1      25.858  15.521   9.285  0.00  0.00    +0.000 A 
ATOM      7  O1  UNL     1      25.719  17.568  10.611  0.00  0.00    +0.000 OA
ATOM      8  C7  UNL     1      24.549  17.085  11.166  0.00  0.00    +0.000 A 
ATOM      9  C8  UNL     1      24.014  15.831  10.821  0.00  0.00    +0.000 A 
ATOM     10  N1  UNL     1      24.728  15.009   9.938  0.00  0.00    +0.000 N 
ATOM     11  C9  UNL     1      22.846  15.393  11.445  0.00  0.00    +0.000 A 
ATOM     12  C10 UNL     1      22.195  16.214  12.370  0.00  0.00    +0.000 A 
ATOM     13  C11 UNL     1      22.720  17.468  12.689  0.00  0.00    +0.000 A 
ATOM     14  C12 UNL     1      23.901  17.905  12.090  0.00  0.00    +0.000 A 
ATOM     15  H5  UNL     1      24.207  14.290   9.457  0.00  0.00    +0.000 HD
ENDROOT
TORSDOF 0
ENDMDL
