MODEL 1
REMARK VINA RESULT:    -3.383      0.000      0.000
REMARK INTER + INTRA:          -3.383
REMARK INTER:                  -3.383
REMARK INTRA:                   0.000
REMARK UNBOUND:                 0.000
REMARK  Name = /home/anacleto/Desktop/manuscript_Mpro/naturecomm/supplementary_file_S2/6-chemical-library/molecular_docking/3D_ligand_structure/315.pdb
REMARK  0 active torsions:
REMARK  status: ('A' for Active; 'I' for Inactive)
REMARK                            x       y       z     vdW  Elec       q    Type
REMARK                         _______ _______ _______ _____ _____    ______ ____
ROOT
ATOM      1  C1  UNL     1     -39.199   5.912 -13.721  0.00  0.00    +0.000 A 
ATOM      2  N1  UNL     1     -38.080   5.216 -13.948  0.00  0.00    +0.000 NA
ATOM      3  O1  UNL     1     -37.270   6.062 -14.698  0.00  0.00    +0.000 OA
ATOM      4  C2  UNL     1     -37.917   7.242 -14.904  0.00  0.00    +0.000 A 
ATOM      5  C3  UNL     1     -39.157   7.195 -14.297  0.00  0.00    +0.000 A 
ATOM      6  C4  UNL     1     -37.433   8.332 -15.607  0.00  0.00    +0.000 A 
ATOM      7  C5  UNL     1     -38.321   9.395 -15.648  0.00  0.00    +0.000 A 
ATOM      8  N2  UNL     1     -39.550   9.408 -15.071  0.00  0.00    +0.000 NA
ATOM      9  C6  UNL     1     -39.981   8.312 -14.391  0.00  0.00    +0.000 A 
ENDROOT
TORSDOF 0
ENDMDL
MODEL 2
REMARK VINA RESULT:    -3.346     28.911     29.900
REMARK INTER + INTRA:          -3.346
REMARK INTER:                  -3.346
REMARK INTRA:                   0.000
REMARK UNBOUND:                 0.000
REMARK  Name = /home/anacleto/Desktop/manuscript_Mpro/naturecomm/supplementary_file_S2/6-chemical-library/molecular_docking/3D_ligand_structure/315.pdb
REMARK  0 active torsions:
REMARK  status: ('A' for Active; 'I' for Inactive)
REMARK                            x       y       z     vdW  Elec       q    Type
REMARK                         _______ _______ _______ _____ _____    ______ ____
ROOT
ATOM      1  C1  UNL     1     -18.872   9.604 -38.331  0.00  0.00    +0.000 A 
ATOM      2  N1  UNL     1     -18.057   8.709 -38.901  0.00  0.00    +0.000 NA
ATOM      3  O1  UNL     1     -18.823   7.557 -39.041  0.00  0.00    +0.000 OA
ATOM      4  C2  UNL     1     -20.074   7.783 -38.555  0.00  0.00    +0.000 A 
ATOM      5  C3  UNL     1     -20.155   9.081 -38.089  0.00  0.00    +0.000 A 
ATOM      6  C4  UNL     1     -21.119   6.875 -38.521  0.00  0.00    +0.000 A 
ATOM      7  C5  UNL     1     -22.277   7.394 -37.966  0.00  0.00    +0.000 A 
ATOM      8  N2  UNL     1     -22.417   8.659 -37.493  0.00  0.00    +0.000 NA
ATOM      9  C6  UNL     1     -21.361   9.514 -37.548  0.00  0.00    +0.000 A 
ENDROOT
TORSDOF 0
ENDMDL
MODEL 3
REMARK VINA RESULT:    -3.299     27.781     28.463
REMARK INTER + INTRA:          -3.299
REMARK INTER:                  -3.299
REMARK INTRA:                   0.000
REMARK UNBOUND:                 0.000
REMARK  Name = /home/anacleto/Desktop/manuscript_Mpro/naturecomm/supplementary_file_S2/6-chemical-library/molecular_docking/3D_ligand_structure/315.pdb
REMARK  0 active torsions:
REMARK  status: ('A' for Active; 'I' for Inactive)
REMARK                            x       y       z     vdW  Elec       q    Type
REMARK                         _______ _______ _______ _____ _____    ______ ____
ROOT
ATOM      1  C1  UNL     1     -22.095   9.892 -37.683  0.00  0.00    +0.000 A 
ATOM      2  N1  UNL     1     -20.769   9.792 -37.547  0.00  0.00    +0.000 NA
ATOM      3  O1  UNL     1     -20.492   8.434 -37.653  0.00  0.00    +0.000 OA
ATOM      4  C2  UNL     1     -21.652   7.750 -37.848  0.00  0.00    +0.000 A 
ATOM      5  C3  UNL     1     -22.708   8.640 -37.876  0.00  0.00    +0.000 A 
ATOM      6  C4  UNL     1     -21.783   6.379 -38.000  0.00  0.00    +0.000 A 
ATOM      7  C5  UNL     1     -23.093   5.972 -38.185  0.00  0.00    +0.000 A 
ATOM      8  N2  UNL     1     -24.170   6.798 -38.221  0.00  0.00    +0.000 NA
ATOM      9  C6  UNL     1     -23.991   8.137 -38.068  0.00  0.00    +0.000 A 
ENDROOT
TORSDOF 0
ENDMDL
MODEL 4
REMARK VINA RESULT:    -3.296     27.609     28.104
REMARK INTER + INTRA:          -3.296
REMARK INTER:                  -3.296
REMARK INTRA:                   0.000
REMARK UNBOUND:                 0.000
REMARK  Name = /home/anacleto/Desktop/manuscript_Mpro/naturecomm/supplementary_file_S2/6-chemical-library/molecular_docking/3D_ligand_structure/315.pdb
REMARK  0 active torsions:
REMARK  status: ('A' for Active; 'I' for Inactive)
REMARK                            x       y       z     vdW  Elec       q    Type
REMARK                         _______ _______ _______ _____ _____    ______ ____
ROOT
ATOM      1  C1  UNL     1     -22.264   6.153 -38.197  0.00  0.00    +0.000 A 
ATOM      2  N1  UNL     1     -23.548   5.906 -38.476  0.00  0.00    +0.000 NA
ATOM      3  O1  UNL     1     -24.208   7.109 -38.253  0.00  0.00    +0.000 OA
ATOM      4  C2  UNL     1     -23.311   8.048 -37.845  0.00  0.00    +0.000 A 
ATOM      5  C3  UNL     1     -22.051   7.484 -37.794  0.00  0.00    +0.000 A 
ATOM      6  C4  UNL     1     -23.589   9.367 -37.526  0.00  0.00    +0.000 A 
ATOM      7  C5  UNL     1     -22.469  10.085 -37.143  0.00  0.00    +0.000 A 
ATOM      8  N2  UNL     1     -21.208   9.587 -37.074  0.00  0.00    +0.000 NA
ATOM      9  C6  UNL     1     -20.984   8.285 -37.397  0.00  0.00    +0.000 A 
ENDROOT
TORSDOF 0
ENDMDL
MODEL 5
REMARK VINA RESULT:    -3.266     28.886     29.765
REMARK INTER + INTRA:          -3.266
REMARK INTER:                  -3.266
REMARK INTRA:                   0.000
REMARK UNBOUND:                 0.000
REMARK  Name = /home/anacleto/Desktop/manuscript_Mpro/naturecomm/supplementary_file_S2/6-chemical-library/molecular_docking/3D_ligand_structure/315.pdb
REMARK  0 active torsions:
REMARK  status: ('A' for Active; 'I' for Inactive)
REMARK                            x       y       z     vdW  Elec       q    Type
REMARK                         _______ _______ _______ _____ _____    ______ ____
ROOT
ATOM      1  C1  UNL     1     -21.455   6.510 -38.510  0.00  0.00    +0.000 A 
ATOM      2  N1  UNL     1     -22.592   6.964 -37.972  0.00  0.00    +0.000 NA
ATOM      3  O1  UNL     1     -22.336   8.290 -37.643  0.00  0.00    +0.000 OA
ATOM      4  C2  UNL     1     -21.057   8.603 -37.988  0.00  0.00    +0.000 A 
ATOM      5  C3  UNL     1     -20.451   7.495 -38.547  0.00  0.00    +0.000 A 
ATOM      6  C4  UNL     1     -20.436   9.829 -37.816  0.00  0.00    +0.000 A 
ATOM      7  C5  UNL     1     -19.126   9.845 -38.265  0.00  0.00    +0.000 A 
ATOM      8  N2  UNL     1     -18.478   8.791 -38.823  0.00  0.00    +0.000 NA
ATOM      9  C6  UNL     1     -19.130   7.607 -38.970  0.00  0.00    +0.000 A 
ENDROOT
TORSDOF 0
ENDMDL
MODEL 6
REMARK VINA RESULT:    -3.228     20.833     21.727
REMARK INTER + INTRA:          -3.228
REMARK INTER:                  -3.228
REMARK INTRA:                   0.000
REMARK UNBOUND:                 0.000
REMARK  Name = /home/anacleto/Desktop/manuscript_Mpro/naturecomm/supplementary_file_S2/6-chemical-library/molecular_docking/3D_ligand_structure/315.pdb
REMARK  0 active torsions:
REMARK  status: ('A' for Active; 'I' for Inactive)
REMARK                            x       y       z     vdW  Elec       q    Type
REMARK                         _______ _______ _______ _____ _____    ______ ____
ROOT
ATOM      1  C1  UNL     1     -23.811  -4.208 -27.375  0.00  0.00    +0.000 A 
ATOM      2  N1  UNL     1     -23.464  -3.528 -28.473  0.00  0.00    +0.000 NA
ATOM      3  O1  UNL     1     -24.666  -3.150 -29.063  0.00  0.00    +0.000 OA
ATOM      4  C2  UNL     1     -25.703  -3.609 -28.311  0.00  0.00    +0.000 A 
ATOM      5  C3  UNL     1     -25.207  -4.293 -27.218  0.00  0.00    +0.000 A 
ATOM      6  C4  UNL     1     -27.051  -3.433 -28.575  0.00  0.00    +0.000 A 
ATOM      7  C5  UNL     1     -27.875  -4.017 -27.627  0.00  0.00    +0.000 A 
ATOM      8  N2  UNL     1     -27.447  -4.699 -26.535  0.00  0.00    +0.000 NA
ATOM      9  C6  UNL     1     -26.112  -4.846 -26.318  0.00  0.00    +0.000 A 
ENDROOT
TORSDOF 0
ENDMDL
MODEL 7
REMARK VINA RESULT:    -3.222     16.639     17.748
REMARK INTER + INTRA:          -3.222
REMARK INTER:                  -3.222
REMARK INTRA:                   0.000
REMARK UNBOUND:                 0.000
REMARK  Name = /home/anacleto/Desktop/manuscript_Mpro/naturecomm/supplementary_file_S2/6-chemical-library/molecular_docking/3D_ligand_structure/315.pdb
REMARK  0 active torsions:
REMARK  status: ('A' for Active; 'I' for Inactive)
REMARK                            x       y       z     vdW  Elec       q    Type
REMARK                         _______ _______ _______ _____ _____    ______ ____
ROOT
ATOM      1  C1  UNL     1     -36.116  13.013 -29.941  0.00  0.00    +0.000 A 
ATOM      2  N1  UNL     1     -37.093  12.328 -29.337  0.00  0.00    +0.000 NA
ATOM      3  O1  UNL     1     -37.433  11.315 -30.226  0.00  0.00    +0.000 OA
ATOM      4  C2  UNL     1     -36.657  11.412 -31.340  0.00  0.00    +0.000 A 
ATOM      5  C3  UNL     1     -35.796  12.485 -31.205  0.00  0.00    +0.000 A 
ATOM      6  C4  UNL     1     -36.700  10.582 -32.447  0.00  0.00    +0.000 A 
ATOM      7  C5  UNL     1     -35.787  10.929 -33.428  0.00  0.00    +0.000 A 
ATOM      8  N2  UNL     1     -34.917  11.969 -33.352  0.00  0.00    +0.000 NA
ATOM      9  C6  UNL     1     -34.912  12.757 -32.244  0.00  0.00    +0.000 A 
ENDROOT
TORSDOF 0
ENDMDL
MODEL 8
REMARK VINA RESULT:    -3.213     20.603     20.972
REMARK INTER + INTRA:          -3.213
REMARK INTER:                  -3.213
REMARK INTRA:                   0.000
REMARK UNBOUND:                 0.000
REMARK  Name = /home/anacleto/Desktop/manuscript_Mpro/naturecomm/supplementary_file_S2/6-chemical-library/molecular_docking/3D_ligand_structure/315.pdb
REMARK  0 active torsions:
REMARK  status: ('A' for Active; 'I' for Inactive)
REMARK                            x       y       z     vdW  Elec       q    Type
REMARK                         _______ _______ _______ _____ _____    ______ ____
ROOT
ATOM      1  C1  UNL     1     -26.681  -3.339 -28.227  0.00  0.00    +0.000 A 
ATOM      2  N1  UNL     1     -27.925  -3.719 -28.533  0.00  0.00    +0.000 NA
ATOM      3  O1  UNL     1     -28.276  -4.644 -27.556  0.00  0.00    +0.000 OA
ATOM      4  C2  UNL     1     -27.240  -4.799 -26.688  0.00  0.00    +0.000 A 
ATOM      5  C3  UNL     1     -26.194  -3.984 -27.075  0.00  0.00    +0.000 A 
ATOM      6  C4  UNL     1     -27.211  -5.634 -25.584  0.00  0.00    +0.000 A 
ATOM      7  C5  UNL     1     -26.015  -5.579 -24.887  0.00  0.00    +0.000 A 
ATOM      8  N2  UNL     1     -24.954  -4.799 -25.217  0.00  0.00    +0.000 NA
ATOM      9  C6  UNL     1     -25.030  -3.995 -26.312  0.00  0.00    +0.000 A 
ENDROOT
TORSDOF 0
ENDMDL
MODEL 9
REMARK VINA RESULT:    -3.197     28.026     29.064
REMARK INTER + INTRA:          -3.197
REMARK INTER:                  -3.197
REMARK INTRA:                   0.000
REMARK UNBOUND:                 0.000
REMARK  Name = /home/anacleto/Desktop/manuscript_Mpro/naturecomm/supplementary_file_S2/6-chemical-library/molecular_docking/3D_ligand_structure/315.pdb
REMARK  0 active torsions:
REMARK  status: ('A' for Active; 'I' for Inactive)
REMARK                            x       y       z     vdW  Elec       q    Type
REMARK                         _______ _______ _______ _____ _____    ______ ____
ROOT
ATOM      1  C1  UNL     1     -22.485  10.189 -37.192  0.00  0.00    +0.000 A 
ATOM      2  N1  UNL     1     -23.555   9.388 -37.156  0.00  0.00    +0.000 NA
ATOM      3  O1  UNL     1     -23.111   8.164 -37.643  0.00  0.00    +0.000 OA
ATOM      4  C2  UNL     1     -21.790   8.255 -37.960  0.00  0.00    +0.000 A 
ATOM      5  C3  UNL     1     -21.343   9.534 -37.688  0.00  0.00    +0.000 A 
ATOM      6  C4  UNL     1     -20.997   7.243 -38.473  0.00  0.00    +0.000 A 
ATOM      7  C5  UNL     1     -19.687   7.635 -38.696  0.00  0.00    +0.000 A 
ATOM      8  N2  UNL     1     -19.190   8.874 -38.450  0.00  0.00    +0.000 NA
ATOM      9  C6  UNL     1     -20.009   9.835 -37.945  0.00  0.00    +0.000 A 
ENDROOT
TORSDOF 0
ENDMDL
