MODEL 1
REMARK VINA RESULT:    -4.577      0.000      0.000
REMARK INTER + INTRA:          -4.914
REMARK INTER:                  -4.810
REMARK INTRA:                  -0.104
REMARK UNBOUND:                -0.070
REMARK  Name = /home/anacleto/Desktop/manuscript_Mpro/naturecomm/supplementary_file_S2/6-chemical-library/molecular_docking/3D_ligand_structure/1055.pdb
REMARK  1 active torsions:
REMARK  status: ('A' for Active; 'I' for Inactive)
REMARK    1  A    between atoms: C4_7  and  N2_8
REMARK                            x       y       z     vdW  Elec       q    Type
REMARK                         _______ _______ _______ _____ _____    ______ ____
ROOT
ATOM      1  O1  UNL     1      16.310  12.342  -6.819  0.00  0.00    +0.000 OA
ATOM      2  C1  UNL     1      15.310  11.659  -6.688  0.00  0.00    +0.000 C 
ATOM      3  N1  UNL     1      14.629  11.067  -7.692  0.00  0.00    +0.000 N 
ATOM      4  C2  UNL     1      13.510  10.484  -7.231  0.00  0.00    +0.000 C 
ATOM      5  O2  UNL     1      12.641   9.927  -7.874  0.00  0.00    +0.000 OA
ATOM      6  C3  UNL     1      13.500  10.649  -5.779  0.00  0.00    +0.000 C 
ATOM      7  C4  UNL     1      14.580  11.349  -5.408  0.00  0.00    +0.000 C 
ATOM      8  H1  UNL     1      14.873  11.146  -8.664  0.00  0.00    +0.000 HD
ENDROOT
BRANCH   7   9
ATOM      9  N2  UNL     1      14.991  11.739  -4.131  0.00  0.00    +0.000 N 
ATOM     10  C5  UNL     1      15.118  13.180  -3.796  0.00  0.00    +0.000 C 
ATOM     11  C6  UNL     1      15.066  13.409  -2.281  0.00  0.00    +0.000 C 
ATOM     12  O3  UNL     1      16.073  12.647  -1.605  0.00  0.00    +0.000 OA
ATOM     13  C7  UNL     1      15.855  11.250  -1.838  0.00  0.00    +0.000 C 
ATOM     14  C8  UNL     1      15.921  10.898  -3.333  0.00  0.00    +0.000 C 
ENDBRANCH   7   9
TORSDOF 1
ENDMDL
MODEL 2
REMARK VINA RESULT:    -4.508      2.035      2.771
REMARK INTER + INTRA:          -4.841
REMARK INTER:                  -4.678
REMARK INTRA:                  -0.164
REMARK UNBOUND:                -0.070
REMARK  Name = /home/anacleto/Desktop/manuscript_Mpro/naturecomm/supplementary_file_S2/6-chemical-library/molecular_docking/3D_ligand_structure/1055.pdb
REMARK  1 active torsions:
REMARK  status: ('A' for Active; 'I' for Inactive)
REMARK    1  A    between atoms: C4_7  and  N2_8
REMARK                            x       y       z     vdW  Elec       q    Type
REMARK                         _______ _______ _______ _____ _____    ______ ____
ROOT
ATOM      1  O1  UNL     1      15.324  10.737  -3.271  0.00  0.00    +0.000 OA
ATOM      2  C1  UNL     1      14.675  11.108  -4.234  0.00  0.00    +0.000 C 
ATOM      3  N1  UNL     1      13.998  10.301  -5.078  0.00  0.00    +0.000 N 
ATOM      4  C2  UNL     1      13.485  11.005  -6.101  0.00  0.00    +0.000 C 
ATOM      5  O2  UNL     1      12.881  10.581  -7.068  0.00  0.00    +0.000 OA
ATOM      6  C3  UNL     1      13.795  12.412  -5.860  0.00  0.00    +0.000 C 
ATOM      7  C4  UNL     1      14.508  12.519  -4.731  0.00  0.00    +0.000 C 
ATOM      8  H1  UNL     1      13.975   9.299  -5.006  0.00  0.00    +0.000 HD
ENDROOT
BRANCH   7   9
ATOM      9  N2  UNL     1      15.018  13.660  -4.106  0.00  0.00    +0.000 N 
ATOM     10  C5  UNL     1      16.456  14.003  -4.238  0.00  0.00    +0.000 C 
ATOM     11  C6  UNL     1      16.706  15.487  -3.946  0.00  0.00    +0.000 C 
ATOM     12  O3  UNL     1      16.221  15.850  -2.648  0.00  0.00    +0.000 OA
ATOM     13  C7  UNL     1      14.806  15.630  -2.584  0.00  0.00    +0.000 C 
ATOM     14  C8  UNL     1      14.442  14.157  -2.830  0.00  0.00    +0.000 C 
ENDBRANCH   7   9
TORSDOF 1
ENDMDL
MODEL 3
REMARK VINA RESULT:    -4.473      1.967      2.499
REMARK INTER + INTRA:          -4.804
REMARK INTER:                  -4.666
REMARK INTRA:                  -0.138
REMARK UNBOUND:                -0.070
REMARK  Name = /home/anacleto/Desktop/manuscript_Mpro/naturecomm/supplementary_file_S2/6-chemical-library/molecular_docking/3D_ligand_structure/1055.pdb
REMARK  1 active torsions:
REMARK  status: ('A' for Active; 'I' for Inactive)
REMARK    1  A    between atoms: C4_7  and  N2_8
REMARK                            x       y       z     vdW  Elec       q    Type
REMARK                         _______ _______ _______ _____ _____    ______ ____
ROOT
ATOM      1  O1  UNL     1      14.328  14.037  -3.835  0.00  0.00    +0.000 OA
ATOM      2  C1  UNL     1      14.255  12.982  -4.441  0.00  0.00    +0.000 C 
ATOM      3  N1  UNL     1      13.419  12.725  -5.469  0.00  0.00    +0.000 N 
ATOM      4  C2  UNL     1      13.500  11.436  -5.840  0.00  0.00    +0.000 C 
ATOM      5  O2  UNL     1      12.839  10.861  -6.683  0.00  0.00    +0.000 OA
ATOM      6  C3  UNL     1      14.540  10.814  -5.025  0.00  0.00    +0.000 C 
ATOM      7  C4  UNL     1      15.031  11.720  -4.169  0.00  0.00    +0.000 C 
ATOM      8  H1  UNL     1      12.752  13.384  -5.833  0.00  0.00    +0.000 HD
ENDROOT
BRANCH   7   9
ATOM      9  N2  UNL     1      16.036  11.583  -3.209  0.00  0.00    +0.000 N 
ATOM     10  C5  UNL     1      17.316  10.917  -3.559  0.00  0.00    +0.000 C 
ATOM     11  C6  UNL     1      18.436  11.311  -2.589  0.00  0.00    +0.000 C 
ATOM     12  O3  UNL     1      18.075  11.022  -1.233  0.00  0.00    +0.000 OA
ATOM     13  C7  UNL     1      16.910  11.775  -0.876  0.00  0.00    +0.000 C 
ATOM     14  C8  UNL     1      15.706  11.431  -1.768  0.00  0.00    +0.000 C 
ENDBRANCH   7   9
TORSDOF 1
ENDMDL
MODEL 4
REMARK VINA RESULT:    -4.472     16.224     18.648
REMARK INTER + INTRA:          -4.803
REMARK INTER:                  -4.665
REMARK INTRA:                  -0.137
REMARK UNBOUND:                -0.070
REMARK  Name = /home/anacleto/Desktop/manuscript_Mpro/naturecomm/supplementary_file_S2/6-chemical-library/molecular_docking/3D_ligand_structure/1055.pdb
REMARK  1 active torsions:
REMARK  status: ('A' for Active; 'I' for Inactive)
REMARK    1  A    between atoms: C4_7  and  N2_8
REMARK                            x       y       z     vdW  Elec       q    Type
REMARK                         _______ _______ _______ _____ _____    ______ ____
ROOT
ATOM      1  O1  UNL     1      21.124   8.155  13.871  0.00  0.00    +0.000 OA
ATOM      2  C1  UNL     1      19.936   8.003  13.650  0.00  0.00    +0.000 C 
ATOM      3  N1  UNL     1      18.936   8.286  14.512  0.00  0.00    +0.000 N 
ATOM      4  C2  UNL     1      17.751   7.897  14.013  0.00  0.00    +0.000 C 
ATOM      5  O2  UNL     1      16.664   7.941  14.556  0.00  0.00    +0.000 OA
ATOM      6  C3  UNL     1      17.994   7.379  12.669  0.00  0.00    +0.000 C 
ATOM      7  C4  UNL     1      19.306   7.434  12.406  0.00  0.00    +0.000 C 
ATOM      8  H1  UNL     1      19.076   8.640  15.442  0.00  0.00    +0.000 HD
ENDROOT
BRANCH   7   9
ATOM      9  N2  UNL     1      19.998   7.058  11.252  0.00  0.00    +0.000 N 
ATOM     10  C5  UNL     1      19.486   7.449   9.914  0.00  0.00    +0.000 C 
ATOM     11  C6  UNL     1      20.595   7.408   8.856  0.00  0.00    +0.000 C 
ATOM     12  O3  UNL     1      21.211   6.116   8.799  0.00  0.00    +0.000 OA
ATOM     13  C7  UNL     1      21.811   5.813  10.065  0.00  0.00    +0.000 C 
ATOM     14  C8  UNL     1      20.776   5.793  11.201  0.00  0.00    +0.000 C 
ENDBRANCH   7   9
TORSDOF 1
ENDMDL
MODEL 5
REMARK VINA RESULT:    -4.383      2.243      3.565
REMARK INTER + INTRA:          -4.709
REMARK INTER:                  -4.578
REMARK INTRA:                  -0.131
REMARK UNBOUND:                -0.070
REMARK  Name = /home/anacleto/Desktop/manuscript_Mpro/naturecomm/supplementary_file_S2/6-chemical-library/molecular_docking/3D_ligand_structure/1055.pdb
REMARK  1 active torsions:
REMARK  status: ('A' for Active; 'I' for Inactive)
REMARK    1  A    between atoms: C4_7  and  N2_8
REMARK                            x       y       z     vdW  Elec       q    Type
REMARK                         _______ _______ _______ _____ _____    ______ ____
ROOT
ATOM      1  O1  UNL     1      15.769  11.439  -1.781  0.00  0.00    +0.000 OA
ATOM      2  C1  UNL     1      15.197  11.607  -2.844  0.00  0.00    +0.000 C 
ATOM      3  N1  UNL     1      14.797  10.625  -3.681  0.00  0.00    +0.000 N 
ATOM      4  C2  UNL     1      14.304  11.141  -4.819  0.00  0.00    +0.000 C 
ATOM      5  O2  UNL     1      13.922  10.540  -5.805  0.00  0.00    +0.000 OA
ATOM      6  C3  UNL     1      14.317  12.595  -4.680  0.00  0.00    +0.000 C 
ATOM      7  C4  UNL     1      14.843  12.919  -3.491  0.00  0.00    +0.000 C 
ATOM      8  H1  UNL     1      14.948   9.645  -3.515  0.00  0.00    +0.000 HD
ENDROOT
BRANCH   7   9
ATOM      9  N2  UNL     1      15.048  14.179  -2.924  0.00  0.00    +0.000 N 
ATOM     10  C5  UNL     1      13.894  14.972  -2.430  0.00  0.00    +0.000 C 
ATOM     11  C6  UNL     1      14.337  16.033  -1.416  0.00  0.00    +0.000 C 
ATOM     12  O3  UNL     1      15.337  16.896  -1.969  0.00  0.00    +0.000 OA
ATOM     13  C7  UNL     1      16.494  16.126  -2.321  0.00  0.00    +0.000 C 
ATOM     14  C8  UNL     1      16.171  15.047  -3.367  0.00  0.00    +0.000 C 
ENDBRANCH   7   9
TORSDOF 1
ENDMDL
MODEL 6
REMARK VINA RESULT:    -4.155      4.407      5.689
REMARK INTER + INTRA:          -4.468
REMARK INTER:                  -4.329
REMARK INTRA:                  -0.139
REMARK UNBOUND:                -0.070
REMARK  Name = /home/anacleto/Desktop/manuscript_Mpro/naturecomm/supplementary_file_S2/6-chemical-library/molecular_docking/3D_ligand_structure/1055.pdb
REMARK  1 active torsions:
REMARK  status: ('A' for Active; 'I' for Inactive)
REMARK    1  A    between atoms: C4_7  and  N2_8
REMARK                            x       y       z     vdW  Elec       q    Type
REMARK                         _______ _______ _______ _____ _____    ______ ____
ROOT
ATOM      1  O1  UNL     1      15.474  14.250  -3.884  0.00  0.00    +0.000 OA
ATOM      2  C1  UNL     1      14.789  14.786  -3.031  0.00  0.00    +0.000 C 
ATOM      3  N1  UNL     1      13.484  15.109  -3.164  0.00  0.00    +0.000 N 
ATOM      4  C2  UNL     1      13.051  15.794  -2.092  0.00  0.00    +0.000 C 
ATOM      5  O2  UNL     1      11.955  16.291  -1.918  0.00  0.00    +0.000 OA
ATOM      6  C3  UNL     1      14.159  15.858  -1.140  0.00  0.00    +0.000 C 
ATOM      7  C4  UNL     1      15.229  15.250  -1.668  0.00  0.00    +0.000 C 
ATOM      8  H1  UNL     1      12.945  14.952  -3.997  0.00  0.00    +0.000 HD
ENDROOT
BRANCH   7   9
ATOM      9  N2  UNL     1      16.502  15.060  -1.125  0.00  0.00    +0.000 N 
ATOM     10  C5  UNL     1      16.899  13.729  -0.602  0.00  0.00    +0.000 C 
ATOM     11  C6  UNL     1      18.424  13.585  -0.538  0.00  0.00    +0.000 C 
ATOM     12  O3  UNL     1      19.012  14.628   0.249  0.00  0.00    +0.000 OA
ATOM     13  C7  UNL     1      18.723  15.899  -0.346  0.00  0.00    +0.000 C 
ATOM     14  C8  UNL     1      17.212  16.166  -0.429  0.00  0.00    +0.000 C 
ENDBRANCH   7   9
TORSDOF 1
ENDMDL
MODEL 7
REMARK VINA RESULT:    -4.103      3.100      5.283
REMARK INTER + INTRA:          -4.413
REMARK INTER:                  -4.254
REMARK INTRA:                  -0.160
REMARK UNBOUND:                -0.070
REMARK  Name = /home/anacleto/Desktop/manuscript_Mpro/naturecomm/supplementary_file_S2/6-chemical-library/molecular_docking/3D_ligand_structure/1055.pdb
REMARK  1 active torsions:
REMARK  status: ('A' for Active; 'I' for Inactive)
REMARK    1  A    between atoms: C4_7  and  N2_8
REMARK                            x       y       z     vdW  Elec       q    Type
REMARK                         _______ _______ _______ _____ _____    ______ ____
ROOT
ATOM      1  O1  UNL     1      16.542  15.821  -3.451  0.00  0.00    +0.000 OA
ATOM      2  C1  UNL     1      15.428  15.850  -2.959  0.00  0.00    +0.000 C 
ATOM      3  N1  UNL     1      14.729  16.970  -2.671  0.00  0.00    +0.000 N 
ATOM      4  C2  UNL     1      13.588  16.667  -2.030  0.00  0.00    +0.000 C 
ATOM      5  O2  UNL     1      12.765  17.436  -1.571  0.00  0.00    +0.000 OA
ATOM      6  C3  UNL     1      13.501  15.210  -1.960  0.00  0.00    +0.000 C 
ATOM      7  C4  UNL     1      14.594  14.676  -2.521  0.00  0.00    +0.000 C 
ATOM      8  H1  UNL     1      15.070  17.903  -2.821  0.00  0.00    +0.000 HD
ENDROOT
BRANCH   7   9
ATOM      9  N2  UNL     1      14.941  13.333  -2.688  0.00  0.00    +0.000 N 
ATOM     10  C5  UNL     1      16.006  12.729  -1.848  0.00  0.00    +0.000 C 
ATOM     11  C6  UNL     1      15.887  11.201  -1.807  0.00  0.00    +0.000 C 
ATOM     12  O3  UNL     1      15.910  10.642  -3.126  0.00  0.00    +0.000 OA
ATOM     13  C7  UNL     1      14.798  11.142  -3.879  0.00  0.00    +0.000 C 
ATOM     14  C8  UNL     1      14.836  12.672  -4.015  0.00  0.00    +0.000 C 
ENDBRANCH   7   9
TORSDOF 1
ENDMDL
MODEL 8
REMARK VINA RESULT:    -3.979      1.543      2.180
REMARK INTER + INTRA:          -4.282
REMARK INTER:                  -4.151
REMARK INTRA:                  -0.131
REMARK UNBOUND:                -0.070
REMARK  Name = /home/anacleto/Desktop/manuscript_Mpro/naturecomm/supplementary_file_S2/6-chemical-library/molecular_docking/3D_ligand_structure/1055.pdb
REMARK  1 active torsions:
REMARK  status: ('A' for Active; 'I' for Inactive)
REMARK    1  A    between atoms: C4_7  and  N2_8
REMARK                            x       y       z     vdW  Elec       q    Type
REMARK                         _______ _______ _______ _____ _____    ______ ____
ROOT
ATOM      1  O1  UNL     1      16.014  13.967  -6.584  0.00  0.00    +0.000 OA
ATOM      2  C1  UNL     1      15.188  13.119  -6.293  0.00  0.00    +0.000 C 
ATOM      3  N1  UNL     1      14.610  12.260  -7.159  0.00  0.00    +0.000 N 
ATOM      4  C2  UNL     1      13.659  11.534  -6.547  0.00  0.00    +0.000 C 
ATOM      5  O2  UNL     1      12.904  10.722  -7.047  0.00  0.00    +0.000 OA
ATOM      6  C3  UNL     1      13.671  11.904  -5.134  0.00  0.00    +0.000 C 
ATOM      7  C4  UNL     1      14.592  12.857  -4.936  0.00  0.00    +0.000 C 
ATOM      8  H1  UNL     1      14.793  12.244  -8.147  0.00  0.00    +0.000 HD
ENDROOT
BRANCH   7   9
ATOM      9  N2  UNL     1      14.960  13.506  -3.754  0.00  0.00    +0.000 N 
ATOM     10  C5  UNL     1      15.717  12.777  -2.707  0.00  0.00    +0.000 C 
ATOM     11  C6  UNL     1      16.451  13.743  -1.771  0.00  0.00    +0.000 C 
ATOM     12  O3  UNL     1      15.545  14.679  -1.174  0.00  0.00    +0.000 OA
ATOM     13  C7  UNL     1      14.919  15.461  -2.199  0.00  0.00    +0.000 C 
ATOM     14  C8  UNL     1      14.120  14.590  -3.181  0.00  0.00    +0.000 C 
ENDBRANCH   7   9
TORSDOF 1
ENDMDL
MODEL 9
REMARK VINA RESULT:    -3.888      2.507      3.486
REMARK INTER + INTRA:          -4.185
REMARK INTER:                  -4.115
REMARK INTRA:                  -0.070
REMARK UNBOUND:                -0.070
REMARK  Name = /home/anacleto/Desktop/manuscript_Mpro/naturecomm/supplementary_file_S2/6-chemical-library/molecular_docking/3D_ligand_structure/1055.pdb
REMARK  1 active torsions:
REMARK  status: ('A' for Active; 'I' for Inactive)
REMARK    1  A    between atoms: C4_7  and  N2_8
REMARK                            x       y       z     vdW  Elec       q    Type
REMARK                         _______ _______ _______ _____ _____    ______ ____
ROOT
ATOM      1  O1  UNL     1      14.354  14.614  -2.219  0.00  0.00    +0.000 OA
ATOM      2  C1  UNL     1      14.608  13.893  -3.168  0.00  0.00    +0.000 C 
ATOM      3  N1  UNL     1      13.864  13.787  -4.290  0.00  0.00    +0.000 N 
ATOM      4  C2  UNL     1      14.348  12.824  -5.093  0.00  0.00    +0.000 C 
ATOM      5  O2  UNL     1      13.881  12.425  -6.143  0.00  0.00    +0.000 OA
ATOM      6  C3  UNL     1      15.563  12.306  -4.468  0.00  0.00    +0.000 C 
ATOM      7  C4  UNL     1      15.761  12.935  -3.302  0.00  0.00    +0.000 C 
ATOM      8  H1  UNL     1      13.007  14.287  -4.450  0.00  0.00    +0.000 HD
ENDROOT
BRANCH   7   9
ATOM      9  N2  UNL     1      16.790  12.777  -2.370  0.00  0.00    +0.000 N 
ATOM     10  C5  UNL     1      17.601  13.946  -1.948  0.00  0.00    +0.000 C 
ATOM     11  C6  UNL     1      18.290  13.694  -0.603  0.00  0.00    +0.000 C 
ATOM     12  O3  UNL     1      19.100  12.513  -0.647  0.00  0.00    +0.000 OA
ATOM     13  C7  UNL     1      18.275  11.375  -0.930  0.00  0.00    +0.000 C 
ATOM     14  C8  UNL     1      17.558  11.507  -2.283  0.00  0.00    +0.000 C 
ENDBRANCH   7   9
TORSDOF 1
ENDMDL
