MODEL 1
REMARK VINA RESULT:    -4.248      0.000      0.000
REMARK INTER + INTRA:          -4.563
REMARK INTER:                  -4.493
REMARK INTRA:                  -0.070
REMARK UNBOUND:                -0.067
REMARK  Name = /home/anacleto/Desktop/manuscript_Mpro/naturecomm/supplementary_file_S2/6-chemical-library/molecular_docking/3D_ligand_structure/1265.pdb
REMARK  1 active torsions:
REMARK  status: ('A' for Active; 'I' for Inactive)
REMARK    1  A    between atoms: C3_6  and  C4_7
REMARK                            x       y       z     vdW  Elec       q    Type
REMARK                         _______ _______ _______ _____ _____    ______ ____
ROOT
ATOM      1  N1  UNL     1     -39.358   8.329 -14.939  0.00  0.00    +0.000 N 
ATOM      2  C1  UNL     1     -39.132   9.540 -15.598  0.00  0.00    +0.000 A 
ATOM      3  S1  UNL     1     -40.191  10.780 -15.804  0.00  0.00    +0.000 S 
ATOM      4  N2  UNL     1     -37.808   9.472 -16.046  0.00  0.00    +0.000 N 
ATOM      5  C2  UNL     1     -37.272   8.263 -15.665  0.00  0.00    +0.000 A 
ATOM      6  C3  UNL     1     -38.211   7.575 -14.995  0.00  0.00    +0.000 A 
ATOM      7  H1  UNL     1     -40.222   8.054 -14.494  0.00  0.00    +0.000 HD
ATOM      8  H2  UNL     1     -37.341  10.204 -16.565  0.00  0.00    +0.000 HD
ENDROOT
BRANCH   6   9
ATOM      9  C4  UNL     1     -38.094   6.290 -14.426  0.00  0.00    +0.000 A 
ATOM     10  C5  UNL     1     -38.669   5.745 -13.288  0.00  0.00    +0.000 A 
ATOM     11  C6  UNL     1     -38.193   4.426 -13.216  0.00  0.00    +0.000 A 
ATOM     12  N3  UNL     1     -37.377   4.142 -14.227  0.00  0.00    +0.000 NA
ATOM     13  O1  UNL     1     -37.312   5.296 -14.981  0.00  0.00    +0.000 OA
ENDBRANCH   6   9
TORSDOF 1
ENDMDL
MODEL 2
REMARK VINA RESULT:    -4.119     26.116     27.050
REMARK INTER + INTRA:          -4.427
REMARK INTER:                  -4.354
REMARK INTRA:                  -0.073
REMARK UNBOUND:                -0.067
REMARK  Name = /home/anacleto/Desktop/manuscript_Mpro/naturecomm/supplementary_file_S2/6-chemical-library/molecular_docking/3D_ligand_structure/1265.pdb
REMARK  1 active torsions:
REMARK  status: ('A' for Active; 'I' for Inactive)
REMARK    1  A    between atoms: C3_6  and  C4_7
REMARK                            x       y       z     vdW  Elec       q    Type
REMARK                         _______ _______ _______ _____ _____    ______ ____
ROOT
ATOM      1  N1  UNL     1     -17.841  -7.229 -26.318  0.00  0.00    +0.000 N 
ATOM      2  C1  UNL     1     -16.941  -7.441 -25.272  0.00  0.00    +0.000 A 
ATOM      3  S1  UNL     1     -16.275  -8.867 -24.796  0.00  0.00    +0.000 S 
ATOM      4  N2  UNL     1     -16.726  -6.176 -24.711  0.00  0.00    +0.000 N 
ATOM      5  C2  UNL     1     -17.473  -5.251 -25.404  0.00  0.00    +0.000 A 
ATOM      6  C3  UNL     1     -18.145  -5.890 -26.375  0.00  0.00    +0.000 A 
ATOM      7  H1  UNL     1     -18.207  -7.942 -26.932  0.00  0.00    +0.000 HD
ATOM      8  H2  UNL     1     -16.116  -5.995 -23.925  0.00  0.00    +0.000 HD
ENDROOT
BRANCH   6   9
ATOM      9  C4  UNL     1     -19.030  -5.331 -27.320  0.00  0.00    +0.000 A 
ATOM     10  C5  UNL     1     -19.779  -5.925 -28.325  0.00  0.00    +0.000 A 
ATOM     11  C6  UNL     1     -20.475  -4.877 -28.950  0.00  0.00    +0.000 A 
ATOM     12  N3  UNL     1     -20.197  -3.702 -28.393  0.00  0.00    +0.000 NA
ATOM     13  O1  UNL     1     -19.300  -3.978 -27.381  0.00  0.00    +0.000 OA
ENDBRANCH   6   9
TORSDOF 1
ENDMDL
MODEL 3
REMARK VINA RESULT:    -4.027     20.425     21.293
REMARK INTER + INTRA:          -4.329
REMARK INTER:                  -4.256
REMARK INTRA:                  -0.073
REMARK UNBOUND:                -0.067
REMARK  Name = /home/anacleto/Desktop/manuscript_Mpro/naturecomm/supplementary_file_S2/6-chemical-library/molecular_docking/3D_ligand_structure/1265.pdb
REMARK  1 active torsions:
REMARK  status: ('A' for Active; 'I' for Inactive)
REMARK    1  A    between atoms: C3_6  and  C4_7
REMARK                            x       y       z     vdW  Elec       q    Type
REMARK                         _______ _______ _______ _____ _____    ______ ____
ROOT
ATOM      1  N1  UNL     1     -26.693  -5.351 -26.075  0.00  0.00    +0.000 N 
ATOM      2  C1  UNL     1     -28.035  -5.557 -25.750  0.00  0.00    +0.000 A 
ATOM      3  S1  UNL     1     -28.639  -6.475 -24.526  0.00  0.00    +0.000 S 
ATOM      4  N2  UNL     1     -28.759  -4.815 -26.690  0.00  0.00    +0.000 N 
ATOM      5  C2  UNL     1     -27.874  -4.192 -27.540  0.00  0.00    +0.000 A 
ATOM      6  C3  UNL     1     -26.626  -4.517 -27.166  0.00  0.00    +0.000 A 
ATOM      7  H1  UNL     1     -25.902  -5.748 -25.589  0.00  0.00    +0.000 HD
ATOM      8  H2  UNL     1     -29.768  -4.759 -26.721  0.00  0.00    +0.000 HD
ENDROOT
BRANCH   6   9
ATOM      9  C4  UNL     1     -25.414  -4.103 -27.757  0.00  0.00    +0.000 A 
ATOM     10  C5  UNL     1     -24.098  -4.342 -27.393  0.00  0.00    +0.000 A 
ATOM     11  C6  UNL     1     -23.313  -3.682 -28.352  0.00  0.00    +0.000 A 
ATOM     12  N3  UNL     1     -24.062  -3.067 -29.262  0.00  0.00    +0.000 NA
ATOM     13  O1  UNL     1     -25.368  -3.326 -28.897  0.00  0.00    +0.000 OA
ENDBRANCH   6   9
TORSDOF 1
ENDMDL
MODEL 4
REMARK VINA RESULT:    -3.991     19.919     20.537
REMARK INTER + INTRA:          -4.291
REMARK INTER:                  -4.222
REMARK INTRA:                  -0.069
REMARK UNBOUND:                -0.067
REMARK  Name = /home/anacleto/Desktop/manuscript_Mpro/naturecomm/supplementary_file_S2/6-chemical-library/molecular_docking/3D_ligand_structure/1265.pdb
REMARK  1 active torsions:
REMARK  status: ('A' for Active; 'I' for Inactive)
REMARK    1  A    between atoms: C3_6  and  C4_7
REMARK                            x       y       z     vdW  Elec       q    Type
REMARK                         _______ _______ _______ _____ _____    ______ ____
ROOT
ATOM      1  N1  UNL     1     -25.953  -4.783 -27.454  0.00  0.00    +0.000 N 
ATOM      2  C1  UNL     1     -25.468  -3.806 -28.326  0.00  0.00    +0.000 A 
ATOM      3  S1  UNL     1     -23.946  -3.671 -28.934  0.00  0.00    +0.000 S 
ATOM      4  N2  UNL     1     -26.557  -2.962 -28.574  0.00  0.00    +0.000 N 
ATOM      5  C2  UNL     1     -27.646  -3.426 -27.872  0.00  0.00    +0.000 A 
ATOM      6  C3  UNL     1     -27.278  -4.527 -27.197  0.00  0.00    +0.000 A 
ATOM      7  H1  UNL     1     -25.417  -5.551 -27.076  0.00  0.00    +0.000 HD
ATOM      8  H2  UNL     1     -26.527  -2.149 -29.174  0.00  0.00    +0.000 HD
ENDROOT
BRANCH   6   9
ATOM      9  C4  UNL     1     -28.076  -5.324 -26.349  0.00  0.00    +0.000 A 
ATOM     10  C5  UNL     1     -27.780  -5.947 -25.146  0.00  0.00    +0.000 A 
ATOM     11  C6  UNL     1     -28.960  -6.602 -24.758  0.00  0.00    +0.000 A 
ATOM     12  N3  UNL     1     -29.938  -6.417 -25.640  0.00  0.00    +0.000 NA
ATOM     13  O1  UNL     1     -29.393  -5.624 -26.630  0.00  0.00    +0.000 OA
ENDBRANCH   6   9
TORSDOF 1
ENDMDL
MODEL 5
REMARK VINA RESULT:    -3.925     26.623     27.523
REMARK INTER + INTRA:          -4.222
REMARK INTER:                  -4.157
REMARK INTRA:                  -0.064
REMARK UNBOUND:                -0.067
REMARK  Name = /home/anacleto/Desktop/manuscript_Mpro/naturecomm/supplementary_file_S2/6-chemical-library/molecular_docking/3D_ligand_structure/1265.pdb
REMARK  1 active torsions:
REMARK  status: ('A' for Active; 'I' for Inactive)
REMARK    1  A    between atoms: C3_6  and  C4_7
REMARK                            x       y       z     vdW  Elec       q    Type
REMARK                         _______ _______ _______ _____ _____    ______ ____
ROOT
ATOM      1  N1  UNL     1     -23.870   5.251 -37.894  0.00  0.00    +0.000 N 
ATOM      2  C1  UNL     1     -22.931   6.069 -38.526  0.00  0.00    +0.000 A 
ATOM      3  S1  UNL     1     -21.678   6.877 -37.832  0.00  0.00    +0.000 S 
ATOM      4  N2  UNL     1     -23.284   6.055 -39.880  0.00  0.00    +0.000 N 
ATOM      5  C2  UNL     1     -24.393   5.256 -40.041  0.00  0.00    +0.000 A 
ATOM      6  C3  UNL     1     -24.744   4.771 -38.839  0.00  0.00    +0.000 A 
ATOM      7  H1  UNL     1     -23.900   5.046 -36.906  0.00  0.00    +0.000 HD
ATOM      8  H2  UNL     1     -22.791   6.558 -40.606  0.00  0.00    +0.000 HD
ENDROOT
BRANCH   6   9
ATOM      9  C4  UNL     1     -25.822   3.911 -38.539  0.00  0.00    +0.000 A 
ATOM     10  C5  UNL     1     -25.854   2.546 -38.298  0.00  0.00    +0.000 A 
ATOM     11  C6  UNL     1     -27.201   2.235 -38.054  0.00  0.00    +0.000 A 
ATOM     12  N3  UNL     1     -27.976   3.313 -38.132  0.00  0.00    +0.000 NA
ATOM     13  O1  UNL     1     -27.124   4.357 -38.433  0.00  0.00    +0.000 OA
ENDBRANCH   6   9
TORSDOF 1
ENDMDL
MODEL 6
REMARK VINA RESULT:    -3.910     28.225     29.314
REMARK INTER + INTRA:          -4.205
REMARK INTER:                  -4.138
REMARK INTRA:                  -0.067
REMARK UNBOUND:                -0.067
REMARK  Name = /home/anacleto/Desktop/manuscript_Mpro/naturecomm/supplementary_file_S2/6-chemical-library/molecular_docking/3D_ligand_structure/1265.pdb
REMARK  1 active torsions:
REMARK  status: ('A' for Active; 'I' for Inactive)
REMARK    1  A    between atoms: C3_6  and  C4_7
REMARK                            x       y       z     vdW  Elec       q    Type
REMARK                         _______ _______ _______ _____ _____    ______ ____
ROOT
ATOM      1  N1  UNL     1     -19.744   8.049 -38.970  0.00  0.00    +0.000 N 
ATOM      2  C1  UNL     1     -18.838   9.089 -38.750  0.00  0.00    +0.000 A 
ATOM      3  S1  UNL     1     -17.368   9.303 -39.455  0.00  0.00    +0.000 S 
ATOM      4  N2  UNL     1     -19.450   9.914 -37.799  0.00  0.00    +0.000 N 
ATOM      5  C2  UNL     1     -20.674   9.378 -37.470  0.00  0.00    +0.000 A 
ATOM      6  C3  UNL     1     -20.850   8.251 -38.179  0.00  0.00    +0.000 A 
ATOM      7  H1  UNL     1     -19.608   7.276 -39.605  0.00  0.00    +0.000 HD
ATOM      8  H2  UNL     1     -19.042  10.761 -37.428  0.00  0.00    +0.000 HD
ENDROOT
BRANCH   6   9
ATOM      9  C4  UNL     1     -21.960   7.382 -38.155  0.00  0.00    +0.000 A 
ATOM     10  C5  UNL     1     -22.046   6.027 -37.873  0.00  0.00    +0.000 A 
ATOM     11  C6  UNL     1     -23.405   5.698 -38.002  0.00  0.00    +0.000 A 
ATOM     12  N3  UNL     1     -24.137   6.756 -38.339  0.00  0.00    +0.000 NA
ATOM     13  O1  UNL     1     -23.244   7.804 -38.435  0.00  0.00    +0.000 OA
ENDBRANCH   6   9
TORSDOF 1
ENDMDL
MODEL 7
REMARK VINA RESULT:    -3.746     23.634     24.464
REMARK INTER + INTRA:          -4.031
REMARK INTER:                  -3.965
REMARK INTRA:                  -0.067
REMARK UNBOUND:                -0.067
REMARK  Name = /home/anacleto/Desktop/manuscript_Mpro/naturecomm/supplementary_file_S2/6-chemical-library/molecular_docking/3D_ligand_structure/1265.pdb
REMARK  1 active torsions:
REMARK  status: ('A' for Active; 'I' for Inactive)
REMARK    1  A    between atoms: C3_6  and  C4_7
REMARK                            x       y       z     vdW  Elec       q    Type
REMARK                         _______ _______ _______ _____ _____    ______ ____
ROOT
ATOM      1  N1  UNL     1     -20.364  -4.778 -26.256  0.00  0.00    +0.000 N 
ATOM      2  C1  UNL     1     -18.985  -4.567 -26.317  0.00  0.00    +0.000 A 
ATOM      3  S1  UNL     1     -17.872  -4.868 -25.145  0.00  0.00    +0.000 S 
ATOM      4  N2  UNL     1     -18.751  -4.041 -27.593  0.00  0.00    +0.000 N 
ATOM      5  C2  UNL     1     -19.951  -3.947 -28.261  0.00  0.00    +0.000 A 
ATOM      6  C3  UNL     1     -20.924  -4.394 -27.450  0.00  0.00    +0.000 A 
ATOM      7  H1  UNL     1     -20.867  -5.153 -25.464  0.00  0.00    +0.000 HD
ATOM      8  H2  UNL     1     -17.840  -3.780 -27.947  0.00  0.00    +0.000 HD
ENDROOT
BRANCH   6   9
ATOM      9  C4  UNL     1     -22.305  -4.475 -27.726  0.00  0.00    +0.000 A 
ATOM     10  C5  UNL     1     -22.987  -5.068 -28.778  0.00  0.00    +0.000 A 
ATOM     11  C6  UNL     1     -24.349  -4.833 -28.527  0.00  0.00    +0.000 A 
ATOM     12  N3  UNL     1     -24.530  -4.144 -27.404  0.00  0.00    +0.000 NA
ATOM     13  O1  UNL     1     -23.263  -3.919 -26.903  0.00  0.00    +0.000 OA
ENDBRANCH   6   9
TORSDOF 1
ENDMDL
MODEL 8
REMARK VINA RESULT:    -3.730     20.077     20.914
REMARK INTER + INTRA:          -4.015
REMARK INTER:                  -3.951
REMARK INTRA:                  -0.064
REMARK UNBOUND:                -0.067
REMARK  Name = /home/anacleto/Desktop/manuscript_Mpro/naturecomm/supplementary_file_S2/6-chemical-library/molecular_docking/3D_ligand_structure/1265.pdb
REMARK  1 active torsions:
REMARK  status: ('A' for Active; 'I' for Inactive)
REMARK    1  A    between atoms: C3_6  and  C4_7
REMARK                            x       y       z     vdW  Elec       q    Type
REMARK                         _______ _______ _______ _____ _____    ______ ____
ROOT
ATOM      1  N1  UNL     1     -24.361  -4.845 -24.147  0.00  0.00    +0.000 N 
ATOM      2  C1  UNL     1     -23.909  -4.440 -22.890  0.00  0.00    +0.000 A 
ATOM      3  S1  UNL     1     -23.506  -5.396 -21.614  0.00  0.00    +0.000 S 
ATOM      4  N2  UNL     1     -23.873  -3.042 -22.946  0.00  0.00    +0.000 N 
ATOM      5  C2  UNL     1     -24.289  -2.637 -24.194  0.00  0.00    +0.000 A 
ATOM      6  C3  UNL     1     -24.583  -3.729 -24.918  0.00  0.00    +0.000 A 
ATOM      7  H1  UNL     1     -24.502  -5.801 -24.442  0.00  0.00    +0.000 HD
ATOM      8  H2  UNL     1     -23.584  -2.445 -22.182  0.00  0.00    +0.000 HD
ENDROOT
BRANCH   6   9
ATOM      9  C4  UNL     1     -25.047  -3.780 -26.249  0.00  0.00    +0.000 A 
ATOM     10  C5  UNL     1     -26.335  -3.812 -26.761  0.00  0.00    +0.000 A 
ATOM     11  C6  UNL     1     -26.188  -3.858 -28.157  0.00  0.00    +0.000 A 
ATOM     12  N3  UNL     1     -24.908  -3.856 -28.516  0.00  0.00    +0.000 NA
ATOM     13  O1  UNL     1     -24.195  -3.808 -27.335  0.00  0.00    +0.000 OA
ENDBRANCH   6   9
TORSDOF 1
ENDMDL
MODEL 9
REMARK VINA RESULT:    -3.711     24.757     25.365
REMARK INTER + INTRA:          -3.995
REMARK INTER:                  -3.928
REMARK INTRA:                  -0.067
REMARK UNBOUND:                -0.067
REMARK  Name = /home/anacleto/Desktop/manuscript_Mpro/naturecomm/supplementary_file_S2/6-chemical-library/molecular_docking/3D_ligand_structure/1265.pdb
REMARK  1 active torsions:
REMARK  status: ('A' for Active; 'I' for Inactive)
REMARK    1  A    between atoms: C3_6  and  C4_7
REMARK                            x       y       z     vdW  Elec       q    Type
REMARK                         _______ _______ _______ _____ _____    ______ ____
ROOT
ATOM      1  N1  UNL     1     -34.036  -4.580 -37.829  0.00  0.00    +0.000 N 
ATOM      2  C1  UNL     1     -33.747  -5.936 -37.990  0.00  0.00    +0.000 A 
ATOM      3  S1  UNL     1     -32.715  -6.619 -39.073  0.00  0.00    +0.000 S 
ATOM      4  N2  UNL     1     -34.526  -6.594 -37.031  0.00  0.00    +0.000 N 
ATOM      5  C2  UNL     1     -35.248  -5.656 -36.328  0.00  0.00    +0.000 A 
ATOM      6  C3  UNL     1     -34.950  -4.440 -36.812  0.00  0.00    +0.000 A 
ATOM      7  H1  UNL     1     -33.638  -3.825 -38.371  0.00  0.00    +0.000 HD
ATOM      8  H2  UNL     1     -34.540  -7.595 -36.893  0.00  0.00    +0.000 HD
ENDROOT
BRANCH   6   9
ATOM      9  C4  UNL     1     -35.460  -3.195 -36.388  0.00  0.00    +0.000 A 
ATOM     10  C5  UNL     1     -36.766  -2.751 -36.243  0.00  0.00    +0.000 A 
ATOM     11  C6  UNL     1     -36.667  -1.426 -35.788  0.00  0.00    +0.000 A 
ATOM     12  N3  UNL     1     -35.401  -1.047 -35.649  0.00  0.00    +0.000 NA
ATOM     13  O1  UNL     1     -34.647  -2.142 -36.021  0.00  0.00    +0.000 OA
ENDBRANCH   6   9
TORSDOF 1
ENDMDL
