MODEL 1
REMARK VINA RESULT:    -5.448      0.000      0.000
REMARK INTER + INTRA:          -6.652
REMARK INTER:                  -6.234
REMARK INTRA:                  -0.418
REMARK UNBOUND:                -0.248
REMARK  Name = /home/anacleto/Desktop/manuscript_Mpro/naturecomm/supplementary_file_S2/6-chemical-library/molecular_docking/3D_ligand_structure/590.pdb
REMARK  3 active torsions:
REMARK  status: ('A' for Active; 'I' for Inactive)
REMARK    1  A    between atoms: C6_7  and  C7_9
REMARK    2  A    between atoms: C7_9  and  N2_10
REMARK    3  A    between atoms: C8_11  and  C9_13
REMARK                            x       y       z     vdW  Elec       q    Type
REMARK                         _______ _______ _______ _____ _____    ______ ____
ROOT
ATOM      1  C7  UNL     1      15.981  11.193  -1.269  0.00  0.00    +0.000 C 
ENDROOT
BRANCH   1   8
ATOM      2  C1  UNL     1      17.033  13.759  -0.377  0.00  0.00    +0.000 C 
ATOM      3  C2  UNL     1      17.636  15.159  -0.384  0.00  0.00    +0.000 C 
ATOM      4  C3  UNL     1      19.020  15.195   0.264  0.00  0.00    +0.000 C 
ATOM      5  C4  UNL     1      19.809  13.901   0.059  0.00  0.00    +0.000 C 
ATOM      6  C5  UNL     1      19.321  13.110  -1.149  0.00  0.00    +0.000 C 
ATOM      7  N1  UNL     1      17.901  12.774  -1.026  0.00  0.00    +0.000 N 
ATOM      8  C6  UNL     1      17.462  11.540  -1.497  0.00  0.00    +0.000 C 
ATOM      9  O1  UNL     1      18.225  10.737  -2.040  0.00  0.00    +0.000 OA
ENDBRANCH   1   8
BRANCH   1  10
ATOM     10  N2  UNL     1      15.309  10.938  -2.526  0.00  0.00    +0.000 N 
ATOM     11  C8  UNL     1      14.862  11.977  -3.313  0.00  0.00    +0.000 C 
ATOM     12  O2  UNL     1      14.750  13.134  -2.922  0.00  0.00    +0.000 OA
ATOM     13  H13 UNL     1      15.570  10.103  -3.045  0.00  0.00    +0.000 HD
BRANCH  11  14
ATOM     14  C9  UNL     1      14.536  11.561  -4.668  0.00  0.00    +0.000 A 
ATOM     15  C10 UNL     1      13.604  10.614  -5.030  0.00  0.00    +0.000 A 
ATOM     16  O3  UNL     1      13.596  10.522  -6.390  0.00  0.00    +0.000 OA
ATOM     17  C11 UNL     1      14.531  11.429  -6.785  0.00  0.00    +0.000 A 
ATOM     18  N3  UNL     1      15.130  12.078  -5.811  0.00  0.00    +0.000 NA
ENDBRANCH  11  14
ENDBRANCH   1  10
TORSDOF 3
ENDMDL
MODEL 2
REMARK VINA RESULT:    -5.111      4.978      7.322
REMARK INTER + INTRA:          -6.256
REMARK INTER:                  -6.014
REMARK INTRA:                  -0.242
REMARK UNBOUND:                -0.248
REMARK  Name = /home/anacleto/Desktop/manuscript_Mpro/naturecomm/supplementary_file_S2/6-chemical-library/molecular_docking/3D_ligand_structure/590.pdb
REMARK  3 active torsions:
REMARK  status: ('A' for Active; 'I' for Inactive)
REMARK    1  A    between atoms: C6_7  and  C7_9
REMARK    2  A    between atoms: C7_9  and  N2_10
REMARK    3  A    between atoms: C8_11  and  C9_13
REMARK                            x       y       z     vdW  Elec       q    Type
REMARK                         _______ _______ _______ _____ _____    ______ ____
ROOT
ATOM      1  C7  UNL     1      18.428  10.383  -5.953  0.00  0.00    +0.000 C 
ENDROOT
BRANCH   1   8
ATOM      2  C1  UNL     1      15.783  11.447  -6.551  0.00  0.00    +0.000 C 
ATOM      3  C2  UNL     1      14.548  12.342  -6.556  0.00  0.00    +0.000 C 
ATOM      4  C3  UNL     1      13.329  11.645  -5.954  0.00  0.00    +0.000 C 
ATOM      5  C4  UNL     1      13.690  10.661  -4.841  0.00  0.00    +0.000 C 
ATOM      6  C5  UNL     1      15.043  10.972  -4.210  0.00  0.00    +0.000 C 
ATOM      7  N1  UNL     1      16.112  10.959  -5.210  0.00  0.00    +0.000 N 
ATOM      8  C6  UNL     1      17.360  10.459  -4.848  0.00  0.00    +0.000 C 
ATOM      9  O1  UNL     1      17.599  10.058  -3.706  0.00  0.00    +0.000 OA
ENDBRANCH   1   8
BRANCH   1  10
ATOM     10  N2  UNL     1      19.496   9.480  -5.579  0.00  0.00    +0.000 N 
ATOM     11  C8  UNL     1      20.084   8.655  -6.514  0.00  0.00    +0.000 C 
ATOM     12  O2  UNL     1      19.607   8.422  -7.619  0.00  0.00    +0.000 OA
ATOM     13  H13 UNL     1      20.113   9.759  -4.821  0.00  0.00    +0.000 HD
BRANCH  11  14
ATOM     14  C9  UNL     1      21.342   8.085  -6.055  0.00  0.00    +0.000 A 
ATOM     15  C10 UNL     1      22.467   7.867  -6.817  0.00  0.00    +0.000 A 
ATOM     16  O3  UNL     1      23.427   7.327  -6.015  0.00  0.00    +0.000 OA
ATOM     17  C11 UNL     1      22.827   7.247  -4.795  0.00  0.00    +0.000 A 
ATOM     18  N3  UNL     1      21.586   7.678  -4.750  0.00  0.00    +0.000 NA
ENDBRANCH  11  14
ENDBRANCH   1  10
TORSDOF 3
ENDMDL
MODEL 3
REMARK VINA RESULT:    -5.079      1.973      6.277
REMARK INTER + INTRA:          -6.218
REMARK INTER:                  -5.823
REMARK INTRA:                  -0.396
REMARK UNBOUND:                -0.248
REMARK  Name = /home/anacleto/Desktop/manuscript_Mpro/naturecomm/supplementary_file_S2/6-chemical-library/molecular_docking/3D_ligand_structure/590.pdb
REMARK  3 active torsions:
REMARK  status: ('A' for Active; 'I' for Inactive)
REMARK    1  A    between atoms: C6_7  and  C7_9
REMARK    2  A    between atoms: C7_9  and  N2_10
REMARK    3  A    between atoms: C8_11  and  C9_13
REMARK                            x       y       z     vdW  Elec       q    Type
REMARK                         _______ _______ _______ _____ _____    ______ ____
ROOT
ATOM      1  C7  UNL     1      16.557  10.578  -2.347  0.00  0.00    +0.000 C 
ENDROOT
BRANCH   1   8
ATOM      2  C1  UNL     1      14.426  10.879  -4.310  0.00  0.00    +0.000 C 
ATOM      3  C2  UNL     1      13.508  10.631  -5.502  0.00  0.00    +0.000 C 
ATOM      4  C3  UNL     1      13.651  11.710  -6.574  0.00  0.00    +0.000 C 
ATOM      5  C4  UNL     1      15.068  12.280  -6.664  0.00  0.00    +0.000 C 
ATOM      6  C5  UNL     1      16.113  11.325  -6.100  0.00  0.00    +0.000 C 
ATOM      7  N1  UNL     1      15.832  10.994  -4.703  0.00  0.00    +0.000 N 
ATOM      8  C6  UNL     1      16.900  10.839  -3.823  0.00  0.00    +0.000 C 
ATOM      9  O1  UNL     1      18.073  10.942  -4.193  0.00  0.00    +0.000 OA
ENDBRANCH   1   8
BRANCH   1  10
ATOM     10  N2  UNL     1      16.688  11.789  -1.563  0.00  0.00    +0.000 N 
ATOM     11  C8  UNL     1      17.858  12.074  -0.893  0.00  0.00    +0.000 C 
ATOM     12  O2  UNL     1      18.745  11.253  -0.683  0.00  0.00    +0.000 OA
ATOM     13  H13 UNL     1      16.167  12.609  -1.862  0.00  0.00    +0.000 HD
BRANCH  11  14
ATOM     14  C9  UNL     1      17.937  13.459  -0.456  0.00  0.00    +0.000 A 
ATOM     15  C10 UNL     1      19.082  14.146  -0.120  0.00  0.00    +0.000 A 
ATOM     16  O3  UNL     1      18.731  15.416   0.227  0.00  0.00    +0.000 OA
ATOM     17  C11 UNL     1      17.378  15.433   0.079  0.00  0.00    +0.000 A 
ATOM     18  N3  UNL     1      16.842  14.301  -0.320  0.00  0.00    +0.000 NA
ENDBRANCH  11  14
ENDBRANCH   1  10
TORSDOF 3
ENDMDL
MODEL 4
REMARK VINA RESULT:    -5.046      1.861      2.895
REMARK INTER + INTRA:          -6.179
REMARK INTER:                  -5.899
REMARK INTRA:                  -0.280
REMARK UNBOUND:                -0.248
REMARK  Name = /home/anacleto/Desktop/manuscript_Mpro/naturecomm/supplementary_file_S2/6-chemical-library/molecular_docking/3D_ligand_structure/590.pdb
REMARK  3 active torsions:
REMARK  status: ('A' for Active; 'I' for Inactive)
REMARK    1  A    between atoms: C6_7  and  C7_9
REMARK    2  A    between atoms: C7_9  and  N2_10
REMARK    3  A    between atoms: C8_11  and  C9_13
REMARK                            x       y       z     vdW  Elec       q    Type
REMARK                         _______ _______ _______ _____ _____    ______ ____
ROOT
ATOM      1  C7  UNL     1      17.208  13.043  -0.656  0.00  0.00    +0.000 C 
ENDROOT
BRANCH   1   8
ATOM      2  C1  UNL     1      19.698  14.416  -0.026  0.00  0.00    +0.000 C 
ATOM      3  C2  UNL     1      20.799  15.143   0.739  0.00  0.00    +0.000 C 
ATOM      4  C3  UNL     1      20.978  16.584   0.262  0.00  0.00    +0.000 C 
ATOM      5  C4  UNL     1      19.673  17.224  -0.212  0.00  0.00    +0.000 C 
ATOM      6  C5  UNL     1      18.445  16.541   0.380  0.00  0.00    +0.000 C 
ATOM      7  N1  UNL     1      18.414  15.117   0.044  0.00  0.00    +0.000 N 
ATOM      8  C6  UNL     1      17.186  14.518  -0.222  0.00  0.00    +0.000 C 
ATOM      9  O1  UNL     1      16.124  15.143  -0.151  0.00  0.00    +0.000 OA
ENDBRANCH   1   8
BRANCH   1  10
ATOM     10  N2  UNL     1      16.581  12.874  -1.950  0.00  0.00    +0.000 N 
ATOM     11  C8  UNL     1      15.835  11.751  -2.234  0.00  0.00    +0.000 C 
ATOM     12  O2  UNL     1      15.856  10.726  -1.560  0.00  0.00    +0.000 OA
ATOM     13  H13 UNL     1      16.284  13.709  -2.449  0.00  0.00    +0.000 HD
BRANCH  11  14
ATOM     14  C9  UNL     1      15.009  11.905  -3.422  0.00  0.00    +0.000 A 
ATOM     15  C10 UNL     1      14.600  13.092  -3.985  0.00  0.00    +0.000 A 
ATOM     16  O3  UNL     1      13.850  12.806  -5.086  0.00  0.00    +0.000 OA
ATOM     17  C11 UNL     1      13.846  11.445  -5.135  0.00  0.00    +0.000 A 
ATOM     18  N3  UNL     1      14.513  10.847  -4.172  0.00  0.00    +0.000 NA
ENDBRANCH  11  14
ENDBRANCH   1  10
TORSDOF 3
ENDMDL
MODEL 5
REMARK VINA RESULT:    -5.036      2.510      3.097
REMARK INTER + INTRA:          -6.168
REMARK INTER:                  -5.915
REMARK INTRA:                  -0.253
REMARK UNBOUND:                -0.248
REMARK  Name = /home/anacleto/Desktop/manuscript_Mpro/naturecomm/supplementary_file_S2/6-chemical-library/molecular_docking/3D_ligand_structure/590.pdb
REMARK  3 active torsions:
REMARK  status: ('A' for Active; 'I' for Inactive)
REMARK    1  A    between atoms: C6_7  and  C7_9
REMARK    2  A    between atoms: C7_9  and  N2_10
REMARK    3  A    between atoms: C8_11  and  C9_13
REMARK                            x       y       z     vdW  Elec       q    Type
REMARK                         _______ _______ _______ _____ _____    ______ ____
ROOT
ATOM      1  C7  UNL     1      15.923  15.150  -2.991  0.00  0.00    +0.000 C 
ENDROOT
BRANCH   1   8
ATOM      2  C1  UNL     1      18.185  15.176  -1.156  0.00  0.00    +0.000 C 
ATOM      3  C2  UNL     1      19.125  14.821  -0.009  0.00  0.00    +0.000 C 
ATOM      4  C3  UNL     1      19.200  15.930   1.039  0.00  0.00    +0.000 C 
ATOM      5  C4  UNL     1      17.889  16.701   1.190  0.00  0.00    +0.000 C 
ATOM      6  C5  UNL     1      16.686  15.897   0.710  0.00  0.00    +0.000 C 
ATOM      7  N1  UNL     1      16.835  15.502  -0.691  0.00  0.00    +0.000 N 
ATOM      8  C6  UNL     1      15.706  15.487  -1.506  0.00  0.00    +0.000 C 
ATOM      9  O1  UNL     1      14.584  15.766  -1.076  0.00  0.00    +0.000 OA
ENDBRANCH   1   8
BRANCH   1  10
ATOM     10  N2  UNL     1      14.997  14.128  -3.431  0.00  0.00    +0.000 N 
ATOM     11  C8  UNL     1      15.002  13.682  -4.735  0.00  0.00    +0.000 C 
ATOM     12  O2  UNL     1      15.565  14.264  -5.656  0.00  0.00    +0.000 OA
ATOM     13  H13 UNL     1      14.698  13.432  -2.753  0.00  0.00    +0.000 HD
BRANCH  11  14
ATOM     14  C9  UNL     1      14.266  12.440  -4.911  0.00  0.00    +0.000 A 
ATOM     15  C10 UNL     1      14.447  11.275  -4.200  0.00  0.00    +0.000 A 
ATOM     16  O3  UNL     1      13.559  10.350  -4.664  0.00  0.00    +0.000 OA
ATOM     17  C11 UNL     1      12.878  11.011  -5.640  0.00  0.00    +0.000 A 
ATOM     18  N3  UNL     1      13.252  12.256  -5.841  0.00  0.00    +0.000 NA
ENDBRANCH  11  14
ENDBRANCH   1  10
TORSDOF 3
ENDMDL
MODEL 6
REMARK VINA RESULT:    -4.929      2.007      6.680
REMARK INTER + INTRA:          -6.042
REMARK INTER:                  -5.794
REMARK INTRA:                  -0.248
REMARK UNBOUND:                -0.248
REMARK  Name = /home/anacleto/Desktop/manuscript_Mpro/naturecomm/supplementary_file_S2/6-chemical-library/molecular_docking/3D_ligand_structure/590.pdb
REMARK  3 active torsions:
REMARK  status: ('A' for Active; 'I' for Inactive)
REMARK    1  A    between atoms: C6_7  and  C7_9
REMARK    2  A    between atoms: C7_9  and  N2_10
REMARK    3  A    between atoms: C8_11  and  C9_13
REMARK                            x       y       z     vdW  Elec       q    Type
REMARK                         _______ _______ _______ _____ _____    ______ ____
ROOT
ATOM      1  C7  UNL     1      15.407  13.242  -2.652  0.00  0.00    +0.000 C 
ENDROOT
BRANCH   1   8
ATOM      2  C1  UNL     1      13.981  11.689  -4.662  0.00  0.00    +0.000 C 
ATOM      3  C2  UNL     1      13.550  10.544  -5.572  0.00  0.00    +0.000 C 
ATOM      4  C3  UNL     1      13.803  10.853  -7.047  0.00  0.00    +0.000 C 
ATOM      5  C4  UNL     1      15.033  11.733  -7.272  0.00  0.00    +0.000 C 
ATOM      6  C5  UNL     1      16.018  11.659  -6.111  0.00  0.00    +0.000 C 
ATOM      7  N1  UNL     1      15.386  12.053  -4.851  0.00  0.00    +0.000 N 
ATOM      8  C6  UNL     1      16.135  12.773  -3.924  0.00  0.00    +0.000 C 
ATOM      9  O1  UNL     1      17.320  13.059  -4.118  0.00  0.00    +0.000 OA
ENDBRANCH   1   8
BRANCH   1  10
ATOM     10  N2  UNL     1      16.316  13.930  -1.759  0.00  0.00    +0.000 N 
ATOM     11  C8  UNL     1      17.035  13.236  -0.810  0.00  0.00    +0.000 C 
ATOM     12  O2  UNL     1      16.787  12.085  -0.468  0.00  0.00    +0.000 OA
ATOM     13  H13 UNL     1      16.776  14.769  -2.101  0.00  0.00    +0.000 HD
BRANCH  11  14
ATOM     14  C9  UNL     1      18.131  14.013  -0.250  0.00  0.00    +0.000 A 
ATOM     15  C10 UNL     1      19.427  13.586  -0.072  0.00  0.00    +0.000 A 
ATOM     16  O3  UNL     1      20.142  14.611   0.473  0.00  0.00    +0.000 OA
ATOM     17  C11 UNL     1      19.232  15.616   0.594  0.00  0.00    +0.000 A 
ATOM     18  N3  UNL     1      18.016  15.325   0.187  0.00  0.00    +0.000 NA
ENDBRANCH  11  14
ENDBRANCH   1  10
TORSDOF 3
ENDMDL
MODEL 7
REMARK VINA RESULT:    -4.911      2.101      6.186
REMARK INTER + INTRA:          -6.020
REMARK INTER:                  -5.620
REMARK INTRA:                  -0.400
REMARK UNBOUND:                -0.248
REMARK  Name = /home/anacleto/Desktop/manuscript_Mpro/naturecomm/supplementary_file_S2/6-chemical-library/molecular_docking/3D_ligand_structure/590.pdb
REMARK  3 active torsions:
REMARK  status: ('A' for Active; 'I' for Inactive)
REMARK    1  A    between atoms: C6_7  and  C7_9
REMARK    2  A    between atoms: C7_9  and  N2_10
REMARK    3  A    between atoms: C8_11  and  C9_13
REMARK                            x       y       z     vdW  Elec       q    Type
REMARK                         _______ _______ _______ _____ _____    ______ ____
ROOT
ATOM      1  C7  UNL     1      16.416  11.642  -1.108  0.00  0.00    +0.000 C 
ENDROOT
BRANCH   1   8
ATOM      2  C1  UNL     1      14.942  11.499  -3.616  0.00  0.00    +0.000 C 
ATOM      3  C2  UNL     1      14.232  10.954  -4.851  0.00  0.00    +0.000 C 
ATOM      4  C3  UNL     1      14.955  11.330  -6.144  0.00  0.00    +0.000 C 
ATOM      5  C4  UNL     1      16.472  11.424  -5.976  0.00  0.00    +0.000 C 
ATOM      6  C5  UNL     1      16.973  10.622  -4.781  0.00  0.00    +0.000 C 
ATOM      7  N1  UNL     1      16.339  11.067  -3.539  0.00  0.00    +0.000 N 
ATOM      8  C6  UNL     1      17.096  11.086  -2.370  0.00  0.00    +0.000 C 
ATOM      9  O1  UNL     1      18.271  10.712  -2.345  0.00  0.00    +0.000 OA
ENDBRANCH   1   8
BRANCH   1  10
ATOM     10  N2  UNL     1      17.129  12.796  -0.601  0.00  0.00    +0.000 N 
ATOM     11  C8  UNL     1      16.685  14.074  -0.863  0.00  0.00    +0.000 C 
ATOM     12  O2  UNL     1      15.856  14.348  -1.724  0.00  0.00    +0.000 OA
ATOM     13  H13 UNL     1      17.626  12.700   0.281  0.00  0.00    +0.000 HD
BRANCH  11  14
ATOM     14  C9  UNL     1      17.303  15.075  -0.007  0.00  0.00    +0.000 A 
ATOM     15  C10 UNL     1      16.650  15.938   0.845  0.00  0.00    +0.000 A 
ATOM     16  O3  UNL     1      17.584  16.709   1.469  0.00  0.00    +0.000 OA
ATOM     17  C11 UNL     1      18.767  16.266   0.960  0.00  0.00    +0.000 A 
ATOM     18  N3  UNL     1      18.670  15.300   0.074  0.00  0.00    +0.000 NA
ENDBRANCH  11  14
ENDBRANCH   1  10
TORSDOF 3
ENDMDL
MODEL 8
REMARK VINA RESULT:    -4.824     13.618     16.080
REMARK INTER + INTRA:          -5.919
REMARK INTER:                  -5.624
REMARK INTRA:                  -0.295
REMARK UNBOUND:                -0.248
REMARK  Name = /home/anacleto/Desktop/manuscript_Mpro/naturecomm/supplementary_file_S2/6-chemical-library/molecular_docking/3D_ligand_structure/590.pdb
REMARK  3 active torsions:
REMARK  status: ('A' for Active; 'I' for Inactive)
REMARK    1  A    between atoms: C6_7  and  C7_9
REMARK    2  A    between atoms: C7_9  and  N2_10
REMARK    3  A    between atoms: C8_11  and  C9_13
REMARK                            x       y       z     vdW  Elec       q    Type
REMARK                         _______ _______ _______ _____ _____    ______ ____
ROOT
ATOM      1  C7  UNL     1      16.944   3.328   8.770  0.00  0.00    +0.000 C 
ENDROOT
BRANCH   1   8
ATOM      2  C1  UNL     1      14.537   1.726   8.421  0.00  0.00    +0.000 C 
ATOM      3  C2  UNL     1      13.073   1.304   8.360  0.00  0.00    +0.000 C 
ATOM      4  C3  UNL     1      12.727   0.266   9.427  0.00  0.00    +0.000 C 
ATOM      5  C4  UNL     1      13.535   0.438  10.714  0.00  0.00    +0.000 C 
ATOM      6  C5  UNL     1      14.073   1.855  10.875  0.00  0.00    +0.000 C 
ATOM      7  N1  UNL     1      14.916   2.236   9.740  0.00  0.00    +0.000 N 
ATOM      8  C6  UNL     1      16.039   3.025   9.976  0.00  0.00    +0.000 C 
ATOM      9  O1  UNL     1      16.325   3.438  11.104  0.00  0.00    +0.000 OA
ENDBRANCH   1   8
BRANCH   1  10
ATOM     10  N2  UNL     1      17.711   4.537   8.989  0.00  0.00    +0.000 N 
ATOM     11  C8  UNL     1      19.061   4.479   9.259  0.00  0.00    +0.000 C 
ATOM     12  O2  UNL     1      19.650   3.455   9.591  0.00  0.00    +0.000 OA
ATOM     13  H13 UNL     1      17.418   5.382   8.506  0.00  0.00    +0.000 HD
BRANCH  11  14
ATOM     14  C9  UNL     1      19.725   5.764   9.107  0.00  0.00    +0.000 A 
ATOM     15  C10 UNL     1      21.083   5.981   9.045  0.00  0.00    +0.000 A 
ATOM     16  O3  UNL     1      21.295   7.318   8.894  0.00  0.00    +0.000 OA
ATOM     17  C11 UNL     1      20.041   7.848   8.870  0.00  0.00    +0.000 A 
ATOM     18  N3  UNL     1      19.063   6.979   8.996  0.00  0.00    +0.000 NA
ENDBRANCH  11  14
ENDBRANCH   1  10
TORSDOF 3
ENDMDL
MODEL 9
REMARK VINA RESULT:    -4.746     13.985     15.154
REMARK INTER + INTRA:          -5.827
REMARK INTER:                  -5.579
REMARK INTRA:                  -0.248
REMARK UNBOUND:                -0.248
REMARK  Name = /home/anacleto/Desktop/manuscript_Mpro/naturecomm/supplementary_file_S2/6-chemical-library/molecular_docking/3D_ligand_structure/590.pdb
REMARK  3 active torsions:
REMARK  status: ('A' for Active; 'I' for Inactive)
REMARK    1  A    between atoms: C6_7  and  C7_9
REMARK    2  A    between atoms: C7_9  and  N2_10
REMARK    3  A    between atoms: C8_11  and  C9_13
REMARK                            x       y       z     vdW  Elec       q    Type
REMARK                         _______ _______ _______ _____ _____    ______ ____
ROOT
ATOM      1  C7  UNL     1      17.884   3.034   9.458  0.00  0.00    +0.000 C 
ENDROOT
BRANCH   1   8
ATOM      2  C1  UNL     1      19.767   5.145   8.760  0.00  0.00    +0.000 C 
ATOM      3  C2  UNL     1      20.987   6.058   8.766  0.00  0.00    +0.000 C 
ATOM      4  C3  UNL     1      20.625   7.502   9.112  0.00  0.00    +0.000 C 
ATOM      5  C4  UNL     1      19.448   7.608  10.083  0.00  0.00    +0.000 C 
ATOM      6  C5  UNL     1      19.254   6.335  10.898  0.00  0.00    +0.000 C 
ATOM      7  N1  UNL     1      19.040   5.175  10.031  0.00  0.00    +0.000 N 
ATOM      8  C6  UNL     1      18.144   4.190  10.439  0.00  0.00    +0.000 C 
ATOM      9  O1  UNL     1      17.551   4.251  11.520  0.00  0.00    +0.000 OA
ENDBRANCH   1   8
BRANCH   1  10
ATOM     10  N2  UNL     1      16.523   2.552   9.575  0.00  0.00    +0.000 N 
ATOM     11  C8  UNL     1      15.766   2.293   8.453  0.00  0.00    +0.000 C 
ATOM     12  O2  UNL     1      16.056   2.681   7.326  0.00  0.00    +0.000 OA
ATOM     13  H13 UNL     1      16.289   1.977  10.379  0.00  0.00    +0.000 HD
BRANCH  11  14
ATOM     14  C9  UNL     1      14.579   1.503   8.741  0.00  0.00    +0.000 A 
ATOM     15  C10 UNL     1      14.260   0.279   8.198  0.00  0.00    +0.000 A 
ATOM     16  O3  UNL     1      13.073  -0.127   8.730  0.00  0.00    +0.000 OA
ATOM     17  C11 UNL     1      12.733   0.882   9.578  0.00  0.00    +0.000 A 
ATOM     18  N3  UNL     1      13.582   1.884   9.629  0.00  0.00    +0.000 NA
ENDBRANCH  11  14
ENDBRANCH   1  10
TORSDOF 3
ENDMDL
