REMARK  Name = /home/anacleto/Desktop/manuscript_Mpro/naturecomm/supplementary_file_S2/6-chemical-library/molecular_docking/3D_ligand_structure/100.pdb
REMARK  0 active torsions:
REMARK  status: ('A' for Active; 'I' for Inactive)
REMARK                            x       y       z     vdW  Elec       q    Type
REMARK                         _______ _______ _______ _____ _____    ______ ____
ROOT
ATOM      1  C1  UNL     1       0.718  -0.703  -0.080  0.00  0.00    +0.000 A 
ATOM      2  C2  UNL     1      -0.698  -0.700  -0.244  0.00  0.00    +0.000 A 
ATOM      3  C3  UNL     1      -1.229   0.565  -0.117  0.00  0.00    +0.000 A 
ATOM      4  S1  UNL     1      -0.025   1.740   0.199  0.00  0.00    +0.000 S 
ATOM      5  C4  UNL     1       1.213   0.559   0.166  0.00  0.00    +0.000 A 
ENDROOT
TORSDOF 0
