REMARK  Name = /home/anacleto/Desktop/manuscript_Mpro/naturecomm/supplementary_file_S2/6-chemical-library/molecular_docking/3D_ligand_structure/1005.pdb
REMARK  1 active torsions:
REMARK  status: ('A' for Active; 'I' for Inactive)
REMARK    1  A    between atoms: C7_8  and  C8_9
REMARK                            x       y       z     vdW  Elec       q    Type
REMARK                         _______ _______ _______ _____ _____    ______ ____
ROOT
ATOM      1  C1  UNL     1       1.325   0.825  -0.488  0.00  0.00    +0.000 C 
ATOM      2  C2  UNL     1       2.507   1.389  -0.773  0.00  0.00    +0.000 C 
ATOM      3  C3  UNL     1       3.775   0.684  -0.466  0.00  0.00    +0.000 C 
ATOM      4  O1  UNL     1       4.861   1.191  -0.722  0.00  0.00    +0.000 OA
ATOM      5  C4  UNL     1       3.683  -0.656   0.162  0.00  0.00    +0.000 C 
ATOM      6  C5  UNL     1       2.490  -1.201   0.437  0.00  0.00    +0.000 C 
ATOM      7  C6  UNL     1       1.249  -0.495   0.130  0.00  0.00    +0.000 C 
ATOM      8  C7  UNL     1       0.077  -1.093   0.430  0.00  0.00    +0.000 C 
ENDROOT
BRANCH   8   9
ATOM      9  C8  UNL     1      -1.258  -0.534   0.193  0.00  0.00    +0.000 A 
ATOM     10  C9  UNL     1      -1.916  -0.774  -1.018  0.00  0.00    +0.000 A 
ATOM     11  C10 UNL     1      -3.183  -0.235  -1.246  0.00  0.00    +0.000 A 
ATOM     12  C11 UNL     1      -3.796   0.545  -0.266  0.00  0.00    +0.000 A 
ATOM     13  C12 UNL     1      -3.144   0.787   0.943  0.00  0.00    +0.000 A 
ATOM     14  C13 UNL     1      -1.876   0.249   1.173  0.00  0.00    +0.000 A 
ENDBRANCH   8   9
TORSDOF 1
