REMARK  Name = /home/anacleto/Desktop/manuscript_Mpro/naturecomm/supplementary_file_S2/6-chemical-library/molecular_docking/3D_ligand_structure/1007.pdb
REMARK  3 active torsions:
REMARK  status: ('A' for Active; 'I' for Inactive)
REMARK    1  A    between atoms: C4_5  and  C5_6
REMARK    2  A    between atoms: C5_6  and  S1_8
REMARK    3  A    between atoms: S1_8  and  C6_9
REMARK                            x       y       z     vdW  Elec       q    Type
REMARK                         _______ _______ _______ _____ _____    ______ ____
ROOT
ATOM      1  C5  UNL     1      -0.294   1.470  -0.085  0.00  0.00    +0.000 C 
ATOM      2  O2  UNL     1      -0.095   2.280  -0.986  0.00  0.00    +0.000 OA
ENDROOT
BRANCH   1   7
ATOM      3  O1  UNL     1      -1.575  -0.325   0.997  0.00  0.00    +0.000 OA
ATOM      4  C1  UNL     1      -2.627  -1.129   0.699  0.00  0.00    +0.000 A 
ATOM      5  C2  UNL     1      -3.106  -0.850  -0.558  0.00  0.00    +0.000 A 
ATOM      6  C3  UNL     1      -2.293   0.192  -1.064  0.00  0.00    +0.000 A 
ATOM      7  C4  UNL     1      -1.359   0.489  -0.086  0.00  0.00    +0.000 A 
ENDBRANCH   1   7
BRANCH   1   8
ATOM      8  S1  UNL     1       0.707   1.490   1.360  0.00  0.00    +0.000 S 
BRANCH   8   9
ATOM      9  C6  UNL     1       2.035   0.582   0.689  0.00  0.00    +0.000 A 
ATOM     10  N1  UNL     1       1.887  -0.322  -0.257  0.00  0.00    +0.000 NA
ATOM     11  N2  UNL     1       3.085  -0.915  -0.607  0.00  0.00    +0.000 NA
ATOM     12  C7  UNL     1       4.087  -0.440   0.100  0.00  0.00    +0.000 A 
ATOM     13  S2  UNL     1       3.650   0.758   1.245  0.00  0.00    +0.000 S 
ENDBRANCH   8   9
ENDBRANCH   1   8
TORSDOF 3
