REMARK  Name = /home/anacleto/Desktop/manuscript_Mpro/naturecomm/supplementary_file_S2/6-chemical-library/molecular_docking/3D_ligand_structure/102.pdb
REMARK  0 active torsions:
REMARK  status: ('A' for Active; 'I' for Inactive)
REMARK                            x       y       z     vdW  Elec       q    Type
REMARK                         _______ _______ _______ _____ _____    ______ ____
ROOT
ATOM      1  C1  UNL     1       0.641   0.642  -0.548  0.00  0.00    +0.000 C 
ATOM      2  C2  UNL     1      -0.691   0.792   0.142  0.00  0.00    +0.000 C 
ATOM      3  C3  UNL     1      -1.138  -0.648   0.270  0.00  0.00    +0.000 C 
ATOM      4  O1  UNL     1       0.050  -1.440   0.409  0.00  0.00    +0.000 OA
ATOM      5  C4  UNL     1       1.182  -0.619   0.089  0.00  0.00    +0.000 C 
ENDROOT
TORSDOF 0
