REMARK  Name = /home/anacleto/Desktop/manuscript_Mpro/naturecomm/supplementary_file_S2/6-chemical-library/molecular_docking/3D_ligand_structure/1038.pdb
REMARK  1 active torsions:
REMARK  status: ('A' for Active; 'I' for Inactive)
REMARK    1  A    between atoms: C6_6  and  C7_7
REMARK                            x       y       z     vdW  Elec       q    Type
REMARK                         _______ _______ _______ _____ _____    ______ ____
ROOT
ATOM      1  C7  UNL     1      -0.722  -0.614   0.521  0.00  0.00    +0.000 C 
ATOM      2  N1  UNL     1      -1.517   0.529   0.934  0.00  0.00    +0.000 N 
ATOM      3  C8  UNL     1      -1.315  -1.277  -0.687  0.00  0.00    +0.000 C 
ATOM      4  C9  UNL     1      -2.478  -0.888  -1.216  0.00  0.00    +0.000 C 
ATOM      5  N2  UNL     1      -3.163   0.153  -0.659  0.00  0.00    +0.000 N 
ATOM      6  C10 UNL     1      -2.717   0.876   0.406  0.00  0.00    +0.000 C 
ATOM      7  S1  UNL     1      -3.595   2.145   1.022  0.00  0.00    +0.000 S 
ATOM      8  H7  UNL     1      -1.195   1.068   1.726  0.00  0.00    +0.000 HD
ATOM      9  H10 UNL     1      -4.052   0.437  -1.059  0.00  0.00    +0.000 HD
ENDROOT
BRANCH   1  15
ATOM     10  C1  UNL     1       1.757  -0.898   0.966  0.00  0.00    +0.000 A 
ATOM     11  C2  UNL     1       3.091  -0.535   0.769  0.00  0.00    +0.000 A 
ATOM     12  C3  UNL     1       3.410   0.519  -0.085  0.00  0.00    +0.000 A 
ATOM     13  C4  UNL     1       2.397   1.211  -0.745  0.00  0.00    +0.000 A 
ATOM     14  C5  UNL     1       1.063   0.849  -0.551  0.00  0.00    +0.000 A 
ATOM     15  C6  UNL     1       0.724  -0.208   0.311  0.00  0.00    +0.000 A 
ENDBRANCH   1  15
TORSDOF 1
