REMARK  Name = /home/anacleto/Desktop/manuscript_Mpro/naturecomm/supplementary_file_S2/6-chemical-library/molecular_docking/3D_ligand_structure/1043.pdb
REMARK  2 active torsions:
REMARK  status: ('A' for Active; 'I' for Inactive)
REMARK    1  A    between atoms: C5_6  and  O2_7
REMARK    2  A    between atoms: O2_7  and  C6_8
REMARK                            x       y       z     vdW  Elec       q    Type
REMARK                         _______ _______ _______ _____ _____    ______ ____
ROOT
ATOM      1  O2  UNL     1       0.042  -0.745  -0.715  0.00  0.00    +0.000 OA
ENDROOT
BRANCH   1   7
ATOM      2  C1  UNL     1       2.350  -1.458  -0.687  0.00  0.00    +0.000 C 
ATOM      3  O1  UNL     1       3.098  -0.476  -1.405  0.00  0.00    +0.000 OA
ATOM      4  C2  UNL     1       3.820   0.409  -0.548  0.00  0.00    +0.000 C 
ATOM      5  C3  UNL     1       3.097   0.718   0.761  0.00  0.00    +0.000 C 
ATOM      6  C4  UNL     1       1.592   0.594   0.593  0.00  0.00    +0.000 C 
ATOM      7  C5  UNL     1       1.206  -0.815   0.122  0.00  0.00    +0.000 C 
ENDBRANCH   1   7
BRANCH   1   8
ATOM      8  C6  UNL     1      -1.191  -0.803   0.000  0.00  0.00    +0.000 C 
ATOM      9  C7  UNL     1      -2.321  -0.958  -1.030  0.00  0.00    +0.000 C 
ATOM     10  C8  UNL     1      -3.621  -0.368  -0.509  0.00  0.00    +0.000 C 
ATOM     11  C9  UNL     1      -3.429   1.104  -0.143  0.00  0.00    +0.000 C 
ATOM     12  C10 UNL     1      -1.977   1.427   0.194  0.00  0.00    +0.000 C 
ATOM     13  O3  UNL     1      -1.377   0.322   0.859  0.00  0.00    +0.000 OA
ENDBRANCH   1   8
TORSDOF 2
