REMARK  Name = /home/anacleto/Desktop/manuscript_Mpro/naturecomm/supplementary_file_S2/6-chemical-library/molecular_docking/3D_ligand_structure/1058.pdb
REMARK  1 active torsions:
REMARK  status: ('A' for Active; 'I' for Inactive)
REMARK    1  A    between atoms: C2_5  and  C3_6
REMARK                            x       y       z     vdW  Elec       q    Type
REMARK                         _______ _______ _______ _____ _____    ______ ____
ROOT
ATOM      1  C3  UNL     1       0.911   0.273   1.149  0.00  0.00    +0.000 C 
ATOM      2  O1  UNL     1       0.917   0.784   2.273  0.00  0.00    +0.000 OA
ATOM      3  N4  UNL     1      -0.258   0.293   0.371  0.00  0.00    +0.000 N 
ATOM      4  C4  UNL     1      -1.512   0.543   1.088  0.00  0.00    +0.000 C 
ATOM      5  C5  UNL     1      -2.655   1.016   0.178  0.00  0.00    +0.000 C 
ATOM      6  N5  UNL     1      -2.856   0.128  -0.975  0.00  0.00    +0.000 NA
ATOM      7  C6  UNL     1      -1.605   0.052  -1.742  0.00  0.00    +0.000 C 
ATOM      8  C7  UNL     1      -0.398  -0.418  -0.907  0.00  0.00    +0.000 C 
ATOM      9  H7  UNL     1      -3.590   0.513  -1.570  0.00  0.00    +0.000 HD
ENDROOT
BRANCH   1  14
ATOM     10  N1  UNL     1       3.305  -0.283   1.349  0.00  0.00    +0.000 N 
ATOM     11  N2  UNL     1       4.293  -0.935   0.716  0.00  0.00    +0.000 NA
ATOM     12  C1  UNL     1       3.653  -1.393  -0.361  0.00  0.00    +0.000 A 
ATOM     13  N3  UNL     1       2.330  -1.061  -0.437  0.00  0.00    +0.000 NA
ATOM     14  C2  UNL     1       2.128  -0.344   0.654  0.00  0.00    +0.000 A 
ATOM     15  H1  UNL     1       3.476   0.178   2.237  0.00  0.00    +0.000 HD
ENDBRANCH   1  14
TORSDOF 1
