REMARK  Name = /home/anacleto/Desktop/manuscript_Mpro/naturecomm/supplementary_file_S2/6-chemical-library/molecular_docking/3D_ligand_structure/1059.pdb
REMARK  2 active torsions:
REMARK  status: ('A' for Active; 'I' for Inactive)
REMARK    1  A    between atoms: C2_5  and  C3_6
REMARK    2  A    between atoms: C3_6  and  N3_7
REMARK                            x       y       z     vdW  Elec       q    Type
REMARK                         _______ _______ _______ _____ _____    ______ ____
ROOT
ATOM      1  N3  UNL     1       0.021   0.147   0.679  0.00  0.00    +0.000 N 
ATOM      2  C4  UNL     1      -0.580  -0.757  -0.301  0.00  0.00    +0.000 C 
ATOM      3  C5  UNL     1      -1.765  -0.148  -1.032  0.00  0.00    +0.000 C 
ATOM      4  C6  UNL     1      -2.764   0.375  -0.017  0.00  0.00    +0.000 C 
ATOM      5  C7  UNL     1      -2.097   1.420   0.857  0.00  0.00    +0.000 C 
ATOM      6  C8  UNL     1      -0.787   0.961   1.468  0.00  0.00    +0.000 C 
ATOM      7  O2  UNL     1      -0.436   1.381   2.570  0.00  0.00    +0.000 OA
ENDROOT
BRANCH   1   8
ATOM      8  C3  UNL     1       1.310  -0.246   1.264  0.00  0.00    +0.000 C 
BRANCH   8  13
ATOM      9  O1  UNL     1       2.914  -1.704   0.174  0.00  0.00    +0.000 OA
ATOM     10  N1  UNL     1       3.849  -1.672  -0.863  0.00  0.00    +0.000 NA
ATOM     11  C1  UNL     1       3.759  -0.417  -1.310  0.00  0.00    +0.000 A 
ATOM     12  N2  UNL     1       2.848   0.371  -0.670  0.00  0.00    +0.000 NA
ATOM     13  C2  UNL     1       2.359  -0.455   0.231  0.00  0.00    +0.000 A 
ENDBRANCH   8  13
ENDBRANCH   1   8
TORSDOF 2
