REMARK  Name = /home/anacleto/Desktop/manuscript_Mpro/naturecomm/supplementary_file_S2/6-chemical-library/molecular_docking/3D_ligand_structure/1061.pdb
REMARK  1 active torsions:
REMARK  status: ('A' for Active; 'I' for Inactive)
REMARK    1  A    between atoms: C3_5  and  C4_6
REMARK                            x       y       z     vdW  Elec       q    Type
REMARK                         _______ _______ _______ _____ _____    ______ ____
ROOT
ATOM      1  C4  UNL     1       0.612  -0.595  -0.951  0.00  0.00    +0.000 C 
ATOM      2  O1  UNL     1       0.672  -1.300  -1.962  0.00  0.00    +0.000 OA
ATOM      3  N3  UNL     1      -0.624  -0.301  -0.370  0.00  0.00    +0.000 N 
ATOM      4  C5  UNL     1      -0.860   0.689   0.684  0.00  0.00    +0.000 C 
ATOM      5  C6  UNL     1      -2.321   1.158   0.695  0.00  0.00    +0.000 C 
ATOM      6  O2  UNL     1      -3.268   0.093   0.844  0.00  0.00    +0.000 OA
ATOM      7  C7  UNL     1      -2.853  -1.144   0.248  0.00  0.00    +0.000 C 
ATOM      8  C8  UNL     1      -1.819  -0.980  -0.869  0.00  0.00    +0.000 C 
ENDROOT
BRANCH   1  13
ATOM      9  N1  UNL     1       1.971   0.466   0.881  0.00  0.00    +0.000 NA
ATOM     10  N2  UNL     1       3.274   0.762   1.011  0.00  0.00    +0.000 N 
ATOM     11  C1  UNL     1       4.020   0.443  -0.081  0.00  0.00    +0.000 A 
ATOM     12  C2  UNL     1       3.142  -0.106  -0.981  0.00  0.00    +0.000 A 
ATOM     13  C3  UNL     1       1.863  -0.069  -0.352  0.00  0.00    +0.000 A 
ATOM     14  H1  UNL     1       3.587   1.180   1.881  0.00  0.00    +0.000 HD
ENDBRANCH   1  13
TORSDOF 1
