REMARK  Name = /home/anacleto/Desktop/manuscript_Mpro/naturecomm/supplementary_file_S2/6-chemical-library/molecular_docking/3D_ligand_structure/108.pdb
REMARK  0 active torsions:
REMARK  status: ('A' for Active; 'I' for Inactive)
REMARK                            x       y       z     vdW  Elec       q    Type
REMARK                         _______ _______ _______ _____ _____    ______ ____
ROOT
ATOM      1  C1  UNL     1       1.110  -0.067   0.014  0.00  0.00    +0.000 A 
ATOM      2  C2  UNL     1      -0.026   0.765   0.001  0.00  0.00    +0.000 A 
ATOM      3  N1  UNL     1      -1.116  -0.064  -0.014  0.00  0.00    +0.000 N 
ATOM      4  O1  UNL     1      -0.662  -1.419  -0.010  0.00  0.00    +0.000 OA
ATOM      5  N2  UNL     1       0.742  -1.363   0.008  0.00  0.00    +0.000 NA
ATOM      6  H3  UNL     1      -2.115   0.116  -0.026  0.00  0.00    +0.000 HD
ENDROOT
TORSDOF 0
