REMARK  Name = /home/anacleto/Desktop/manuscript_Mpro/naturecomm/supplementary_file_S2/6-chemical-library/molecular_docking/3D_ligand_structure/1084.pdb
REMARK  1 active torsions:
REMARK  status: ('A' for Active; 'I' for Inactive)
REMARK    1  A    between atoms: N2_7  and  C5_8
REMARK                            x       y       z     vdW  Elec       q    Type
REMARK                         _______ _______ _______ _____ _____    ______ ____
ROOT
ATOM      1  C1  UNL     1      -3.234   0.687  -0.432  0.00  0.00    +0.000 C 
ATOM      2  C2  UNL     1      -3.836  -0.503   0.321  0.00  0.00    +0.000 C 
ATOM      3  C3  UNL     1      -2.410  -0.894   0.725  0.00  0.00    +0.000 C 
ATOM      4  N1  UNL     1      -1.962  -0.027  -0.358  0.00  0.00    +0.000 N 
ATOM      5  C4  UNL     1      -0.724   0.540  -0.571  0.00  0.00    +0.000 C 
ATOM      6  O1  UNL     1      -0.605   1.627  -1.125  0.00  0.00    +0.000 OA
ATOM      7  N2  UNL     1       0.311  -0.245  -0.113  0.00  0.00    +0.000 N 
ATOM      8  H7  UNL     1       0.051  -1.175   0.178  0.00  0.00    +0.000 HD
ENDROOT
BRANCH   7   9
ATOM      9  C5  UNL     1       1.685   0.063  -0.129  0.00  0.00    +0.000 A 
ATOM     10  C6  UNL     1       2.577  -0.923   0.302  0.00  0.00    +0.000 A 
ATOM     11  C7  UNL     1       3.947  -0.667   0.314  0.00  0.00    +0.000 A 
ATOM     12  C8  UNL     1       4.387   0.576  -0.106  0.00  0.00    +0.000 A 
ATOM     13  N3  UNL     1       3.561   1.556  -0.525  0.00  0.00    +0.000 NA
ATOM     14  C9  UNL     1       2.230   1.280  -0.529  0.00  0.00    +0.000 A 
ENDBRANCH   7   9
TORSDOF 1
