REMARK  Name = /home/anacleto/Desktop/manuscript_Mpro/naturecomm/supplementary_file_S2/6-chemical-library/molecular_docking/3D_ligand_structure/1087.pdb
REMARK  1 active torsions:
REMARK  status: ('A' for Active; 'I' for Inactive)
REMARK    1  A    between atoms: N2_7  and  C4_8
REMARK                            x       y       z     vdW  Elec       q    Type
REMARK                         _______ _______ _______ _____ _____    ______ ____
ROOT
ATOM      1  O1  UNL     1      -1.191  -2.154  -0.516  0.00  0.00    +0.000 OA
ATOM      2  C1  UNL     1      -1.521  -0.995  -0.293  0.00  0.00    +0.000 C 
ATOM      3  C2  UNL     1      -2.979  -0.571  -0.285  0.00  0.00    +0.000 C 
ATOM      4  N1  UNL     1      -2.858   0.816   0.011  0.00  0.00    +0.000 N 
ATOM      5  C3  UNL     1      -1.545   1.201   0.165  0.00  0.00    +0.000 C 
ATOM      6  O2  UNL     1      -1.261   2.360   0.422  0.00  0.00    +0.000 OA
ATOM      7  N2  UNL     1      -0.731   0.105  -0.019  0.00  0.00    +0.000 N 
ATOM      8  H3  UNL     1      -3.613   1.484   0.108  0.00  0.00    +0.000 HD
ENDROOT
BRANCH   7   9
ATOM      9  C4  UNL     1       0.694   0.115   0.063  0.00  0.00    +0.000 A 
ATOM     10  C5  UNL     1       1.465  -1.039  -0.135  0.00  0.00    +0.000 A 
ATOM     11  C6  UNL     1       2.859  -0.999  -0.049  0.00  0.00    +0.000 A 
ATOM     12  C7  UNL     1       3.468   0.205   0.236  0.00  0.00    +0.000 A 
ATOM     13  N3  UNL     1       2.783   1.345   0.436  0.00  0.00    +0.000 NA
ATOM     14  C8  UNL     1       1.426   1.273   0.345  0.00  0.00    +0.000 A 
ENDBRANCH   7   9
TORSDOF 1
