REMARK  Name = /home/anacleto/Desktop/manuscript_Mpro/naturecomm/supplementary_file_S2/6-chemical-library/molecular_docking/3D_ligand_structure/1088.pdb
REMARK  2 active torsions:
REMARK  status: ('A' for Active; 'I' for Inactive)
REMARK    1  A    between atoms: C6_6  and  N1_7
REMARK    2  A    between atoms: N1_7  and  C7_8
REMARK                            x       y       z     vdW  Elec       q    Type
REMARK                         _______ _______ _______ _____ _____    ______ ____
ROOT
ATOM      1  N1  UNL     1       0.406   0.789   0.519  0.00  0.00    +0.000 N 
ATOM      2  H6  UNL     1       0.375   1.795   0.666  0.00  0.00    +0.000 HD
ENDROOT
BRANCH   1   3
ATOM      3  C7  UNL     1      -0.810   0.236  -0.085  0.00  0.00    +0.000 C 
ATOM      4  C8  UNL     1      -1.325  -0.935   0.759  0.00  0.00    +0.000 C 
ATOM      5  C9  UNL     1      -2.666  -1.433   0.226  0.00  0.00    +0.000 C 
ATOM      6  N2  UNL     1      -3.667  -0.366   0.174  0.00  0.00    +0.000 NA
ATOM      7  C10 UNL     1      -3.208   0.752  -0.651  0.00  0.00    +0.000 C 
ATOM      8  C11 UNL     1      -1.888   1.327  -0.148  0.00  0.00    +0.000 C 
ATOM      9  H12 UNL     1      -3.844  -0.031   1.123  0.00  0.00    +0.000 HD
ENDBRANCH   1   3
BRANCH   1  15
ATOM     10  C1  UNL     1       1.941  -0.840  -0.526  0.00  0.00    +0.000 A 
ATOM     11  C2  UNL     1       3.251  -1.242  -0.816  0.00  0.00    +0.000 A 
ATOM     12  C3  UNL     1       4.329  -0.459  -0.416  0.00  0.00    +0.000 A 
ATOM     13  C4  UNL     1       4.096   0.719   0.283  0.00  0.00    +0.000 A 
ATOM     14  C5  UNL     1       2.786   1.115   0.568  0.00  0.00    +0.000 A 
ATOM     15  C6  UNL     1       1.680   0.362   0.142  0.00  0.00    +0.000 A 
ENDBRANCH   1  15
TORSDOF 2
