REMARK  Name = /home/anacleto/Desktop/manuscript_Mpro/naturecomm/supplementary_file_S2/6-chemical-library/molecular_docking/3D_ligand_structure/1089.pdb
REMARK  2 active torsions:
REMARK  status: ('A' for Active; 'I' for Inactive)
REMARK    1  A    between atoms: N2_6  and  C5_7
REMARK    2  A    between atoms: C5_7  and  C6_8
REMARK                            x       y       z     vdW  Elec       q    Type
REMARK                         _______ _______ _______ _____ _____    ______ ____
ROOT
ATOM      1  C1  UNL     1       1.056  -1.141  -0.388  0.00  0.00    +0.000 C 
ATOM      2  C2  UNL     1       1.955  -1.169   0.874  0.00  0.00    +0.000 C 
ATOM      3  N1  UNL     1       2.968  -0.098   0.952  0.00  0.00    +0.000 NA
ATOM      4  C3  UNL     1       3.324   0.344  -0.404  0.00  0.00    +0.000 C 
ATOM      5  C4  UNL     1       2.113   0.863  -1.223  0.00  0.00    +0.000 C 
ATOM      6  N2  UNL     1       0.815   0.203  -0.949  0.00  0.00    +0.000 NA
ATOM      7  H5  UNL     1       2.547   0.696   1.433  0.00  0.00    +0.000 HD
ENDROOT
BRANCH   6   8
ATOM      8  C5  UNL     1      -0.036   1.036  -0.083  0.00  0.00    +0.000 C 
BRANCH   8   9
ATOM      9  C6  UNL     1      -1.446   0.504   0.077  0.00  0.00    +0.000 A 
ATOM     10  C7  UNL     1      -2.263   0.305  -1.046  0.00  0.00    +0.000 A 
ATOM     11  C8  UNL     1      -3.566  -0.175  -0.900  0.00  0.00    +0.000 A 
ATOM     12  C9  UNL     1      -4.066  -0.457   0.369  0.00  0.00    +0.000 A 
ATOM     13  C10 UNL     1      -3.266  -0.260   1.493  0.00  0.00    +0.000 A 
ATOM     14  C11 UNL     1      -1.962   0.219   1.349  0.00  0.00    +0.000 A 
ENDBRANCH   8   9
ENDBRANCH   6   8
TORSDOF 2
