REMARK  Name = /home/anacleto/Desktop/manuscript_Mpro/naturecomm/supplementary_file_S2/6-chemical-library/molecular_docking/3D_ligand_structure/1092.pdb
REMARK  1 active torsions:
REMARK  status: ('A' for Active; 'I' for Inactive)
REMARK    1  A    between atoms: C3_5  and  C5_8
REMARK                            x       y       z     vdW  Elec       q    Type
REMARK                         _______ _______ _______ _____ _____    ______ ____
ROOT
ATOM      1  N1  UNL     1      -2.313  -0.950   0.709  0.00  0.00    +0.000 N 
ATOM      2  C1  UNL     1      -2.871   0.092  -0.125  0.00  0.00    +0.000 C 
ATOM      3  C2  UNL     1      -1.816   0.804  -0.975  0.00  0.00    +0.000 C 
ATOM      4  N2  UNL     1      -0.958  -0.169  -1.668  0.00  0.00    +0.000 NA
ATOM      5  C3  UNL     1      -0.211  -0.996  -0.671  0.00  0.00    +0.000 C 
ATOM      6  C4  UNL     1      -1.172  -1.640   0.368  0.00  0.00    +0.000 C 
ATOM      7  O1  UNL     1      -0.925  -2.701   0.942  0.00  0.00    +0.000 OA
ATOM      8  H1  UNL     1      -2.915  -1.445   1.356  0.00  0.00    +0.000 HD
ATOM      9  H6  UNL     1      -1.551  -0.806  -2.199  0.00  0.00    +0.000 HD
ENDROOT
BRANCH   5  10
ATOM     10  C5  UNL     1       0.969  -0.237  -0.067  0.00  0.00    +0.000 A 
ATOM     11  C6  UNL     1       1.187  -0.135   1.316  0.00  0.00    +0.000 A 
ATOM     12  C7  UNL     1       2.292   0.559   1.818  0.00  0.00    +0.000 A 
ATOM     13  C8  UNL     1       3.200   1.158   0.949  0.00  0.00    +0.000 A 
ATOM     14  C9  UNL     1       3.006   1.062  -0.426  0.00  0.00    +0.000 A 
ATOM     15  C10 UNL     1       1.904   0.369  -0.928  0.00  0.00    +0.000 A 
ENDBRANCH   5  10
TORSDOF 1
