REMARK  Name = /home/anacleto/Desktop/manuscript_Mpro/naturecomm/supplementary_file_S2/6-chemical-library/molecular_docking/3D_ligand_structure/1108.pdb
REMARK  3 active torsions:
REMARK  status: ('A' for Active; 'I' for Inactive)
REMARK    1  A    between atoms: C5_5  and  C6_6
REMARK    2  A    between atoms: C6_6  and  N1_7
REMARK    3  A    between atoms: N1_7  and  C7_8
REMARK                            x       y       z     vdW  Elec       q    Type
REMARK                         _______ _______ _______ _____ _____    ______ ____
ROOT
ATOM      1  N1  UNL     1       1.029  -0.770   0.616  0.00  0.00    +0.000 N 
ATOM      2  H12 UNL     1       1.403  -1.466   1.256  0.00  0.00    +0.000 HD
ENDROOT
BRANCH   1   3
ATOM      3  C7  UNL     1       2.019  -0.225  -0.202  0.00  0.00    +0.000 A 
ATOM      4  C8  UNL     1       3.133  -1.019  -0.516  0.00  0.00    +0.000 A 
ATOM      5  C9  UNL     1       4.136  -0.566  -1.379  0.00  0.00    +0.000 A 
ATOM      6  C10 UNL     1       4.029   0.689  -1.969  0.00  0.00    +0.000 A 
ATOM      7  C11 UNL     1       2.915   1.478  -1.703  0.00  0.00    +0.000 A 
ATOM      8  C12 UNL     1       1.915   1.017  -0.839  0.00  0.00    +0.000 A 
ENDBRANCH   1   3
BRANCH   1   9
ATOM      9  C6  UNL     1      -0.012   0.056   1.217  0.00  0.00    +0.000 C 
BRANCH   9  14
ATOM     10  C1  UNL     1      -1.965  -1.265   0.217  0.00  0.00    +0.000 C 
ATOM     11  C2  UNL     1      -3.370  -0.913  -0.266  0.00  0.00    +0.000 C 
ATOM     12  C3  UNL     1      -3.618   0.533   0.164  0.00  0.00    +0.000 C 
ATOM     13  C4  UNL     1      -2.363   0.972   0.911  0.00  0.00    +0.000 C 
ATOM     14  C5  UNL     1      -1.260   0.087   0.335  0.00  0.00    +0.000 C 
ENDBRANCH   9  14
ENDBRANCH   1   9
TORSDOF 3
