REMARK  Name = /home/anacleto/Desktop/manuscript_Mpro/naturecomm/supplementary_file_S2/6-chemical-library/molecular_docking/3D_ligand_structure/1118.pdb
REMARK  3 active torsions:
REMARK  status: ('A' for Active; 'I' for Inactive)
REMARK    1  A    between atoms: C2_5  and  C3_6
REMARK    2  A    between atoms: C3_6  and  O1_7
REMARK    3  A    between atoms: O1_7  and  C4_8
REMARK                            x       y       z     vdW  Elec       q    Type
REMARK                         _______ _______ _______ _____ _____    ______ ____
ROOT
ATOM      1  C3  UNL     1       1.009  -1.662   0.031  0.00  0.00    +0.000 C 
ENDROOT
BRANCH   1   6
ATOM      2  N1  UNL     1       1.605  -0.548  -2.134  0.00  0.00    +0.000 N 
ATOM      3  N2  UNL     1       2.637   0.049  -2.753  0.00  0.00    +0.000 NA
ATOM      4  C1  UNL     1       3.583  -0.021  -1.815  0.00  0.00    +0.000 A 
ATOM      5  N3  UNL     1       3.206  -0.629  -0.651  0.00  0.00    +0.000 NA
ATOM      6  C2  UNL     1       1.950  -0.959  -0.877  0.00  0.00    +0.000 A 
ATOM      7  H1  UNL     1       0.708  -0.631  -2.600  0.00  0.00    +0.000 HD
ENDBRANCH   1   6
BRANCH   1   8
ATOM      8  O1  UNL     1      -0.337  -1.431  -0.401  0.00  0.00    +0.000 OA
BRANCH   8   9
ATOM      9  C4  UNL     1      -1.004  -0.358   0.123  0.00  0.00    +0.000 A 
ATOM     10  C5  UNL     1      -0.424   0.724   0.788  0.00  0.00    +0.000 A 
ATOM     11  C6  UNL     1      -1.226   1.770   1.255  0.00  0.00    +0.000 A 
ATOM     12  C7  UNL     1      -2.605   1.744   1.055  0.00  0.00    +0.000 A 
ATOM     13  C8  UNL     1      -3.186   0.672   0.382  0.00  0.00    +0.000 A 
ATOM     14  C9  UNL     1      -2.386  -0.372  -0.085  0.00  0.00    +0.000 A 
ENDBRANCH   8   9
ENDBRANCH   1   8
TORSDOF 3
