REMARK  Name = /home/anacleto/Desktop/manuscript_Mpro/naturecomm/supplementary_file_S2/6-chemical-library/molecular_docking/3D_ligand_structure/1119.pdb
REMARK  3 active torsions:
REMARK  status: ('A' for Active; 'I' for Inactive)
REMARK    1  A    between atoms: C3_5  and  C4_6
REMARK    2  A    between atoms: C4_6  and  O2_7
REMARK    3  A    between atoms: O2_7  and  C5_8
REMARK                            x       y       z     vdW  Elec       q    Type
REMARK                         _______ _______ _______ _____ _____    ______ ____
ROOT
ATOM      1  O2  UNL     1       0.288  -0.365   0.226  0.00  0.00    +0.000 OA
ENDROOT
BRANCH   1   2
ATOM      2  C5  UNL     1      -1.066  -0.171   0.214  0.00  0.00    +0.000 A 
ATOM      3  C6  UNL     1      -1.722   1.044   0.010  0.00  0.00    +0.000 A 
ATOM      4  C7  UNL     1      -3.120   1.097   0.023  0.00  0.00    +0.000 A 
ATOM      5  C8  UNL     1      -3.866  -0.060   0.240  0.00  0.00    +0.000 A 
ATOM      6  C9  UNL     1      -3.216  -1.274   0.444  0.00  0.00    +0.000 A 
ATOM      7  C10 UNL     1      -1.822  -1.327   0.431  0.00  0.00    +0.000 A 
ENDBRANCH   1   2
BRANCH   1   8
ATOM      8  C4  UNL     1       1.107   0.783   0.010  0.00  0.00    +0.000 C 
BRANCH   8  13
ATOM      9  O1  UNL     1       3.453   1.312  -0.122  0.00  0.00    +0.000 OA
ATOM     10  N1  UNL     1       4.721   0.758  -0.044  0.00  0.00    +0.000 NA
ATOM     11  C1  UNL     1       4.523  -0.542   0.189  0.00  0.00    +0.000 A 
ATOM     12  C2  UNL     1       3.158  -0.863   0.268  0.00  0.00    +0.000 A 
ATOM     13  C3  UNL     1       2.519   0.338   0.066  0.00  0.00    +0.000 A 
ENDBRANCH   8  13
ENDBRANCH   1   8
TORSDOF 3
