REMARK  Name = /home/anacleto/Desktop/manuscript_Mpro/naturecomm/supplementary_file_S2/6-chemical-library/molecular_docking/3D_ligand_structure/112.pdb
REMARK  0 active torsions:
REMARK  status: ('A' for Active; 'I' for Inactive)
REMARK                            x       y       z     vdW  Elec       q    Type
REMARK                         _______ _______ _______ _____ _____    ______ ____
ROOT
ATOM      1  C1  UNL     1      -0.322   0.687   0.396  0.00  0.00    +0.000 A 
ATOM      2  N1  UNL     1       0.959   0.879   0.610  0.00  0.00    +0.000 NA
ATOM      3  N2  UNL     1       1.588  -0.256   0.157  0.00  0.00    +0.000 NA
ATOM      4  N3  UNL     1       0.709  -1.126  -0.325  0.00  0.00    +0.000 NA
ATOM      5  N4  UNL     1      -0.482  -0.534  -0.174  0.00  0.00    +0.000 N 
ATOM      6  H2  UNL     1      -1.321  -1.014  -0.474  0.00  0.00    +0.000 HD
ENDROOT
TORSDOF 0
