REMARK  Name = /home/anacleto/Desktop/manuscript_Mpro/naturecomm/supplementary_file_S2/6-chemical-library/molecular_docking/3D_ligand_structure/1125.pdb
REMARK  3 active torsions:
REMARK  status: ('A' for Active; 'I' for Inactive)
REMARK    1  A    between atoms: C4_5  and  C5_6
REMARK    2  A    between atoms: C5_6  and  N1_7
REMARK    3  A    between atoms: N1_7  and  C6_8
REMARK                            x       y       z     vdW  Elec       q    Type
REMARK                         _______ _______ _______ _____ _____    ______ ____
ROOT
ATOM      1  N1  UNL     1       0.006   0.298   0.508  0.00  0.00    +0.000 N 
ATOM      2  H6  UNL     1      -0.432   1.208   0.396  0.00  0.00    +0.000 HD
ENDROOT
BRANCH   1   3
ATOM      3  C6  UNL     1       1.387   0.410   0.289  0.00  0.00    +0.000 A 
ATOM      4  C7  UNL     1       2.083   1.396   0.987  0.00  0.00    +0.000 A 
ATOM      5  C8  UNL     1       3.461   1.518   0.820  0.00  0.00    +0.000 A 
ATOM      6  C9  UNL     1       4.117   0.645  -0.035  0.00  0.00    +0.000 A 
ATOM      7  C10 UNL     1       3.360  -0.316  -0.680  0.00  0.00    +0.000 A 
ATOM      8  N2  UNL     1       2.023  -0.450  -0.532  0.00  0.00    +0.000 NA
ENDBRANCH   1   3
BRANCH   1   9
ATOM      9  C5  UNL     1      -0.658  -0.685  -0.345  0.00  0.00    +0.000 C 
BRANCH   9  14
ATOM     10  O1  UNL     1      -2.847   0.308  -0.725  0.00  0.00    +0.000 OA
ATOM     11  C1  UNL     1      -4.153   0.102  -0.416  0.00  0.00    +0.000 A 
ATOM     12  C2  UNL     1      -4.295  -1.026   0.357  0.00  0.00    +0.000 A 
ATOM     13  C3  UNL     1      -2.991  -1.548   0.536  0.00  0.00    +0.000 A 
ATOM     14  C4  UNL     1      -2.137  -0.706  -0.146  0.00  0.00    +0.000 A 
ENDBRANCH   9  14
ENDBRANCH   1   9
TORSDOF 3
