REMARK  Name = /home/anacleto/Desktop/manuscript_Mpro/naturecomm/supplementary_file_S2/6-chemical-library/molecular_docking/3D_ligand_structure/1126.pdb
REMARK  3 active torsions:
REMARK  status: ('A' for Active; 'I' for Inactive)
REMARK    1  A    between atoms: C2_5  and  C3_6
REMARK    2  A    between atoms: C3_6  and  C4_7
REMARK    3  A    between atoms: C4_7  and  C5_8
REMARK                            x       y       z     vdW  Elec       q    Type
REMARK                         _______ _______ _______ _____ _____    ______ ____
ROOT
ATOM      1  C4  UNL     1      -0.393  -1.523  -0.642  0.00  0.00    +0.000 C 
ENDROOT
BRANCH   1   2
ATOM      2  C5  UNL     1       0.825  -0.677  -0.358  0.00  0.00    +0.000 A 
ATOM      3  C6  UNL     1       1.720  -0.348  -1.385  0.00  0.00    +0.000 A 
ATOM      4  C7  UNL     1       2.837   0.446  -1.123  0.00  0.00    +0.000 A 
ATOM      5  C8  UNL     1       3.069   0.921   0.167  0.00  0.00    +0.000 A 
ATOM      6  C9  UNL     1       2.184   0.603   1.195  0.00  0.00    +0.000 A 
ATOM      7  C10 UNL     1       1.066  -0.191   0.934  0.00  0.00    +0.000 A 
ENDBRANCH   1   2
BRANCH   1   8
ATOM      8  C3  UNL     1      -1.559  -0.731  -1.239  0.00  0.00    +0.000 C 
BRANCH   8  13
ATOM      9  N1  UNL     1      -2.364   1.503  -0.528  0.00  0.00    +0.000 NA
ATOM     10  O1  UNL     1      -3.013   1.970   0.617  0.00  0.00    +0.000 OA
ATOM     11  C1  UNL     1      -3.181   0.893   1.425  0.00  0.00    +0.000 A 
ATOM     12  N2  UNL     1      -2.712  -0.225   0.930  0.00  0.00    +0.000 NA
ATOM     13  C2  UNL     1      -2.201   0.197  -0.274  0.00  0.00    +0.000 A 
ENDBRANCH   8  13
ENDBRANCH   1   8
TORSDOF 3
