REMARK  Name = /home/anacleto/Desktop/manuscript_Mpro/naturecomm/supplementary_file_S2/6-chemical-library/molecular_docking/3D_ligand_structure/113.pdb
REMARK  0 active torsions:
REMARK  status: ('A' for Active; 'I' for Inactive)
REMARK                            x       y       z     vdW  Elec       q    Type
REMARK                         _______ _______ _______ _____ _____    ______ ____
ROOT
ATOM      1  C1  UNL     1       0.982  -0.166  -0.142  0.00  0.00    +0.000 A 
ATOM      2  N1  UNL     1       0.580   1.136  -0.119  0.00  0.00    +0.000 NA
ATOM      3  N2  UNL     1      -0.690   1.138  -0.503  0.00  0.00    +0.000 NA
ATOM      4  N3  UNL     1      -0.977  -0.150  -0.732  0.00  0.00    +0.000 N 
ATOM      5  N4  UNL     1       0.026  -1.019  -0.525  0.00  0.00    +0.000 NA
ATOM      6  H2  UNL     1      -1.898  -0.446  -1.044  0.00  0.00    +0.000 HD
ENDROOT
TORSDOF 0
