REMARK  Name = /home/anacleto/Desktop/manuscript_Mpro/naturecomm/supplementary_file_S2/6-chemical-library/molecular_docking/3D_ligand_structure/1140.pdb
REMARK  2 active torsions:
REMARK  status: ('A' for Active; 'I' for Inactive)
REMARK    1  A    between atoms: C3_5  and  C4_6
REMARK    2  A    between atoms: C4_6  and  C5_8
REMARK                            x       y       z     vdW  Elec       q    Type
REMARK                         _______ _______ _______ _____ _____    ______ ____
ROOT
ATOM      1  C4  UNL     1       0.478  -1.242  -0.572  0.00  0.00    +0.000 C 
ATOM      2  O1  UNL     1       0.429  -2.376  -1.046  0.00  0.00    +0.000 OA
ENDROOT
BRANCH   1   7
ATOM      3  N1  UNL     1       2.949  -0.926  -0.802  0.00  0.00    +0.000 NA
ATOM      4  C1  UNL     1       3.853  -0.150  -0.254  0.00  0.00    +0.000 A 
ATOM      5  N2  UNL     1       3.293   0.700   0.653  0.00  0.00    +0.000 N 
ATOM      6  C2  UNL     1       1.949   0.447   0.682  0.00  0.00    +0.000 A 
ATOM      7  C3  UNL     1       1.736  -0.569  -0.235  0.00  0.00    +0.000 A 
ATOM      8  H2  UNL     1       3.791   1.381   1.210  0.00  0.00    +0.000 HD
ENDBRANCH   1   7
BRANCH   1   9
ATOM      9  C5  UNL     1      -0.807  -0.542  -0.311  0.00  0.00    +0.000 A 
ATOM     10  C6  UNL     1      -1.870  -1.277   0.229  0.00  0.00    +0.000 A 
ATOM     11  C7  UNL     1      -3.095  -0.656   0.475  0.00  0.00    +0.000 A 
ATOM     12  C8  UNL     1      -3.265   0.694   0.169  0.00  0.00    +0.000 A 
ATOM     13  C9  UNL     1      -2.217   1.424  -0.391  0.00  0.00    +0.000 A 
ATOM     14  C10 UNL     1      -0.988   0.808  -0.639  0.00  0.00    +0.000 A 
ENDBRANCH   1   9
TORSDOF 2
