REMARK  Name = /home/anacleto/Desktop/manuscript_Mpro/naturecomm/supplementary_file_S2/6-chemical-library/molecular_docking/3D_ligand_structure/1143.pdb
REMARK  1 active torsions:
REMARK  status: ('A' for Active; 'I' for Inactive)
REMARK    1  A    between atoms: N1_5  and  C5_8
REMARK                            x       y       z     vdW  Elec       q    Type
REMARK                         _______ _______ _______ _____ _____    ______ ____
ROOT
ATOM      1  C1  UNL     1       4.006   0.410   0.920  0.00  0.00    +0.000 C 
ATOM      2  C2  UNL     1       2.823   0.042   0.427  0.00  0.00    +0.000 C 
ATOM      3  C3  UNL     1       1.495   0.605   0.748  0.00  0.00    +0.000 C 
ATOM      4  O1  UNL     1       1.292   1.512   1.533  0.00  0.00    +0.000 OA
ATOM      5  N1  UNL     1       0.642  -0.168  -0.062  0.00  0.00    +0.000 N 
ATOM      6  N2  UNL     1       1.308  -1.132  -0.834  0.00  0.00    +0.000 NA
ATOM      7  C4  UNL     1       2.569  -1.011  -0.551  0.00  0.00    +0.000 C 
ENDROOT
BRANCH   5   8
ATOM      8  C5  UNL     1      -0.768  -0.073  -0.171  0.00  0.00    +0.000 A 
ATOM      9  C6  UNL     1      -1.505   0.864   0.566  0.00  0.00    +0.000 A 
ATOM     10  C7  UNL     1      -2.898   0.941   0.443  0.00  0.00    +0.000 A 
ATOM     11  C8  UNL     1      -3.574   0.083  -0.419  0.00  0.00    +0.000 A 
ATOM     12  C9  UNL     1      -2.860  -0.853  -1.159  0.00  0.00    +0.000 A 
ATOM     13  C10 UNL     1      -1.470  -0.930  -1.035  0.00  0.00    +0.000 A 
ENDBRANCH   5   8
TORSDOF 1
