REMARK  Name = /home/anacleto/Desktop/manuscript_Mpro/naturecomm/supplementary_file_S2/6-chemical-library/molecular_docking/3D_ligand_structure/1147.pdb
REMARK  1 active torsions:
REMARK  status: ('A' for Active; 'I' for Inactive)
REMARK    1  A    between atoms: C6_6  and  C7_7
REMARK                            x       y       z     vdW  Elec       q    Type
REMARK                         _______ _______ _______ _____ _____    ______ ____
ROOT
ATOM      1  C7  UNL     1      -0.761  -0.002   0.018  0.00  0.00    +0.000 A 
ATOM      2  C8  UNL     1      -1.577  -1.036  -0.275  0.00  0.00    +0.000 A 
ATOM      3  C9  UNL     1      -3.016  -0.904  -0.200  0.00  0.00    +0.000 A 
ATOM      4  C10 UNL     1      -3.582   0.253   0.162  0.00  0.00    +0.000 A 
ATOM      5  C11 UNL     1      -2.711   1.403   0.488  0.00  0.00    +0.000 A 
ATOM      6  O1  UNL     1      -3.186   2.482   0.825  0.00  0.00    +0.000 OA
ATOM      7  N1  UNL     1      -1.360   1.189   0.391  0.00  0.00    +0.000 N 
ATOM      8  H9  UNL     1      -0.808   1.999   0.622  0.00  0.00    +0.000 HD
ENDROOT
BRANCH   1  14
ATOM      9  C1  UNL     1       1.399  -1.273  -0.417  0.00  0.00    +0.000 A 
ATOM     10  C2  UNL     1       2.797  -1.354  -0.475  0.00  0.00    +0.000 A 
ATOM     11  C3  UNL     1       3.575  -0.249  -0.161  0.00  0.00    +0.000 A 
ATOM     12  C4  UNL     1       2.955   0.936   0.211  0.00  0.00    +0.000 A 
ATOM     13  C5  UNL     1       1.556   1.015   0.269  0.00  0.00    +0.000 A 
ATOM     14  C6  UNL     1       0.735  -0.087  -0.044  0.00  0.00    +0.000 A 
ENDBRANCH   1  14
TORSDOF 1
