REMARK  Name = /home/anacleto/Desktop/manuscript_Mpro/naturecomm/supplementary_file_S2/6-chemical-library/molecular_docking/3D_ligand_structure/1155.pdb
REMARK  2 active torsions:
REMARK  status: ('A' for Active; 'I' for Inactive)
REMARK    1  A    between atoms: C5_6  and  C6_7
REMARK    2  A    between atoms: C6_7  and  C7_8
REMARK                            x       y       z     vdW  Elec       q    Type
REMARK                         _______ _______ _______ _____ _____    ______ ____
ROOT
ATOM      1  C6  UNL     1       0.342  -1.227   0.692  0.00  0.00    +0.000 C 
ENDROOT
BRANCH   1   7
ATOM      2  C1  UNL     1       2.020  -1.289  -1.190  0.00  0.00    +0.000 A 
ATOM      3  N1  UNL     1       3.009  -0.793  -1.969  0.00  0.00    +0.000 NA
ATOM      4  C2  UNL     1       3.434   0.456  -1.684  0.00  0.00    +0.000 A 
ATOM      5  C3  UNL     1       2.921   1.228  -0.656  0.00  0.00    +0.000 A 
ATOM      6  C4  UNL     1       1.907   0.690   0.130  0.00  0.00    +0.000 A 
ATOM      7  C5  UNL     1       1.433  -0.599  -0.134  0.00  0.00    +0.000 A 
ENDBRANCH   1   7
BRANCH   1   8
ATOM      8  C7  UNL     1      -0.984  -0.504   0.621  0.00  0.00    +0.000 A 
ATOM      9  C8  UNL     1      -1.511   0.131   1.755  0.00  0.00    +0.000 A 
ATOM     10  C9  UNL     1      -2.737   0.796   1.689  0.00  0.00    +0.000 A 
ATOM     11  C10 UNL     1      -3.448   0.833   0.492  0.00  0.00    +0.000 A 
ATOM     12  C11 UNL     1      -2.936   0.205  -0.641  0.00  0.00    +0.000 A 
ATOM     13  C12 UNL     1      -1.711  -0.462  -0.578  0.00  0.00    +0.000 A 
ENDBRANCH   1   8
TORSDOF 2
