REMARK  Name = /home/anacleto/Desktop/manuscript_Mpro/naturecomm/supplementary_file_S2/6-chemical-library/molecular_docking/3D_ligand_structure/1163.pdb
REMARK  2 active torsions:
REMARK  status: ('A' for Active; 'I' for Inactive)
REMARK    1  A    between atoms: C3_5  and  C4_6
REMARK    2  A    between atoms: C4_6  and  N2_7
REMARK                            x       y       z     vdW  Elec       q    Type
REMARK                         _______ _______ _______ _____ _____    ______ ____
ROOT
ATOM      1  C4  UNL     1      -0.572   0.077   0.841  0.00  0.00    +0.000 C 
ENDROOT
BRANCH   1   2
ATOM      2  N2  UNL     1       0.323   0.889  -0.004  0.00  0.00    +0.000 NA
ATOM      3  C5  UNL     1       1.564   1.237   0.724  0.00  0.00    +0.000 C 
ATOM      4  C6  UNL     1       2.546   0.064   0.894  0.00  0.00    +0.000 C 
ATOM      5  O1  UNL     1       2.882  -0.523  -0.368  0.00  0.00    +0.000 OA
ATOM      6  C7  UNL     1       1.703  -0.964  -1.055  0.00  0.00    +0.000 C 
ATOM      7  C8  UNL     1       0.710   0.193  -1.256  0.00  0.00    +0.000 C 
ENDBRANCH   1   2
BRANCH   1  12
ATOM      8  N1  UNL     1      -2.303  -1.348  -0.248  0.00  0.00    +0.000 NA
ATOM      9  C1  UNL     1      -3.500  -1.279  -0.787  0.00  0.00    +0.000 A 
ATOM     10  S1  UNL     1      -4.236   0.269  -0.805  0.00  0.00    +0.000 S 
ATOM     11  C2  UNL     1      -2.849   0.913  -0.032  0.00  0.00    +0.000 A 
ATOM     12  C3  UNL     1      -1.916  -0.085   0.190  0.00  0.00    +0.000 A 
ENDBRANCH   1  12
TORSDOF 2
