REMARK  Name = /home/anacleto/Desktop/manuscript_Mpro/naturecomm/supplementary_file_S2/6-chemical-library/molecular_docking/3D_ligand_structure/1170.pdb
REMARK  1 active torsions:
REMARK  status: ('A' for Active; 'I' for Inactive)
REMARK    1  A    between atoms: C3_5  and  C4_6
REMARK                            x       y       z     vdW  Elec       q    Type
REMARK                         _______ _______ _______ _____ _____    ______ ____
ROOT
ATOM      1  C4  UNL     1      -0.469   0.008  -0.021  0.00  0.00    +0.000 A 
ATOM      2  C5  UNL     1      -1.471   1.086   0.249  0.00  0.00    +0.000 A 
ATOM      3  O1  UNL     1      -1.180   2.218   0.624  0.00  0.00    +0.000 OA
ATOM      4  N2  UNL     1      -2.793   0.753   0.053  0.00  0.00    +0.000 N 
ATOM      5  N3  UNL     1      -3.271  -0.453  -0.359  0.00  0.00    +0.000 NA
ATOM      6  C6  UNL     1      -2.381  -1.361  -0.583  0.00  0.00    +0.000 A 
ATOM      7  C7  UNL     1      -0.934  -1.185  -0.428  0.00  0.00    +0.000 A 
ATOM      8  H3  UNL     1      -3.482   1.477   0.234  0.00  0.00    +0.000 HD
ENDROOT
BRANCH   1  13
ATOM      9  S1  UNL     1       1.716   1.627   0.638  0.00  0.00    +0.000 S 
ATOM     10  C1  UNL     1       3.258   0.908   0.517  0.00  0.00    +0.000 A 
ATOM     11  C2  UNL     1       3.126  -0.393   0.100  0.00  0.00    +0.000 A 
ATOM     12  N1  UNL     1       1.831  -0.813  -0.121  0.00  0.00    +0.000 NA
ATOM     13  C3  UNL     1       0.953   0.154   0.122  0.00  0.00    +0.000 A 
ENDBRANCH   1  13
TORSDOF 1
