REMARK  Name = /home/anacleto/Desktop/manuscript_Mpro/naturecomm/supplementary_file_S2/6-chemical-library/molecular_docking/3D_ligand_structure/1171.pdb
REMARK  1 active torsions:
REMARK  status: ('A' for Active; 'I' for Inactive)
REMARK    1  A    between atoms: C4_5  and  C5_6
REMARK                            x       y       z     vdW  Elec       q    Type
REMARK                         _______ _______ _______ _____ _____    ______ ____
ROOT
ATOM      1  C5  UNL     1      -0.347  -0.637   0.852  0.00  0.00    +0.000 C 
ATOM      2  C6  UNL     1      -1.411  -0.515   0.047  0.00  0.00    +0.000 C 
ATOM      3  C7  UNL     1      -2.693  -1.191   0.389  0.00  0.00    +0.000 C 
ATOM      4  O1  UNL     1      -2.970  -1.890   1.342  0.00  0.00    +0.000 OA
ATOM      5  O2  UNL     1      -3.506  -0.837  -0.643  0.00  0.00    +0.000 OA
ATOM      6  C8  UNL     1      -2.766  -0.058  -1.457  0.00  0.00    +0.000 C 
ATOM      7  N1  UNL     1      -1.545   0.175  -1.129  0.00  0.00    +0.000 NA
ENDROOT
BRANCH   1  12
ATOM      8  S1  UNL     1       2.183  -0.309   1.780  0.00  0.00    +0.000 S 
ATOM      9  C1  UNL     1       3.306   0.639   0.916  0.00  0.00    +0.000 A 
ATOM     10  C2  UNL     1       2.762   1.163  -0.231  0.00  0.00    +0.000 A 
ATOM     11  C3  UNL     1       1.399   0.777  -0.398  0.00  0.00    +0.000 A 
ATOM     12  C4  UNL     1       0.926  -0.034   0.622  0.00  0.00    +0.000 A 
ENDBRANCH   1  12
TORSDOF 1
