REMARK  Name = /home/anacleto/Desktop/manuscript_Mpro/naturecomm/supplementary_file_S2/6-chemical-library/molecular_docking/3D_ligand_structure/1178.pdb
REMARK  1 active torsions:
REMARK  status: ('A' for Active; 'I' for Inactive)
REMARK    1  A    between atoms: N3_6  and  C3_7
REMARK                            x       y       z     vdW  Elec       q    Type
REMARK                         _______ _______ _______ _____ _____    ______ ____
ROOT
ATOM      1  S1  UNL     1       2.518   0.956   0.231  0.00  0.00    +0.000 S 
ATOM      2  C1  UNL     1       4.103   0.384  -0.053  0.00  0.00    +0.000 A 
ATOM      3  N1  UNL     1       4.188  -0.906  -0.280  0.00  0.00    +0.000 NA
ATOM      4  N2  UNL     1       2.949  -1.510  -0.229  0.00  0.00    +0.000 NA
ATOM      5  C2  UNL     1       1.958  -0.665  -0.008  0.00  0.00    +0.000 A 
ATOM      6  N3  UNL     1       0.674  -1.079   0.121  0.00  0.00    +0.000 N 
ATOM      7  H2  UNL     1       0.560  -2.088   0.133  0.00  0.00    +0.000 HD
ENDROOT
BRANCH   6   8
ATOM      8  C3  UNL     1      -0.537  -0.404  -0.123  0.00  0.00    +0.000 A 
ATOM      9  C4  UNL     1      -0.651   0.749  -0.907  0.00  0.00    +0.000 A 
ATOM     10  C5  UNL     1      -1.884   1.389  -1.074  0.00  0.00    +0.000 A 
ATOM     11  C6  UNL     1      -3.024   0.888  -0.451  0.00  0.00    +0.000 A 
ATOM     12  C7  UNL     1      -2.932  -0.254   0.337  0.00  0.00    +0.000 A 
ATOM     13  C8  UNL     1      -1.698  -0.891   0.500  0.00  0.00    +0.000 A 
ENDBRANCH   6   8
TORSDOF 1
