REMARK  Name = /home/anacleto/Desktop/manuscript_Mpro/naturecomm/supplementary_file_S2/6-chemical-library/molecular_docking/3D_ligand_structure/1181.pdb
REMARK  1 active torsions:
REMARK  status: ('A' for Active; 'I' for Inactive)
REMARK    1  A    between atoms: N2_6  and  C4_7
REMARK                            x       y       z     vdW  Elec       q    Type
REMARK                         _______ _______ _______ _____ _____    ______ ____
ROOT
ATOM      1  S1  UNL     1       2.288  -0.445   0.990  0.00  0.00    +0.000 S 
ATOM      2  C1  UNL     1       3.783  -0.954   0.334  0.00  0.00    +0.000 A 
ATOM      3  C2  UNL     1       3.778  -0.752  -1.026  0.00  0.00    +0.000 A 
ATOM      4  N1  UNL     1       2.617  -0.213  -1.542  0.00  0.00    +0.000 NA
ATOM      5  C3  UNL     1       1.722  -0.033  -0.592  0.00  0.00    +0.000 A 
ATOM      6  N2  UNL     1       0.522   0.530  -0.869  0.00  0.00    +0.000 N 
ATOM      7  H3  UNL     1       0.441   0.868  -1.821  0.00  0.00    +0.000 HD
ENDROOT
BRANCH   6   8
ATOM      8  C4  UNL     1      -0.730   0.376  -0.244  0.00  0.00    +0.000 A 
ATOM      9  C5  UNL     1      -1.700   1.369  -0.464  0.00  0.00    +0.000 A 
ATOM     10  C6  UNL     1      -2.955   1.307   0.148  0.00  0.00    +0.000 A 
ATOM     11  C7  UNL     1      -3.262   0.250   0.998  0.00  0.00    +0.000 A 
ATOM     12  C8  UNL     1      -2.313  -0.742   1.232  0.00  0.00    +0.000 A 
ATOM     13  C9  UNL     1      -1.057  -0.675   0.619  0.00  0.00    +0.000 A 
ENDBRANCH   6   8
TORSDOF 1
