REMARK  Name = /home/anacleto/Desktop/manuscript_Mpro/naturecomm/supplementary_file_S2/6-chemical-library/molecular_docking/3D_ligand_structure/1195.pdb
REMARK  1 active torsions:
REMARK  status: ('A' for Active; 'I' for Inactive)
REMARK    1  A    between atoms: C5_6  and  C6_8
REMARK                            x       y       z     vdW  Elec       q    Type
REMARK                         _______ _______ _______ _____ _____    ______ ____
ROOT
ATOM      1  C1  UNL     1      -1.916  -0.716  -0.842  0.00  0.00    +0.000 C 
ATOM      2  C2  UNL     1      -2.938   0.206  -0.195  0.00  0.00    +0.000 C 
ATOM      3  C3  UNL     1      -2.266   0.567   1.123  0.00  0.00    +0.000 C 
ATOM      4  C4  UNL     1      -0.800   0.708   0.730  0.00  0.00    +0.000 C 
ATOM      5  N1  UNL     1      -0.632  -0.211  -0.388  0.00  0.00    +0.000 N 
ATOM      6  C5  UNL     1       0.537  -0.818  -0.820  0.00  0.00    +0.000 C 
ATOM      7  O1  UNL     1       0.506  -1.799  -1.563  0.00  0.00    +0.000 OA
ENDROOT
BRANCH   6   8
ATOM      8  C6  UNL     1       1.816  -0.294  -0.362  0.00  0.00    +0.000 A 
ATOM      9  C7  UNL     1       3.020  -1.038  -0.167  0.00  0.00    +0.000 A 
ATOM     10  C8  UNL     1       3.982  -0.143   0.233  0.00  0.00    +0.000 A 
ATOM     11  O2  UNL     1       3.468   1.111   0.273  0.00  0.00    +0.000 OA
ATOM     12  C9  UNL     1       2.167   1.017  -0.107  0.00  0.00    +0.000 A 
ENDBRANCH   6   8
TORSDOF 1
