REMARK  Name = /home/anacleto/Desktop/manuscript_Mpro/naturecomm/supplementary_file_S2/6-chemical-library/molecular_docking/3D_ligand_structure/1202.pdb
REMARK  1 active torsions:
REMARK  status: ('A' for Active; 'I' for Inactive)
REMARK    1  A    between atoms: C5_6  and  N2_7
REMARK                            x       y       z     vdW  Elec       q    Type
REMARK                         _______ _______ _______ _____ _____    ______ ____
ROOT
ATOM      1  N2  UNL     1      -0.289  -0.134   0.377  0.00  0.00    +0.000 N 
ATOM      2  C6  UNL     1      -0.946   1.166   0.590  0.00  0.00    +0.000 C 
ATOM      3  C7  UNL     1      -2.257   1.284  -0.223  0.00  0.00    +0.000 C 
ATOM      4  N3  UNL     1      -3.241   0.211   0.012  0.00  0.00    +0.000 NA
ATOM      5  C8  UNL     1      -2.572  -1.080   0.273  0.00  0.00    +0.000 C 
ATOM      6  C9  UNL     1      -1.116  -1.186  -0.234  0.00  0.00    +0.000 C 
ATOM      7  H9  UNL     1      -3.828   0.126  -0.816  0.00  0.00    +0.000 HD
ENDROOT
BRANCH   1  13
ATOM      8  N1  UNL     1       1.505  -1.060  -0.850  0.00  0.00    +0.000 NA
ATOM      9  C1  UNL     1       2.825  -1.097  -1.141  0.00  0.00    +0.000 A 
ATOM     10  C2  UNL     1       3.768  -0.276  -0.555  0.00  0.00    +0.000 A 
ATOM     11  C3  UNL     1       3.328   0.632   0.393  0.00  0.00    +0.000 A 
ATOM     12  C4  UNL     1       1.969   0.684   0.706  0.00  0.00    +0.000 A 
ATOM     13  C5  UNL     1       1.065  -0.163   0.062  0.00  0.00    +0.000 A 
ENDBRANCH   1  13
TORSDOF 1
