REMARK  Name = /home/anacleto/Desktop/manuscript_Mpro/naturecomm/supplementary_file_S2/6-chemical-library/molecular_docking/3D_ligand_structure/1204.pdb
REMARK  1 active torsions:
REMARK  status: ('A' for Active; 'I' for Inactive)
REMARK    1  A    between atoms: C6_6  and  C7_7
REMARK                            x       y       z     vdW  Elec       q    Type
REMARK                         _______ _______ _______ _____ _____    ______ ____
ROOT
ATOM      1  C7  UNL     1       0.434  -0.157  -0.461  0.00  0.00    +0.000 C 
ATOM      2  C8  UNL     1       1.274  -1.107   0.435  0.00  0.00    +0.000 C 
ATOM      3  N1  UNL     1       2.708  -1.118   0.075  0.00  0.00    +0.000 NA
ATOM      4  C9  UNL     1       3.209   0.266   0.074  0.00  0.00    +0.000 C 
ATOM      5  C10 UNL     1       2.355   1.177  -0.817  0.00  0.00    +0.000 C 
ATOM      6  O1  UNL     1       0.987   1.177  -0.394  0.00  0.00    +0.000 OA
ATOM      7  H9  UNL     1       3.222  -1.661   0.768  0.00  0.00    +0.000 HD
ENDROOT
BRANCH   1  13
ATOM      8  C1  UNL     1      -1.683  -0.869   0.828  0.00  0.00    +0.000 A 
ATOM      9  C2  UNL     1      -3.055  -0.749   1.072  0.00  0.00    +0.000 A 
ATOM     10  C3  UNL     1      -3.816   0.179   0.365  0.00  0.00    +0.000 A 
ATOM     11  C4  UNL     1      -3.207   0.988  -0.588  0.00  0.00    +0.000 A 
ATOM     12  C5  UNL     1      -1.837   0.868  -0.832  0.00  0.00    +0.000 A 
ATOM     13  C6  UNL     1      -1.047  -0.059  -0.126  0.00  0.00    +0.000 A 
ENDBRANCH   1  13
TORSDOF 1
