REMARK  Name = /home/anacleto/Desktop/manuscript_Mpro/naturecomm/supplementary_file_S2/6-chemical-library/molecular_docking/3D_ligand_structure/1207.pdb
REMARK  1 active torsions:
REMARK  status: ('A' for Active; 'I' for Inactive)
REMARK    1  A    between atoms: N2_4  and  C4_7
REMARK                            x       y       z     vdW  Elec       q    Type
REMARK                         _______ _______ _______ _____ _____    ______ ____
ROOT
ATOM      1  N1  UNL     1       2.694  -0.967   0.654  0.00  0.00    +0.000 N 
ATOM      2  C1  UNL     1       2.907   0.090  -0.287  0.00  0.00    +0.000 C 
ATOM      3  C2  UNL     1       1.547   0.766  -0.383  0.00  0.00    +0.000 C 
ATOM      4  N2  UNL     1       0.625  -0.220   0.141  0.00  0.00    +0.000 N 
ATOM      5  C3  UNL     1       1.338  -1.244   0.786  0.00  0.00    +0.000 C 
ATOM      6  O1  UNL     1       0.926  -2.233   1.367  0.00  0.00    +0.000 OA
ATOM      7  H1  UNL     1       3.357  -1.694   0.887  0.00  0.00    +0.000 HD
ENDROOT
BRANCH   4   8
ATOM      8  C4  UNL     1      -0.785  -0.083   0.080  0.00  0.00    +0.000 A 
ATOM      9  C5  UNL     1      -1.377   1.043  -0.505  0.00  0.00    +0.000 A 
ATOM     10  C6  UNL     1      -2.766   1.166  -0.563  0.00  0.00    +0.000 A 
ATOM     11  C7  UNL     1      -3.539   0.152  -0.031  0.00  0.00    +0.000 A 
ATOM     12  N3  UNL     1      -3.022  -0.951   0.542  0.00  0.00    +0.000 NA
ATOM     13  C8  UNL     1      -1.665  -1.042   0.585  0.00  0.00    +0.000 A 
ENDBRANCH   4   8
TORSDOF 1
