REMARK  Name = /home/anacleto/Desktop/manuscript_Mpro/naturecomm/supplementary_file_S2/6-chemical-library/molecular_docking/3D_ligand_structure/1208.pdb
REMARK  2 active torsions:
REMARK  status: ('A' for Active; 'I' for Inactive)
REMARK    1  A    between atoms: C3_4  and  O2_6
REMARK    2  A    between atoms: O2_6  and  C4_7
REMARK                            x       y       z     vdW  Elec       q    Type
REMARK                         _______ _______ _______ _____ _____    ______ ____
ROOT
ATOM      1  O2  UNL     1      -0.523   1.087  -0.187  0.00  0.00    +0.000 OA
ENDROOT
BRANCH   1   5
ATOM      2  O1  UNL     1      -4.469   0.267   0.197  0.00  0.00    +0.000 OA
ATOM      3  C1  UNL     1      -3.415   0.235  -0.389  0.00  0.00    +0.000 C 
ATOM      4  C2  UNL     1      -2.256  -0.746  -0.576  0.00  0.00    +0.000 C 
ATOM      5  C3  UNL     1      -1.485   0.494  -1.077  0.00  0.00    +0.000 C 
ATOM      6  N1  UNL     1      -2.779   1.196  -1.111  0.00  0.00    +0.000 N 
ATOM      7  H4  UNL     1      -2.945   2.146  -0.809  0.00  0.00    +0.000 HD
ENDBRANCH   1   5
BRANCH   1   8
ATOM      8  C4  UNL     1       0.673   0.446   0.020  0.00  0.00    +0.000 A 
ATOM      9  C5  UNL     1       1.151  -0.627  -0.732  0.00  0.00    +0.000 A 
ATOM     10  C6  UNL     1       2.391  -1.196  -0.424  0.00  0.00    +0.000 A 
ATOM     11  C7  UNL     1       3.153  -0.693   0.629  0.00  0.00    +0.000 A 
ATOM     12  C8  UNL     1       2.679   0.383   1.377  0.00  0.00    +0.000 A 
ATOM     13  C9  UNL     1       1.443   0.951   1.070  0.00  0.00    +0.000 A 
ENDBRANCH   1   8
TORSDOF 2
