REMARK  Name = /home/anacleto/Desktop/manuscript_Mpro/naturecomm/supplementary_file_S2/6-chemical-library/molecular_docking/3D_ligand_structure/1213.pdb
REMARK  4 active torsions:
REMARK  status: ('A' for Active; 'I' for Inactive)
REMARK    1  A    between atoms: C3_3  and  C4_4
REMARK    2  A    between atoms: C4_4  and  N1_5
REMARK    3  A    between atoms: N1_5  and  C5_6
REMARK    4  A    between atoms: C5_6  and  C6_7
REMARK                            x       y       z     vdW  Elec       q    Type
REMARK                         _______ _______ _______ _____ _____    ______ ____
ROOT
ATOM      1  C5  UNL     1       0.355  -1.268  -0.385  0.00  0.00    +0.000 C 
ENDROOT
BRANCH   1   2
ATOM      2  C6  UNL     1       1.620  -0.478  -0.189  0.00  0.00    +0.000 A 
ATOM      3  C7  UNL     1       2.548  -0.812   0.802  0.00  0.00    +0.000 A 
ATOM      4  C8  UNL     1       3.703  -0.050   0.952  0.00  0.00    +0.000 A 
ATOM      5  C9  UNL     1       3.894   1.027   0.103  0.00  0.00    +0.000 A 
ATOM      6  N2  UNL     1       3.022   1.383  -0.865  0.00  0.00    +0.000 NA
ATOM      7  C10 UNL     1       1.909   0.624  -0.988  0.00  0.00    +0.000 A 
ENDBRANCH   1   2
BRANCH   1   8
ATOM      8  N1  UNL     1      -0.635  -1.079   0.676  0.00  0.00    +0.000 NA
ATOM      9  H8  UNL     1      -0.183  -1.233   1.576  0.00  0.00    +0.000 HD
BRANCH   8  10
ATOM     10  C4  UNL     1      -1.266   0.238   0.693  0.00  0.00    +0.000 C 
BRANCH  10  13
ATOM     11  C1  UNL     1      -3.455  -0.391  -0.589  0.00  0.00    +0.000 C 
ATOM     12  C2  UNL     1      -3.527   1.082  -0.299  0.00  0.00    +0.000 C 
ATOM     13  C3  UNL     1      -2.185   0.414  -0.477  0.00  0.00    +0.000 C 
ENDBRANCH  10  13
ENDBRANCH   8  10
ENDBRANCH   1   8
TORSDOF 4
