REMARK  Name = /home/anacleto/Desktop/manuscript_Mpro/naturecomm/supplementary_file_S2/6-chemical-library/molecular_docking/3D_ligand_structure/1218.pdb
REMARK  1 active torsions:
REMARK  status: ('A' for Active; 'I' for Inactive)
REMARK    1  A    between atoms: C4_5  and  C5_6
REMARK                            x       y       z     vdW  Elec       q    Type
REMARK                         _______ _______ _______ _____ _____    ______ ____
ROOT
ATOM      1  C5  UNL     1      -0.257  -0.963   0.142  0.00  0.00    +0.000 C 
ATOM      2  C6  UNL     1      -1.342  -0.193   0.271  0.00  0.00    +0.000 C 
ATOM      3  C7  UNL     1      -1.640   1.244   0.085  0.00  0.00    +0.000 C 
ATOM      4  O2  UNL     1      -0.929   2.153  -0.288  0.00  0.00    +0.000 OA
ATOM      5  N1  UNL     1      -2.989   1.315   0.415  0.00  0.00    +0.000 N 
ATOM      6  N2  UNL     1      -3.581   0.116   0.757  0.00  0.00    +0.000 NA
ATOM      7  C8  UNL     1      -2.634  -0.769   0.677  0.00  0.00    +0.000 C 
ATOM      8  H5  UNL     1      -3.530   2.170   0.378  0.00  0.00    +0.000 HD
ENDROOT
BRANCH   1  13
ATOM      9  O1  UNL     1       1.457   0.812  -0.048  0.00  0.00    +0.000 OA
ATOM     10  C1  UNL     1       2.739   0.907  -0.470  0.00  0.00    +0.000 A 
ATOM     11  C2  UNL     1       3.193  -0.316  -0.890  0.00  0.00    +0.000 A 
ATOM     12  C3  UNL     1       2.108  -1.208  -0.715  0.00  0.00    +0.000 A 
ATOM     13  C4  UNL     1       1.033  -0.484  -0.207  0.00  0.00    +0.000 A 
ENDBRANCH   1  13
TORSDOF 1
