REMARK  Name = /home/anacleto/Desktop/manuscript_Mpro/naturecomm/supplementary_file_S2/6-chemical-library/molecular_docking/3D_ligand_structure/1233.pdb
REMARK  1 active torsions:
REMARK  status: ('A' for Active; 'I' for Inactive)
REMARK    1  A    between atoms: N3_6  and  C4_7
REMARK                            x       y       z     vdW  Elec       q    Type
REMARK                         _______ _______ _______ _____ _____    ______ ____
ROOT
ATOM      1  N1  UNL     1       1.654   0.958  -0.032  0.00  0.00    +0.000 NA
ATOM      2  N2  UNL     1       2.995   0.972  -0.009  0.00  0.00    +0.000 N 
ATOM      3  C1  UNL     1       3.551  -0.267   0.082  0.00  0.00    +0.000 A 
ATOM      4  C2  UNL     1       2.492  -1.142   0.119  0.00  0.00    +0.000 A 
ATOM      5  C3  UNL     1       1.327  -0.336   0.046  0.00  0.00    +0.000 A 
ATOM      6  N3  UNL     1       0.096  -0.884   0.059  0.00  0.00    +0.000 N 
ATOM      7  H1  UNL     1       3.467   1.869  -0.059  0.00  0.00    +0.000 HD
ATOM      8  H4  UNL     1      -0.006  -1.890   0.123  0.00  0.00    +0.000 HD
ENDROOT
BRANCH   6   9
ATOM      9  C4  UNL     1      -1.185  -0.335   0.000  0.00  0.00    +0.000 A 
ATOM     10  C5  UNL     1      -1.442   1.018  -0.092  0.00  0.00    +0.000 A 
ATOM     11  C6  UNL     1      -2.763   1.399  -0.141  0.00  0.00    +0.000 A 
ATOM     12  N4  UNL     1      -3.789   0.534  -0.103  0.00  0.00    +0.000 NA
ATOM     13  C7  UNL     1      -3.439  -0.755  -0.013  0.00  0.00    +0.000 A 
ATOM     14  N5  UNL     1      -2.187  -1.236   0.041  0.00  0.00    +0.000 NA
ENDBRANCH   6   9
TORSDOF 1
