REMARK  Name = /home/anacleto/Desktop/manuscript_Mpro/naturecomm/supplementary_file_S2/6-chemical-library/molecular_docking/3D_ligand_structure/1235.pdb
REMARK  1 active torsions:
REMARK  status: ('A' for Active; 'I' for Inactive)
REMARK    1  A    between atoms: C2_6  and  C3_7
REMARK                            x       y       z     vdW  Elec       q    Type
REMARK                         _______ _______ _______ _____ _____    ______ ____
ROOT
ATOM      1  N1  UNL     1      -2.005   0.173  -0.789  0.00  0.00    +0.000 N 
ATOM      2  C1  UNL     1      -3.261  -0.102  -0.337  0.00  0.00    +0.000 A 
ATOM      3  O1  UNL     1      -4.305   0.066  -0.940  0.00  0.00    +0.000 OA
ATOM      4  N2  UNL     1      -3.090  -0.607   0.940  0.00  0.00    +0.000 N 
ATOM      5  N3  UNL     1      -1.761  -0.644   1.271  0.00  0.00    +0.000 NA
ATOM      6  C2  UNL     1      -1.157  -0.172   0.215  0.00  0.00    +0.000 A 
ATOM      7  H1  UNL     1      -1.822   0.555  -1.698  0.00  0.00    +0.000 HD
ATOM      8  H2  UNL     1      -3.821  -0.914   1.566  0.00  0.00    +0.000 HD
ENDROOT
BRANCH   6   9
ATOM      9  C3  UNL     1       0.304  -0.009   0.078  0.00  0.00    +0.000 A 
ATOM     10  C4  UNL     1       0.894   0.505  -1.084  0.00  0.00    +0.000 A 
ATOM     11  C5  UNL     1       2.283   0.639  -1.164  0.00  0.00    +0.000 A 
ATOM     12  C6  UNL     1       3.088   0.262  -0.090  0.00  0.00    +0.000 A 
ATOM     13  C7  UNL     1       2.508  -0.250   1.069  0.00  0.00    +0.000 A 
ATOM     14  C8  UNL     1       1.120  -0.385   1.153  0.00  0.00    +0.000 A 
ENDBRANCH   6   9
TORSDOF 1
