REMARK  Name = /home/anacleto/Desktop/manuscript_Mpro/naturecomm/supplementary_file_S2/6-chemical-library/molecular_docking/3D_ligand_structure/1257.pdb
REMARK  2 active torsions:
REMARK  status: ('A' for Active; 'I' for Inactive)
REMARK    1  A    between atoms: C2_5  and  S1_6
REMARK    2  A    between atoms: S1_6  and  C3_7
REMARK                            x       y       z     vdW  Elec       q    Type
REMARK                         _______ _______ _______ _____ _____    ______ ____
ROOT
ATOM      1  S1  UNL     1      -0.228  -0.409   2.204  0.00  0.00    +0.000 S 
ENDROOT
BRANCH   1   6
ATOM      2  O1  UNL     1      -1.644   0.515   0.023  0.00  0.00    +0.000 OA
ATOM      3  C1  UNL     1      -2.893   0.259  -0.447  0.00  0.00    +0.000 A 
ATOM      4  N1  UNL     1      -3.563  -0.597   0.284  0.00  0.00    +0.000 NA
ATOM      5  N2  UNL     1      -2.716  -0.957   1.314  0.00  0.00    +0.000 NA
ATOM      6  C2  UNL     1      -1.584  -0.306   1.125  0.00  0.00    +0.000 A 
ENDBRANCH   1   6
BRANCH   1   7
ATOM      7  C3  UNL     1       1.025  -0.110   1.024  0.00  0.00    +0.000 A 
ATOM      8  N3  UNL     1       1.121  -0.804  -0.090  0.00  0.00    +0.000 NA
ATOM      9  C4  UNL     1       2.216  -0.372  -0.813  0.00  0.00    +0.000 A 
ATOM     10  C5  UNL     1       2.948   0.643  -0.235  0.00  0.00    +0.000 A 
ATOM     11  S2  UNL     1       2.247   1.071   1.270  0.00  0.00    +0.000 S 
ENDBRANCH   1   7
TORSDOF 2
