REMARK  Name = /home/anacleto/Desktop/manuscript_Mpro/naturecomm/supplementary_file_S2/6-chemical-library/molecular_docking/3D_ligand_structure/1264.pdb
REMARK  1 active torsions:
REMARK  status: ('A' for Active; 'I' for Inactive)
REMARK    1  A    between atoms: C4_5  and  N1_6
REMARK                            x       y       z     vdW  Elec       q    Type
REMARK                         _______ _______ _______ _____ _____    ______ ____
ROOT
ATOM      1  N1  UNL     1      -0.011   0.094   0.039  0.00  0.00    +0.000 N 
ATOM      2  C5  UNL     1      -0.861   1.200  -0.432  0.00  0.00    +0.000 C 
ATOM      3  C6  UNL     1      -2.283   0.692  -0.766  0.00  0.00    +0.000 C 
ATOM      4  N2  UNL     1      -2.998   0.026   0.340  0.00  0.00    +0.000 NA
ATOM      5  C7  UNL     1      -2.055  -0.514   1.334  0.00  0.00    +0.000 C 
ATOM      6  C8  UNL     1      -0.693  -0.982   0.774  0.00  0.00    +0.000 C 
ATOM      7  H8  UNL     1      -3.552  -0.733  -0.053  0.00  0.00    +0.000 HD
ENDROOT
BRANCH   1  12
ATOM      8  S1  UNL     1       2.245   1.559  -0.481  0.00  0.00    +0.000 S 
ATOM      9  C1  UNL     1       3.754   0.785  -0.311  0.00  0.00    +0.000 A 
ATOM     10  C2  UNL     1       3.616  -0.527   0.070  0.00  0.00    +0.000 A 
ATOM     11  C3  UNL     1       2.246  -0.890   0.226  0.00  0.00    +0.000 A 
ATOM     12  C4  UNL     1       1.357   0.144  -0.033  0.00  0.00    +0.000 A 
ENDBRANCH   1  12
TORSDOF 1
