REMARK  Name = /home/anacleto/Desktop/manuscript_Mpro/naturecomm/supplementary_file_S2/6-chemical-library/molecular_docking/3D_ligand_structure/1265.pdb
REMARK  1 active torsions:
REMARK  status: ('A' for Active; 'I' for Inactive)
REMARK    1  A    between atoms: C3_6  and  C4_7
REMARK                            x       y       z     vdW  Elec       q    Type
REMARK                         _______ _______ _______ _____ _____    ______ ____
ROOT
ATOM      1  N1  UNL     1       1.133   0.247  -1.251  0.00  0.00    +0.000 N 
ATOM      2  C1  UNL     1       2.489   0.097  -0.953  0.00  0.00    +0.000 A 
ATOM      3  S1  UNL     1       3.765   0.279  -1.974  0.00  0.00    +0.000 S 
ATOM      4  N2  UNL     1       2.531  -0.243   0.404  0.00  0.00    +0.000 N 
ATOM      5  C2  UNL     1       1.244  -0.291   0.889  0.00  0.00    +0.000 A 
ATOM      6  C3  UNL     1       0.401   0.006  -0.113  0.00  0.00    +0.000 A 
ATOM      7  H1  UNL     1       0.753   0.493  -2.154  0.00  0.00    +0.000 HD
ATOM      8  H2  UNL     1       3.380  -0.420   0.924  0.00  0.00    +0.000 HD
ENDROOT
BRANCH   6   9
ATOM      9  C4  UNL     1      -1.007   0.072  -0.063  0.00  0.00    +0.000 A 
ATOM     10  C5  UNL     1      -1.889  -0.139   0.986  0.00  0.00    +0.000 A 
ATOM     11  C6  UNL     1      -3.171   0.066   0.451  0.00  0.00    +0.000 A 
ATOM     12  N3  UNL     1      -3.120   0.384  -0.839  0.00  0.00    +0.000 NA
ATOM     13  O1  UNL     1      -1.778   0.389  -1.163  0.00  0.00    +0.000 OA
ENDBRANCH   6   9
TORSDOF 1
