REMARK  Name = /home/anacleto/Desktop/manuscript_Mpro/naturecomm/supplementary_file_S2/6-chemical-library/molecular_docking/3D_ligand_structure/1274.pdb
REMARK  1 active torsions:
REMARK  status: ('A' for Active; 'I' for Inactive)
REMARK    1  A    between atoms: C4_5  and  C5_6
REMARK                            x       y       z     vdW  Elec       q    Type
REMARK                         _______ _______ _______ _____ _____    ______ ____
ROOT
ATOM      1  C5  UNL     1      -0.488  -0.147  -0.353  0.00  0.00    +0.000 C 
ATOM      2  C6  UNL     1      -0.821   1.046   0.560  0.00  0.00    +0.000 C 
ATOM      3  C7  UNL     1      -2.334   1.220   0.712  0.00  0.00    +0.000 C 
ATOM      4  N2  UNL     1      -2.961   0.004   1.225  0.00  0.00    +0.000 NA
ATOM      5  C8  UNL     1      -2.717  -1.135   0.342  0.00  0.00    +0.000 C 
ATOM      6  C9  UNL     1      -1.221  -1.396   0.170  0.00  0.00    +0.000 C 
ATOM      7  H14 UNL     1      -3.966   0.153   1.310  0.00  0.00    +0.000 HD
ENDROOT
BRANCH   1  12
ATOM      8  C1  UNL     1       1.824  -0.702   0.725  0.00  0.00    +0.000 C 
ATOM      9  N1  UNL     1       3.199  -0.527   0.256  0.00  0.00    +0.000 NA
ATOM     10  C2  UNL     1       3.176   0.683  -0.562  0.00  0.00    +0.000 C 
ATOM     11  C3  UNL     1       1.806   0.691  -1.231  0.00  0.00    +0.000 C 
ATOM     12  C4  UNL     1       1.018  -0.427  -0.539  0.00  0.00    +0.000 C 
ATOM     13  H3  UNL     1       3.839  -0.421   1.042  0.00  0.00    +0.000 HD
ENDBRANCH   1  12
TORSDOF 1
