REMARK  Name = /home/anacleto/Desktop/manuscript_Mpro/naturecomm/supplementary_file_S2/6-chemical-library/molecular_docking/3D_ligand_structure/1277.pdb
REMARK  2 active torsions:
REMARK  status: ('A' for Active; 'I' for Inactive)
REMARK    1  A    between atoms: N3_5  and  C3_6
REMARK    2  A    between atoms: C3_6  and  C4_7
REMARK                            x       y       z     vdW  Elec       q    Type
REMARK                         _______ _______ _______ _____ _____    ______ ____
ROOT
ATOM      1  C3  UNL     1       0.607  -0.947  -0.425  0.00  0.00    +0.000 C 
ENDROOT
BRANCH   1   6
ATOM      2  N1  UNL     1       2.264   0.812  -0.586  0.00  0.00    +0.000 NA
ATOM      3  N2  UNL     1       3.267   1.299   0.132  0.00  0.00    +0.000 NA
ATOM      4  C1  UNL     1       3.359   0.565   1.281  0.00  0.00    +0.000 A 
ATOM      5  C2  UNL     1       2.386  -0.406   1.283  0.00  0.00    +0.000 A 
ATOM      6  N3  UNL     1       1.731  -0.207   0.106  0.00  0.00    +0.000 N 
ENDBRANCH   1   6
BRANCH   1   7
ATOM      7  C4  UNL     1      -0.733  -0.356  -0.008  0.00  0.00    +0.000 C 
ATOM      8  C5  UNL     1      -1.065   0.991  -0.620  0.00  0.00    +0.000 C 
ATOM      9  C6  UNL     1      -2.570   1.045  -0.456  0.00  0.00    +0.000 C 
ATOM     10  O1  UNL     1      -3.042  -0.310  -0.515  0.00  0.00    +0.000 OA
ATOM     11  C7  UNL     1      -1.910  -1.189  -0.482  0.00  0.00    +0.000 C 
ENDBRANCH   1   7
TORSDOF 2
