REMARK  Name = /home/anacleto/Desktop/manuscript_Mpro/naturecomm/supplementary_file_S2/6-chemical-library/molecular_docking/3D_ligand_structure/1279.pdb
REMARK  2 active torsions:
REMARK  status: ('A' for Active; 'I' for Inactive)
REMARK    1  A    between atoms: C4_5  and  C5_6
REMARK    2  A    between atoms: C5_6  and  N1_7
REMARK                            x       y       z     vdW  Elec       q    Type
REMARK                         _______ _______ _______ _____ _____    ______ ____
ROOT
ATOM      1  C5  UNL     1       0.767   0.515   0.752  0.00  0.00    +0.000 C 
ENDROOT
BRANCH   1   6
ATOM      2  O1  UNL     1      -0.889   0.460  -1.050  0.00  0.00    +0.000 OA
ATOM      3  C1  UNL     1      -2.321   0.562  -1.053  0.00  0.00    +0.000 C 
ATOM      4  C2  UNL     1      -2.819  -0.223   0.142  0.00  0.00    +0.000 C 
ATOM      5  C3  UNL     1      -1.669  -0.082   1.108  0.00  0.00    +0.000 C 
ATOM      6  C4  UNL     1      -0.469  -0.169   0.175  0.00  0.00    +0.000 C 
ENDBRANCH   1   6
BRANCH   1   7
ATOM      7  N1  UNL     1       1.976   0.262  -0.005  0.00  0.00    +0.000 N 
ATOM      8  C6  UNL     1       2.565  -0.938  -0.281  0.00  0.00    +0.000 A 
ATOM      9  C7  UNL     1       3.727  -0.591  -0.927  0.00  0.00    +0.000 A 
ATOM     10  N2  UNL     1       3.825   0.769  -0.990  0.00  0.00    +0.000 NA
ATOM     11  N3  UNL     1       2.754   1.285  -0.402  0.00  0.00    +0.000 NA
ENDBRANCH   1   7
TORSDOF 2
