REMARK  Name = /home/anacleto/Desktop/manuscript_Mpro/naturecomm/supplementary_file_S2/6-chemical-library/molecular_docking/3D_ligand_structure/129.pdb
REMARK  0 active torsions:
REMARK  status: ('A' for Active; 'I' for Inactive)
REMARK                            x       y       z     vdW  Elec       q    Type
REMARK                         _______ _______ _______ _____ _____    ______ ____
ROOT
ATOM      1  C1  UNL     1       0.943   0.825   0.306  0.00  0.00    +0.000 C 
ATOM      2  C2  UNL     1      -0.360   1.110   0.176  0.00  0.00    +0.000 C 
ATOM      3  C3  UNL     1      -1.118  -0.133  -0.189  0.00  0.00    +0.000 C 
ATOM      4  C4  UNL     1      -0.021  -1.156  -0.240  0.00  0.00    +0.000 C 
ATOM      5  C5  UNL     1       1.153  -0.576   0.049  0.00  0.00    +0.000 C 
ENDROOT
TORSDOF 0
