REMARK  Name = /home/anacleto/Desktop/manuscript_Mpro/naturecomm/supplementary_file_S2/6-chemical-library/molecular_docking/3D_ligand_structure/1290.pdb
REMARK  2 active torsions:
REMARK  status: ('A' for Active; 'I' for Inactive)
REMARK    1  A    between atoms: C4_5  and  C5_6
REMARK    2  A    between atoms: C5_6  and  N2_7
REMARK                            x       y       z     vdW  Elec       q    Type
REMARK                         _______ _______ _______ _____ _____    ______ ____
ROOT
ATOM      1  N1  UNL     1      -1.661   1.370   0.402  0.00  0.00    +0.000 NA
ATOM      2  C1  UNL     1      -2.808   0.543   0.775  0.00  0.00    +0.000 C 
ATOM      3  C2  UNL     1      -2.576  -0.793   0.087  0.00  0.00    +0.000 C 
ATOM      4  C3  UNL     1      -1.134  -0.750  -0.401  0.00  0.00    +0.000 C 
ATOM      5  C4  UNL     1      -0.521   0.443   0.325  0.00  0.00    +0.000 C 
ATOM      6  H1  UNL     1      -1.502   2.091   1.105  0.00  0.00    +0.000 HD
ENDROOT
BRANCH   5   7
ATOM      7  C5  UNL     1       0.677   1.058  -0.405  0.00  0.00    +0.000 C 
BRANCH   7   8
ATOM      8  N2  UNL     1       1.833   0.183  -0.416  0.00  0.00    +0.000 N 
ATOM      9  C6  UNL     1       2.751   0.044   0.586  0.00  0.00    +0.000 A 
ATOM     10  C7  UNL     1       3.651  -0.882   0.113  0.00  0.00    +0.000 A 
ATOM     11  N3  UNL     1       3.305  -1.297  -1.147  0.00  0.00    +0.000 NA
ATOM     12  C8  UNL     1       2.212  -0.631  -1.444  0.00  0.00    +0.000 A 
ENDBRANCH   7   8
ENDBRANCH   5   7
TORSDOF 2
