REMARK  Name = /home/anacleto/Desktop/manuscript_Mpro/naturecomm/supplementary_file_S2/6-chemical-library/molecular_docking/3D_ligand_structure/1294.pdb
REMARK  2 active torsions:
REMARK  status: ('A' for Active; 'I' for Inactive)
REMARK    1  A    between atoms: C3_4  and  O2_5
REMARK    2  A    between atoms: O2_5  and  C4_6
REMARK                            x       y       z     vdW  Elec       q    Type
REMARK                         _______ _______ _______ _____ _____    ______ ____
ROOT
ATOM      1  C4  UNL     1       0.574  -0.546  -0.220  0.00  0.00    +0.000 A 
ATOM      2  C5  UNL     1       1.413  -1.217  -1.111  0.00  0.00    +0.000 A 
ATOM      3  C6  UNL     1       2.762  -0.870  -1.207  0.00  0.00    +0.000 A 
ATOM      4  C7  UNL     1       3.276   0.146  -0.404  0.00  0.00    +0.000 A 
ATOM      5  C8  UNL     1       2.442   0.811   0.494  0.00  0.00    +0.000 A 
ATOM      6  C9  UNL     1       1.091   0.465   0.590  0.00  0.00    +0.000 A 
ENDROOT
BRANCH   1   7
ATOM      7  O2  UNL     1      -0.731  -0.973  -0.210  0.00  0.00    +0.000 OA
BRANCH   7  11
ATOM      8  C1  UNL     1      -3.188  -0.528   0.147  0.00  0.00    +0.000 C 
ATOM      9  O1  UNL     1      -3.529   0.834  -0.212  0.00  0.00    +0.000 OA
ATOM     10  C2  UNL     1      -2.121   1.169  -0.286  0.00  0.00    +0.000 C 
ATOM     11  C3  UNL     1      -1.728  -0.138   0.419  0.00  0.00    +0.000 C 
ENDBRANCH   7  11
ENDBRANCH   1   7
TORSDOF 2
