REMARK  Name = /home/anacleto/Desktop/manuscript_Mpro/naturecomm/supplementary_file_S2/6-chemical-library/molecular_docking/3D_ligand_structure/1295.pdb
REMARK  2 active torsions:
REMARK  status: ('A' for Active; 'I' for Inactive)
REMARK    1  A    between atoms: C3_5  and  C4_6
REMARK    2  A    between atoms: C4_6  and  C5_7
REMARK                            x       y       z     vdW  Elec       q    Type
REMARK                         _______ _______ _______ _____ _____    ______ ____
ROOT
ATOM      1  N1  UNL     1      -1.266  -0.869  -0.061  0.00  0.00    +0.000 N 
ATOM      2  C1  UNL     1      -2.529  -1.003   0.437  0.00  0.00    +0.000 A 
ATOM      3  N2  UNL     1      -3.114   0.163   0.584  0.00  0.00    +0.000 NA
ATOM      4  C2  UNL     1      -2.189   1.089   0.174  0.00  0.00    +0.000 A 
ATOM      5  C3  UNL     1      -1.025   0.474  -0.234  0.00  0.00    +0.000 A 
ATOM      6  H1  UNL     1      -0.606  -1.617  -0.238  0.00  0.00    +0.000 HD
ENDROOT
BRANCH   5   7
ATOM      7  C4  UNL     1       0.255   1.016  -0.776  0.00  0.00    +0.000 C 
BRANCH   7   8
ATOM      8  C5  UNL     1       1.473   0.384  -0.187  0.00  0.00    +0.000 A 
ATOM      9  N3  UNL     1       1.696  -0.978  -0.225  0.00  0.00    +0.000 NA
ATOM     10  C6  UNL     1       2.858  -1.070   0.376  0.00  0.00    +0.000 A 
ATOM     11  O1  UNL     1       3.372   0.120   0.776  0.00  0.00    +0.000 OA
ATOM     12  N4  UNL     1       2.448   1.096   0.395  0.00  0.00    +0.000 NA
ENDBRANCH   7   8
ENDBRANCH   5   7
TORSDOF 2
