REMARK  Name = /home/anacleto/Desktop/manuscript_Mpro/naturecomm/supplementary_file_S2/6-chemical-library/molecular_docking/3D_ligand_structure/1299.pdb
REMARK  1 active torsions:
REMARK  status: ('A' for Active; 'I' for Inactive)
REMARK    1  A    between atoms: C4_5  and  C5_6
REMARK                            x       y       z     vdW  Elec       q    Type
REMARK                         _______ _______ _______ _____ _____    ______ ____
ROOT
ATOM      1  N1  UNL     1      -1.180  -1.263  -0.364  0.00  0.00    +0.000 NA
ATOM      2  C1  UNL     1      -2.579  -0.883  -0.155  0.00  0.00    +0.000 C 
ATOM      3  C2  UNL     1      -2.502   0.532   0.375  0.00  0.00    +0.000 C 
ATOM      4  C3  UNL     1      -1.400   1.140  -0.471  0.00  0.00    +0.000 C 
ATOM      5  C4  UNL     1      -0.467  -0.038  -0.789  0.00  0.00    +0.000 C 
ATOM      6  H1  UNL     1      -0.793  -1.572   0.529  0.00  0.00    +0.000 HD
ENDROOT
BRANCH   5   7
ATOM      7  C5  UNL     1       0.911   0.024  -0.173  0.00  0.00    +0.000 A 
ATOM      8  C6  UNL     1       2.012  -0.507  -0.857  0.00  0.00    +0.000 A 
ATOM      9  C7  UNL     1       3.278  -0.472  -0.279  0.00  0.00    +0.000 A 
ATOM     10  C8  UNL     1       3.408   0.086   0.980  0.00  0.00    +0.000 A 
ATOM     11  N2  UNL     1       2.375   0.594   1.683  0.00  0.00    +0.000 NA
ATOM     12  C9  UNL     1       1.156   0.545   1.095  0.00  0.00    +0.000 A 
ENDBRANCH   5   7
TORSDOF 1
