REMARK  Name = /home/anacleto/Desktop/manuscript_Mpro/naturecomm/supplementary_file_S2/6-chemical-library/molecular_docking/3D_ligand_structure/13.pdb
REMARK  0 active torsions:
REMARK  status: ('A' for Active; 'I' for Inactive)
REMARK                            x       y       z     vdW  Elec       q    Type
REMARK                         _______ _______ _______ _____ _____    ______ ____
ROOT
ATOM      1  O1  UNL     1      -2.092   1.360   0.311  0.00  0.00    +0.000 OA
ATOM      2  C1  UNL     1      -1.101   0.664   0.161  0.00  0.00    +0.000 A 
ATOM      3  C2  UNL     1      -1.242  -0.829   0.095  0.00  0.00    +0.000 A 
ATOM      4  N1  UNL     1      -0.232  -1.625  -0.063  0.00  0.00    +0.000 NA
ATOM      5  N2  UNL     1       0.996  -1.033  -0.169  0.00  0.00    +0.000 N 
ATOM      6  C3  UNL     1       1.253   0.314  -0.124  0.00  0.00    +0.000 A 
ATOM      7  O2  UNL     1       2.388   0.768  -0.227  0.00  0.00    +0.000 OA
ATOM      8  N3  UNL     1       0.174   1.127   0.042  0.00  0.00    +0.000 N 
ATOM      9  H2  UNL     1       1.791  -1.654  -0.293  0.00  0.00    +0.000 HD
ATOM     10  H3  UNL     1       0.335   2.120   0.078  0.00  0.00    +0.000 HD
ENDROOT
TORSDOF 0
