REMARK  Name = /home/anacleto/Desktop/manuscript_Mpro/naturecomm/supplementary_file_S2/6-chemical-library/molecular_docking/3D_ligand_structure/1304.pdb
REMARK  2 active torsions:
REMARK  status: ('A' for Active; 'I' for Inactive)
REMARK    1  A    between atoms: C4_4  and  O1_5
REMARK    2  A    between atoms: O1_5  and  C5_6
REMARK                            x       y       z     vdW  Elec       q    Type
REMARK                         _______ _______ _______ _____ _____    ______ ____
ROOT
ATOM      1  C5  UNL     1       1.055  -0.059   0.512  0.00  0.00    +0.000 A 
ATOM      2  C6  UNL     1       2.068  -0.763   1.167  0.00  0.00    +0.000 A 
ATOM      3  C7  UNL     1       3.297  -0.980   0.541  0.00  0.00    +0.000 A 
ATOM      4  C8  UNL     1       3.517  -0.489  -0.744  0.00  0.00    +0.000 A 
ATOM      5  C9  UNL     1       2.510   0.220  -1.399  0.00  0.00    +0.000 A 
ATOM      6  C10 UNL     1       1.280   0.437  -0.772  0.00  0.00    +0.000 A 
ENDROOT
BRANCH   1   7
ATOM      7  O1  UNL     1      -0.106   0.094   1.228  0.00  0.00    +0.000 OA
BRANCH   7  11
ATOM      8  C1  UNL     1      -2.568   0.590   1.422  0.00  0.00    +0.000 C 
ATOM      9  C2  UNL     1      -3.336   0.246   0.133  0.00  0.00    +0.000 C 
ATOM     10  C3  UNL     1      -2.014  -0.313  -0.422  0.00  0.00    +0.000 C 
ATOM     11  C4  UNL     1      -1.273   0.625   0.568  0.00  0.00    +0.000 C 
ENDBRANCH   7  11
ENDBRANCH   1   7
TORSDOF 2
