REMARK  Name = /home/anacleto/Desktop/manuscript_Mpro/naturecomm/supplementary_file_S2/6-chemical-library/molecular_docking/3D_ligand_structure/1309.pdb
REMARK  1 active torsions:
REMARK  status: ('A' for Active; 'I' for Inactive)
REMARK    1  A    between atoms: C4_5  and  C5_6
REMARK                            x       y       z     vdW  Elec       q    Type
REMARK                         _______ _______ _______ _____ _____    ______ ____
ROOT
ATOM      1  C1  UNL     1      -1.435   0.191  -1.334  0.00  0.00    +0.000 C 
ATOM      2  N1  UNL     1      -2.839   0.028  -0.927  0.00  0.00    +0.000 NA
ATOM      3  C2  UNL     1      -2.748  -0.489   0.442  0.00  0.00    +0.000 C 
ATOM      4  C3  UNL     1      -1.619   0.303   1.083  0.00  0.00    +0.000 C 
ATOM      5  C4  UNL     1      -0.716   0.721  -0.085  0.00  0.00    +0.000 C 
ATOM      6  H3  UNL     1      -3.276   0.950  -0.897  0.00  0.00    +0.000 HD
ENDROOT
BRANCH   5   7
ATOM      7  C5  UNL     1       0.716   0.249   0.031  0.00  0.00    +0.000 A 
ATOM      8  C6  UNL     1       1.035  -1.108   0.196  0.00  0.00    +0.000 A 
ATOM      9  C7  UNL     1       2.364  -1.522   0.296  0.00  0.00    +0.000 A 
ATOM     10  C8  UNL     1       3.394  -0.586   0.232  0.00  0.00    +0.000 A 
ATOM     11  C9  UNL     1       3.094   0.764   0.066  0.00  0.00    +0.000 A 
ATOM     12  C10 UNL     1       1.765   1.179  -0.035  0.00  0.00    +0.000 A 
ENDBRANCH   5   7
TORSDOF 1
