REMARK  Name = /home/anacleto/Desktop/manuscript_Mpro/naturecomm/supplementary_file_S2/6-chemical-library/molecular_docking/3D_ligand_structure/1319.pdb
REMARK  1 active torsions:
REMARK  status: ('A' for Active; 'I' for Inactive)
REMARK    1  A    between atoms: N4_5  and  C2_6
REMARK                            x       y       z     vdW  Elec       q    Type
REMARK                         _______ _______ _______ _____ _____    ______ ____
ROOT
ATOM      1  C2  UNL     1      -0.062   0.070   0.052  0.00  0.00    +0.000 A 
ATOM      2  C3  UNL     1       0.689   1.251  -0.038  0.00  0.00    +0.000 A 
ATOM      3  C4  UNL     1       2.084   1.186  -0.067  0.00  0.00    +0.000 A 
ATOM      4  C5  UNL     1       2.729  -0.049  -0.007  0.00  0.00    +0.000 A 
ATOM      5  C6  UNL     1       1.984  -1.225   0.082  0.00  0.00    +0.000 A 
ATOM      6  C7  UNL     1       0.589  -1.170   0.112  0.00  0.00    +0.000 A 
ENDROOT
BRANCH   1  11
ATOM      7  N1  UNL     1      -2.174   1.293   0.028  0.00  0.00    +0.000 NA
ATOM      8  N2  UNL     1      -3.453   0.947   0.079  0.00  0.00    +0.000 NA
ATOM      9  C1  UNL     1      -3.474  -0.409   0.162  0.00  0.00    +0.000 A 
ATOM     10  N3  UNL     1      -2.266  -0.977   0.168  0.00  0.00    +0.000 NA
ATOM     11  N4  UNL     1      -1.476   0.129   0.082  0.00  0.00    +0.000 N 
ENDBRANCH   1  11
TORSDOF 1
