REMARK  Name = /home/anacleto/Desktop/manuscript_Mpro/naturecomm/supplementary_file_S2/6-chemical-library/molecular_docking/3D_ligand_structure/1320.pdb
REMARK  1 active torsions:
REMARK  status: ('A' for Active; 'I' for Inactive)
REMARK    1  A    between atoms: C1_5  and  C2_6
REMARK                            x       y       z     vdW  Elec       q    Type
REMARK                         _______ _______ _______ _____ _____    ______ ____
ROOT
ATOM      1  N1  UNL     1       2.339   0.887   0.330  0.00  0.00    +0.000 NA
ATOM      2  N2  UNL     1       3.518   0.248   0.311  0.00  0.00    +0.000 N 
ATOM      3  N3  UNL     1       3.470  -1.073   0.114  0.00  0.00    +0.000 NA
ATOM      4  N4  UNL     1       2.179  -1.344  -0.008  0.00  0.00    +0.000 NA
ATOM      5  C1  UNL     1       1.504  -0.149   0.124  0.00  0.00    +0.000 A 
ATOM      6  H1  UNL     1       4.399   0.736   0.439  0.00  0.00    +0.000 HD
ENDROOT
BRANCH   5   7
ATOM      7  C2  UNL     1       0.052  -0.047   0.047  0.00  0.00    +0.000 A 
ATOM      8  C3  UNL     1      -0.590   1.193   0.188  0.00  0.00    +0.000 A 
ATOM      9  C4  UNL     1      -1.982   1.286   0.113  0.00  0.00    +0.000 A 
ATOM     10  C5  UNL     1      -2.747   0.142  -0.104  0.00  0.00    +0.000 A 
ATOM     11  C6  UNL     1      -2.123  -1.096  -0.246  0.00  0.00    +0.000 A 
ATOM     12  C7  UNL     1      -0.731  -1.190  -0.171  0.00  0.00    +0.000 A 
ENDBRANCH   5   7
TORSDOF 1
