REMARK  Name = /home/anacleto/Desktop/manuscript_Mpro/naturecomm/supplementary_file_S2/6-chemical-library/molecular_docking/3D_ligand_structure/1321.pdb
REMARK  1 active torsions:
REMARK  status: ('A' for Active; 'I' for Inactive)
REMARK    1  A    between atoms: C2_5  and  C3_6
REMARK                            x       y       z     vdW  Elec       q    Type
REMARK                         _______ _______ _______ _____ _____    ______ ____
ROOT
ATOM      1  N1  UNL     1       1.907  -0.131   0.944  0.00  0.00    +0.000 NA
ATOM      2  N2  UNL     1       3.123   0.046   0.408  0.00  0.00    +0.000 N 
ATOM      3  C1  UNL     1       3.041   0.344  -0.913  0.00  0.00    +0.000 A 
ATOM      4  N3  UNL     1       1.781   0.371  -1.274  0.00  0.00    +0.000 NA
ATOM      5  C2  UNL     1       1.100   0.075  -0.112  0.00  0.00    +0.000 A 
ATOM      6  H1  UNL     1       3.945  -0.051   0.993  0.00  0.00    +0.000 HD
ENDROOT
BRANCH   5   7
ATOM      7  C3  UNL     1      -0.350  -0.002  -0.059  0.00  0.00    +0.000 A 
ATOM      8  C4  UNL     1      -1.035  -0.303   1.122  0.00  0.00    +0.000 A 
ATOM      9  C5  UNL     1      -2.428  -0.364   1.122  0.00  0.00    +0.000 A 
ATOM     10  C6  UNL     1      -3.096  -0.122  -0.068  0.00  0.00    +0.000 A 
ATOM     11  N4  UNL     1      -2.475   0.171  -1.230  0.00  0.00    +0.000 NA
ATOM     12  C7  UNL     1      -1.117   0.224  -1.196  0.00  0.00    +0.000 A 
ENDBRANCH   5   7
TORSDOF 1
