REMARK  Name = /home/anacleto/Desktop/manuscript_Mpro/naturecomm/supplementary_file_S2/6-chemical-library/molecular_docking/3D_ligand_structure/1325.pdb
REMARK  1 active torsions:
REMARK  status: ('A' for Active; 'I' for Inactive)
REMARK    1  A    between atoms: C2_5  and  C3_6
REMARK                            x       y       z     vdW  Elec       q    Type
REMARK                         _______ _______ _______ _____ _____    ______ ____
ROOT
ATOM      1  C3  UNL     1       0.031  -0.089   0.047  0.00  0.00    +0.000 A 
ATOM      2  C4  UNL     1      -0.398   1.095  -0.572  0.00  0.00    +0.000 A 
ATOM      3  C5  UNL     1      -1.759   1.388  -0.684  0.00  0.00    +0.000 A 
ATOM      4  C6  UNL     1      -2.708   0.501  -0.179  0.00  0.00    +0.000 A 
ATOM      5  C7  UNL     1      -2.297  -0.679   0.438  0.00  0.00    +0.000 A 
ATOM      6  C8  UNL     1      -0.935  -0.973   0.550  0.00  0.00    +0.000 A 
ENDROOT
BRANCH   1  11
ATOM      7  N1  UNL     1       1.952  -1.496   0.735  0.00  0.00    +0.000 NA
ATOM      8  O1  UNL     1       3.332  -1.347   0.610  0.00  0.00    +0.000 OA
ATOM      9  C1  UNL     1       3.531  -0.168  -0.026  0.00  0.00    +0.000 A 
ATOM     10  N2  UNL     1       2.428   0.466  -0.329  0.00  0.00    +0.000 NA
ATOM     11  C2  UNL     1       1.456  -0.386   0.158  0.00  0.00    +0.000 A 
ENDBRANCH   1  11
TORSDOF 1
