REMARK  Name = /home/anacleto/Desktop/manuscript_Mpro/naturecomm/supplementary_file_S2/6-chemical-library/molecular_docking/3D_ligand_structure/133.pdb
REMARK  0 active torsions:
REMARK  status: ('A' for Active; 'I' for Inactive)
REMARK                            x       y       z     vdW  Elec       q    Type
REMARK                         _______ _______ _______ _____ _____    ______ ____
ROOT
ATOM      1  C1  UNL     1       0.980   0.529  -0.276  0.00  0.00    +0.000 C 
ATOM      2  C2  UNL     1       0.855  -0.760   0.087  0.00  0.00    +0.000 C 
ATOM      3  C3  UNL     1      -0.643  -0.667   0.267  0.00  0.00    +0.000 C 
ATOM      4  C4  UNL     1      -0.500   0.811  -0.149  0.00  0.00    +0.000 C 
ENDROOT
TORSDOF 0
