REMARK  Name = /home/anacleto/Desktop/manuscript_Mpro/naturecomm/supplementary_file_S2/6-chemical-library/molecular_docking/3D_ligand_structure/1333.pdb
REMARK  1 active torsions:
REMARK  status: ('A' for Active; 'I' for Inactive)
REMARK    1  A    between atoms: N2_5  and  C4_6
REMARK                            x       y       z     vdW  Elec       q    Type
REMARK                         _______ _______ _______ _____ _____    ______ ____
ROOT
ATOM      1  C4  UNL     1      -0.299   0.073  -0.192  0.00  0.00    +0.000 A 
ATOM      2  C5  UNL     1      -1.194  -0.239   0.837  0.00  0.00    +0.000 A 
ATOM      3  C6  UNL     1      -2.566  -0.113   0.619  0.00  0.00    +0.000 A 
ATOM      4  C7  UNL     1      -3.001   0.321  -0.620  0.00  0.00    +0.000 A 
ATOM      5  N3  UNL     1      -2.168   0.631  -1.635  0.00  0.00    +0.000 NA
ATOM      6  C8  UNL     1      -0.839   0.501  -1.402  0.00  0.00    +0.000 A 
ENDROOT
BRANCH   1  11
ATOM      7  C1  UNL     1       2.094   0.231  -0.936  0.00  0.00    +0.000 A 
ATOM      8  N1  UNL     1       3.303   0.024  -0.461  0.00  0.00    +0.000 NA
ATOM      9  C2  UNL     1       3.113  -0.400   0.820  0.00  0.00    +0.000 A 
ATOM     10  C3  UNL     1       1.773  -0.450   1.122  0.00  0.00    +0.000 A 
ATOM     11  N2  UNL     1       1.105  -0.042  -0.014  0.00  0.00    +0.000 N 
ENDBRANCH   1  11
TORSDOF 1
