REMARK  Name = /home/anacleto/Desktop/manuscript_Mpro/naturecomm/supplementary_file_S2/6-chemical-library/molecular_docking/3D_ligand_structure/1336.pdb
REMARK  1 active torsions:
REMARK  status: ('A' for Active; 'I' for Inactive)
REMARK    1  A    between atoms: C3_5  and  C4_6
REMARK                            x       y       z     vdW  Elec       q    Type
REMARK                         _______ _______ _______ _____ _____    ______ ____
ROOT
ATOM      1  C1  UNL     1       2.115   0.840  -0.229  0.00  0.00    +0.000 A 
ATOM      2  N1  UNL     1       3.344   0.260  -0.148  0.00  0.00    +0.000 N 
ATOM      3  N2  UNL     1       3.297  -1.056   0.117  0.00  0.00    +0.000 NA
ATOM      4  C2  UNL     1       1.988  -1.308   0.205  0.00  0.00    +0.000 A 
ATOM      5  C3  UNL     1       1.190  -0.159  -0.002  0.00  0.00    +0.000 A 
ATOM      6  H2  UNL     1       4.252   0.698  -0.262  0.00  0.00    +0.000 HD
ENDROOT
BRANCH   5   7
ATOM      7  C4  UNL     1      -0.251   0.033   0.001  0.00  0.00    +0.000 A 
ATOM      8  C5  UNL     1      -1.124  -1.026   0.238  0.00  0.00    +0.000 A 
ATOM      9  C6  UNL     1      -2.496  -0.782   0.228  0.00  0.00    +0.000 A 
ATOM     10  C7  UNL     1      -2.958   0.505  -0.016  0.00  0.00    +0.000 A 
ATOM     11  C8  UNL     1      -2.025   1.500  -0.242  0.00  0.00    +0.000 A 
ATOM     12  N3  UNL     1      -0.690   1.294  -0.239  0.00  0.00    +0.000 NA
ENDBRANCH   5   7
TORSDOF 1
