REMARK  Name = /home/anacleto/Desktop/manuscript_Mpro/naturecomm/supplementary_file_S2/6-chemical-library/molecular_docking/3D_ligand_structure/1340.pdb
REMARK  1 active torsions:
REMARK  status: ('A' for Active; 'I' for Inactive)
REMARK    1  A    between atoms: N2_5  and  C4_6
REMARK                            x       y       z     vdW  Elec       q    Type
REMARK                         _______ _______ _______ _____ _____    ______ ____
ROOT
ATOM      1  C4  UNL     1      -0.273   0.087   0.011  0.00  0.00    +0.000 A 
ATOM      2  C5  UNL     1      -0.836   1.370  -0.070  0.00  0.00    +0.000 A 
ATOM      3  C6  UNL     1      -2.220   1.539   0.009  0.00  0.00    +0.000 A 
ATOM      4  C7  UNL     1      -3.051   0.432   0.169  0.00  0.00    +0.000 A 
ATOM      5  C8  UNL     1      -2.500  -0.846   0.250  0.00  0.00    +0.000 A 
ATOM      6  C9  UNL     1      -1.115  -1.023   0.171  0.00  0.00    +0.000 A 
ENDROOT
BRANCH   1  11
ATOM      7  N1  UNL     1       1.951   1.019  -0.228  0.00  0.00    +0.000 NA
ATOM      8  C1  UNL     1       3.185   0.518  -0.266  0.00  0.00    +0.000 A 
ATOM      9  C2  UNL     1       3.204  -0.877  -0.138  0.00  0.00    +0.000 A 
ATOM     10  C3  UNL     1       1.880  -1.227  -0.015  0.00  0.00    +0.000 A 
ATOM     11  N2  UNL     1       1.140  -0.063  -0.072  0.00  0.00    +0.000 N 
ENDBRANCH   1  11
TORSDOF 1
