REMARK  Name = /home/anacleto/Desktop/manuscript_Mpro/naturecomm/supplementary_file_S2/6-chemical-library/molecular_docking/3D_ligand_structure/1347.pdb
REMARK  1 active torsions:
REMARK  status: ('A' for Active; 'I' for Inactive)
REMARK    1  A    between atoms: C4_5  and  C5_6
REMARK                            x       y       z     vdW  Elec       q    Type
REMARK                         _______ _______ _______ _____ _____    ______ ____
ROOT
ATOM      1  C5  UNL     1       0.304  -0.059  -0.038  0.00  0.00    +0.000 A 
ATOM      2  C6  UNL     1       0.816  -1.274   0.441  0.00  0.00    +0.000 A 
ATOM      3  C7  UNL     1       2.193  -1.512   0.477  0.00  0.00    +0.000 A 
ATOM      4  C8  UNL     1       3.081  -0.536   0.034  0.00  0.00    +0.000 A 
ATOM      5  C9  UNL     1       2.592   0.677  -0.446  0.00  0.00    +0.000 A 
ATOM      6  C10 UNL     1       1.214   0.913  -0.481  0.00  0.00    +0.000 A 
ENDROOT
BRANCH   1  11
ATOM      7  O1  UNL     1      -1.946  -0.811   0.374  0.00  0.00    +0.000 OA
ATOM      8  C1  UNL     1      -3.229  -0.386   0.256  0.00  0.00    +0.000 A 
ATOM      9  C2  UNL     1      -3.269   0.883  -0.267  0.00  0.00    +0.000 A 
ATOM     10  C3  UNL     1      -1.921   1.260  -0.483  0.00  0.00    +0.000 A 
ATOM     11  C4  UNL     1      -1.135   0.196  -0.079  0.00  0.00    +0.000 A 
ENDBRANCH   1  11
TORSDOF 1
