REMARK  Name = /home/anacleto/Desktop/manuscript_Mpro/naturecomm/supplementary_file_S2/6-chemical-library/molecular_docking/3D_ligand_structure/1348.pdb
REMARK  1 active torsions:
REMARK  status: ('A' for Active; 'I' for Inactive)
REMARK    1  A    between atoms: N1_5  and  C5_6
REMARK                            x       y       z     vdW  Elec       q    Type
REMARK                         _______ _______ _______ _____ _____    ______ ____
ROOT
ATOM      1  C5  UNL     1      -0.375   0.039   0.252  0.00  0.00    +0.000 A 
ATOM      2  C6  UNL     1      -0.949   1.297   0.497  0.00  0.00    +0.000 A 
ATOM      3  C7  UNL     1      -2.338   1.439   0.590  0.00  0.00    +0.000 A 
ATOM      4  C8  UNL     1      -3.168   0.332   0.440  0.00  0.00    +0.000 A 
ATOM      5  C9  UNL     1      -2.612  -0.920   0.197  0.00  0.00    +0.000 A 
ATOM      6  C10 UNL     1      -1.224  -1.069   0.103  0.00  0.00    +0.000 A 
ENDROOT
BRANCH   1  11
ATOM      7  C1  UNL     1       1.993   0.892   0.281  0.00  0.00    +0.000 A 
ATOM      8  C2  UNL     1       3.253   0.357   0.127  0.00  0.00    +0.000 A 
ATOM      9  C3  UNL     1       3.094  -1.022  -0.103  0.00  0.00    +0.000 A 
ATOM     10  C4  UNL     1       1.741  -1.283  -0.081  0.00  0.00    +0.000 A 
ATOM     11  N1  UNL     1       1.045  -0.109   0.156  0.00  0.00    +0.000 N 
ENDBRANCH   1  11
TORSDOF 1
