REMARK  Name = /home/anacleto/Desktop/manuscript_Mpro/naturecomm/supplementary_file_S2/6-chemical-library/molecular_docking/3D_ligand_structure/1359.pdb
REMARK  1 active torsions:
REMARK  status: ('A' for Active; 'I' for Inactive)
REMARK    1  A    between atoms: C3_5  and  C4_6
REMARK                            x       y       z     vdW  Elec       q    Type
REMARK                         _______ _______ _______ _____ _____    ______ ____
ROOT
ATOM      1  N1  UNL     1       1.672   1.351  -0.415  0.00  0.00    +0.000 NA
ATOM      2  C1  UNL     1       2.971   1.155  -0.428  0.00  0.00    +0.000 A 
ATOM      3  S1  UNL     1       3.502  -0.433  -0.060  0.00  0.00    +0.000 S 
ATOM      4  C2  UNL     1       1.864  -0.910   0.136  0.00  0.00    +0.000 A 
ATOM      5  C3  UNL     1       1.031   0.167  -0.091  0.00  0.00    +0.000 A 
ENDROOT
BRANCH   5   6
ATOM      6  C4  UNL     1      -0.530   0.095   0.002  0.00  0.00    +0.000 A 
ATOM      7  C5  UNL     1      -1.295  -1.014   0.313  0.00  0.00    +0.000 A 
ATOM      8  C6  UNL     1      -2.650  -0.602   0.276  0.00  0.00    +0.000 A 
ATOM      9  C7  UNL     1      -2.632   0.731  -0.056  0.00  0.00    +0.000 A 
ATOM     10  O1  UNL     1      -1.357   1.161  -0.223  0.00  0.00    +0.000 OA
ENDBRANCH   5   6
TORSDOF 1
