REMARK  Name = /home/anacleto/Desktop/manuscript_Mpro/naturecomm/supplementary_file_S2/6-chemical-library/molecular_docking/3D_ligand_structure/1376.pdb
REMARK  3 active torsions:
REMARK  status: ('A' for Active; 'I' for Inactive)
REMARK    1  A    between atoms: C3_3  and  N1_4
REMARK    2  A    between atoms: N1_4  and  C4_5
REMARK    3  A    between atoms: C4_5  and  C5_6
REMARK                            x       y       z     vdW  Elec       q    Type
REMARK                         _______ _______ _______ _____ _____    ______ ____
ROOT
ATOM      1  C4  UNL     1       0.359  -0.835  -0.223  0.00  0.00    +0.000 C 
ENDROOT
BRANCH   1   2
ATOM      2  C5  UNL     1       1.742  -0.319  -0.095  0.00  0.00    +0.000 A 
ATOM      3  C6  UNL     1       2.737  -0.540   0.832  0.00  0.00    +0.000 A 
ATOM      4  N2  UNL     1       3.869   0.165   0.514  0.00  0.00    +0.000 NA
ATOM      5  C7  UNL     1       3.577   0.809  -0.593  0.00  0.00    +0.000 A 
ATOM      6  N3  UNL     1       2.304   0.544  -1.004  0.00  0.00    +0.000 N 
ATOM      7  H11 UNL     1       1.833   0.930  -1.811  0.00  0.00    +0.000 HD
ENDBRANCH   1   2
BRANCH   1   8
ATOM      8  N1  UNL     1      -0.543   0.261  -0.578  0.00  0.00    +0.000 NA
ATOM      9  H6  UNL     1      -0.518   0.943   0.181  0.00  0.00    +0.000 HD
BRANCH   8  12
ATOM     10  C1  UNL     1      -3.045   0.776  -0.685  0.00  0.00    +0.000 C 
ATOM     11  C2  UNL     1      -2.879  -0.312   0.337  0.00  0.00    +0.000 C 
ATOM     12  C3  UNL     1      -1.914  -0.205  -0.810  0.00  0.00    +0.000 C 
ENDBRANCH   8  12
ENDBRANCH   1   8
TORSDOF 3
