REMARK  Name = /home/anacleto/Desktop/manuscript_Mpro/naturecomm/supplementary_file_S2/6-chemical-library/molecular_docking/3D_ligand_structure/1388.pdb
REMARK  1 active torsions:
REMARK  status: ('A' for Active; 'I' for Inactive)
REMARK    1  A    between atoms: C3_4  and  C4_5
REMARK                            x       y       z     vdW  Elec       q    Type
REMARK                         _______ _______ _______ _____ _____    ______ ____
ROOT
ATOM      1  C4  UNL     1      -0.094   0.276   0.108  0.00  0.00    +0.000 A 
ATOM      2  C5  UNL     1      -0.970  -0.744  -0.318  0.00  0.00    +0.000 A 
ATOM      3  C6  UNL     1      -2.360  -0.593  -0.286  0.00  0.00    +0.000 A 
ATOM      4  C7  UNL     1      -2.920   0.592   0.177  0.00  0.00    +0.000 A 
ATOM      5  C8  UNL     1      -2.090   1.621   0.606  0.00  0.00    +0.000 A 
ATOM      6  C9  UNL     1      -0.702   1.461   0.571  0.00  0.00    +0.000 A 
ENDROOT
BRANCH   1  10
ATOM      7  C1  UNL     1       2.134  -1.128   0.701  0.00  0.00    +0.000 C 
ATOM      8  O1  UNL     1       2.952  -1.340  -0.476  0.00  0.00    +0.000 OA
ATOM      9  C2  UNL     1       2.174  -0.362  -1.209  0.00  0.00    +0.000 C 
ATOM     10  C3  UNL     1       1.484   0.118   0.078  0.00  0.00    +0.000 C 
ENDBRANCH   1  10
TORSDOF 1
