REMARK  Name = /home/anacleto/Desktop/manuscript_Mpro/naturecomm/supplementary_file_S2/6-chemical-library/molecular_docking/3D_ligand_structure/1392.pdb
REMARK  2 active torsions:
REMARK  status: ('A' for Active; 'I' for Inactive)
REMARK    1  A    between atoms: C3_3  and  N1_4
REMARK    2  A    between atoms: N1_4  and  C4_5
REMARK                            x       y       z     vdW  Elec       q    Type
REMARK                         _______ _______ _______ _____ _____    ______ ____
ROOT
ATOM      1  C4  UNL     1       0.568   0.441   0.095  0.00  0.00    +0.000 A 
ATOM      2  C5  UNL     1       0.940  -0.903  -0.028  0.00  0.00    +0.000 A 
ATOM      3  C6  UNL     1       2.280  -1.267  -0.192  0.00  0.00    +0.000 A 
ATOM      4  C7  UNL     1       3.267  -0.287  -0.260  0.00  0.00    +0.000 A 
ATOM      5  C8  UNL     1       2.912   1.056  -0.176  0.00  0.00    +0.000 A 
ATOM      6  C9  UNL     1       1.571   1.415  -0.012  0.00  0.00    +0.000 A 
ENDROOT
BRANCH   1   7
ATOM      7  N1  UNL     1      -0.779   0.856   0.200  0.00  0.00    +0.000 N 
ATOM      8  H6  UNL     1      -0.849   1.785   0.609  0.00  0.00    +0.000 HD
BRANCH   7  11
ATOM      9  C1  UNL     1      -2.556  -0.887  -0.485  0.00  0.00    +0.000 C 
ATOM     10  C2  UNL     1      -3.267   0.234   0.213  0.00  0.00    +0.000 C 
ATOM     11  C3  UNL     1      -1.839  -0.083   0.562  0.00  0.00    +0.000 C 
ENDBRANCH   7  11
ENDBRANCH   1   7
TORSDOF 2
