REMARK  Name = /home/anacleto/Desktop/manuscript_Mpro/naturecomm/supplementary_file_S2/6-chemical-library/molecular_docking/3D_ligand_structure/1405.pdb
REMARK  1 active torsions:
REMARK  status: ('A' for Active; 'I' for Inactive)
REMARK    1  A    between atoms: C3_3  and  C4_4
REMARK                            x       y       z     vdW  Elec       q    Type
REMARK                         _______ _______ _______ _____ _____    ______ ____
ROOT
ATOM      1  C4  UNL     1       0.743  -0.438  -0.057  0.00  0.00    +0.000 A 
ATOM      2  N1  UNL     1       1.339   0.693   0.253  0.00  0.00    +0.000 NA
ATOM      3  C5  UNL     1       2.654   0.332   0.252  0.00  0.00    +0.000 A 
ATOM      4  N2  UNL     1       2.901  -0.947  -0.038  0.00  0.00    +0.000 NA
ATOM      5  O1  UNL     1       1.621  -1.470  -0.247  0.00  0.00    +0.000 OA
ENDROOT
BRANCH   1   8
ATOM      6  C1  UNL     1      -1.621   0.532  -0.752  0.00  0.00    +0.000 C 
ATOM      7  C2  UNL     1      -1.716   0.183   0.706  0.00  0.00    +0.000 C 
ATOM      8  C3  UNL     1      -0.800  -0.603  -0.197  0.00  0.00    +0.000 C 
ENDBRANCH   1   8
TORSDOF 1
