REMARK  Name = /home/anacleto/Desktop/manuscript_Mpro/naturecomm/supplementary_file_S2/6-chemical-library/molecular_docking/3D_ligand_structure/1419.pdb
REMARK  0 active torsions:
REMARK  status: ('A' for Active; 'I' for Inactive)
REMARK                            x       y       z     vdW  Elec       q    Type
REMARK                         _______ _______ _______ _____ _____    ______ ____
ROOT
ATOM      1  C1  UNL     1      -0.542   1.759   0.279  0.00  0.00    +0.000 A 
ATOM      2  C2  UNL     1      -1.577   2.634   0.614  0.00  0.00    +0.000 A 
ATOM      3  C3  UNL     1      -2.848   2.139   0.863  0.00  0.00    +0.000 A 
ATOM      4  C4  UNL     1      -3.089   0.774   0.734  0.00  0.00    +0.000 A 
ATOM      5  C5  UNL     1      -2.070  -0.110   0.344  0.00  0.00    +0.000 A 
ATOM      6  N1  UNL     1      -2.390  -1.477   0.224  0.00  0.00    +0.000 N 
ATOM      7  C6  UNL     1      -1.493  -2.196  -0.667  0.00  0.00    +0.000 C 
ATOM      8  C7  UNL     1      -0.082  -2.071  -0.128  0.00  0.00    +0.000 C 
ATOM      9  C8  UNL     1      -0.752   0.369   0.192  0.00  0.00    +0.000 A 
ATOM     10  C9  UNL     1       0.414  -0.596  -0.110  0.00  0.00    +0.000 C 
ATOM     11  C10 UNL     1       0.990  -0.290  -1.512  0.00  0.00    +0.000 C 
ATOM     12  O1  UNL     1       0.459  -0.658  -2.561  0.00  0.00    +0.000 OA
ATOM     13  N2  UNL     1       2.106   0.503  -1.593  0.00  0.00    +0.000 N 
ATOM     14  C11 UNL     1       3.137   0.488  -0.586  0.00  0.00    +0.000 C 
ATOM     15  C12 UNL     1       2.571   0.542   0.817  0.00  0.00    +0.000 C 
ATOM     16  C13 UNL     1       1.516  -0.544   0.992  0.00  0.00    +0.000 C 
ATOM     17  H5  UNL     1      -3.367  -1.600  -0.033  0.00  0.00    +0.000 HD
ATOM     18  H10 UNL     1       2.403   0.623  -2.555  0.00  0.00    +0.000 HD
ENDROOT
TORSDOF 0
