REMARK  Name = /home/anacleto/Desktop/manuscript_Mpro/naturecomm/supplementary_file_S2/6-chemical-library/molecular_docking/3D_ligand_structure/142.pdb
REMARK  0 active torsions:
REMARK  status: ('A' for Active; 'I' for Inactive)
REMARK                            x       y       z     vdW  Elec       q    Type
REMARK                         _______ _______ _______ _____ _____    ______ ____
ROOT
ATOM      1  N1  UNL     1       1.508   0.951  -0.547  0.00  0.00    +0.000 N 
ATOM      2  C1  UNL     1       2.824   0.594  -0.397  0.00  0.00    +0.000 C 
ATOM      3  O1  UNL     1       3.773   1.222  -0.828  0.00  0.00    +0.000 OA
ATOM      4  N2  UNL     1       2.879  -0.561   0.303  0.00  0.00    +0.000 N 
ATOM      5  C2  UNL     1       1.631  -0.990   0.632  0.00  0.00    +0.000 C 
ATOM      6  O2  UNL     1       1.387  -2.002   1.273  0.00  0.00    +0.000 OA
ATOM      7  C3  UNL     1       0.595   0.004   0.068  0.00  0.00    +0.000 C 
ATOM      8  C4  UNL     1      -0.191   0.673   1.205  0.00  0.00    +0.000 C 
ATOM      9  C5  UNL     1      -1.535  -0.012   1.436  0.00  0.00    +0.000 C 
ATOM     10  C6  UNL     1      -2.418   0.022   0.187  0.00  0.00    +0.000 C 
ATOM     11  C7  UNL     1      -1.631   0.016  -1.125  0.00  0.00    +0.000 C 
ATOM     12  C8  UNL     1      -0.286  -0.689  -0.982  0.00  0.00    +0.000 C 
ATOM     13  H1  UNL     1       1.248   1.788  -1.053  0.00  0.00    +0.000 HD
ATOM     14  H2  UNL     1       3.732  -1.030   0.552  0.00  0.00    +0.000 HD
ENDROOT
TORSDOF 0
