REMARK  Name = /home/anacleto/Desktop/manuscript_Mpro/naturecomm/supplementary_file_S2/6-chemical-library/molecular_docking/3D_ligand_structure/1435.pdb
REMARK  0 active torsions:
REMARK  status: ('A' for Active; 'I' for Inactive)
REMARK                            x       y       z     vdW  Elec       q    Type
REMARK                         _______ _______ _______ _____ _____    ______ ____
ROOT
ATOM      1  C1  UNL     1      -3.122   0.235  -0.182  0.00  0.00    +0.000 C 
ATOM      2  C2  UNL     1      -2.949  -1.276  -0.273  0.00  0.00    +0.000 C 
ATOM      3  O1  UNL     1      -3.895  -2.045  -0.385  0.00  0.00    +0.000 OA
ATOM      4  N1  UNL     1      -1.622  -1.664  -0.215  0.00  0.00    +0.000 NA
ATOM      5  C3  UNL     1      -0.913  -0.587  -0.097  0.00  0.00    +0.000 C 
ATOM      6  C4  UNL     1      -1.699   0.647  -0.064  0.00  0.00    +0.000 C 
ATOM      7  C5  UNL     1       0.543  -0.509   0.000  0.00  0.00    +0.000 A 
ATOM      8  C6  UNL     1       1.150   0.745   0.123  0.00  0.00    +0.000 A 
ATOM      9  C7  UNL     1       0.332   1.982   0.155  0.00  0.00    +0.000 C 
ATOM     10  O2  UNL     1       0.841   3.090   0.262  0.00  0.00    +0.000 OA
ATOM     11  C8  UNL     1      -1.140   1.850   0.053  0.00  0.00    +0.000 C 
ATOM     12  C9  UNL     1       2.544   0.833   0.217  0.00  0.00    +0.000 A 
ATOM     13  C10 UNL     1       3.318  -0.329   0.188  0.00  0.00    +0.000 A 
ATOM     14  C11 UNL     1       2.706  -1.578   0.064  0.00  0.00    +0.000 A 
ATOM     15  C12 UNL     1       1.317  -1.672  -0.030  0.00  0.00    +0.000 A 
ENDROOT
TORSDOF 0
