REMARK  Name = /home/anacleto/Desktop/manuscript_Mpro/naturecomm/supplementary_file_S2/6-chemical-library/molecular_docking/3D_ligand_structure/1450.pdb
REMARK  0 active torsions:
REMARK  status: ('A' for Active; 'I' for Inactive)
REMARK                            x       y       z     vdW  Elec       q    Type
REMARK                         _______ _______ _______ _____ _____    ______ ____
ROOT
ATOM      1  N1  UNL     1       3.409   0.189   0.038  0.00  0.00    +0.000 NA
ATOM      2  N2  UNL     1       3.426  -1.190  -0.026  0.00  0.00    +0.000 NA
ATOM      3  C1  UNL     1       2.178  -1.607  -0.056  0.00  0.00    +0.000 A 
ATOM      4  N3  UNL     1       1.336  -0.536  -0.014  0.00  0.00    +0.000 N 
ATOM      5  C2  UNL     1       2.152   0.565   0.045  0.00  0.00    +0.000 A 
ATOM      6  C3  UNL     1      -0.061  -0.444  -0.021  0.00  0.00    +0.000 A 
ATOM      7  C4  UNL     1      -0.605   0.850   0.035  0.00  0.00    +0.000 A 
ATOM      8  C5  UNL     1       0.286   2.051   0.098  0.00  0.00    +0.000 A 
ATOM      9  O1  UNL     1      -0.185   3.182   0.147  0.00  0.00    +0.000 OA
ATOM     10  N4  UNL     1       1.644   1.833   0.100  0.00  0.00    +0.000 N 
ATOM     11  C6  UNL     1      -1.992   1.013   0.030  0.00  0.00    +0.000 A 
ATOM     12  C7  UNL     1      -2.822  -0.109  -0.029  0.00  0.00    +0.000 A 
ATOM     13  C8  UNL     1      -2.270  -1.393  -0.084  0.00  0.00    +0.000 A 
ATOM     14  C9  UNL     1      -0.885  -1.570  -0.081  0.00  0.00    +0.000 A 
ATOM     15  H2  UNL     1       2.277   2.620   0.142  0.00  0.00    +0.000 HD
ENDROOT
TORSDOF 0
