REMARK  Name = /home/anacleto/Desktop/manuscript_Mpro/naturecomm/supplementary_file_S2/6-chemical-library/molecular_docking/3D_ligand_structure/1453.pdb
REMARK  0 active torsions:
REMARK  status: ('A' for Active; 'I' for Inactive)
REMARK                            x       y       z     vdW  Elec       q    Type
REMARK                         _______ _______ _______ _____ _____    ______ ____
ROOT
ATOM      1  C1  UNL     1       1.450   1.521   0.487  0.00  0.00    +0.000 A 
ATOM      2  C2  UNL     1       2.848   1.507   0.491  0.00  0.00    +0.000 A 
ATOM      3  C3  UNL     1       3.539   0.356   0.135  0.00  0.00    +0.000 A 
ATOM      4  C4  UNL     1       2.832  -0.786  -0.228  0.00  0.00    +0.000 A 
ATOM      5  C5  UNL     1       1.427  -0.777  -0.235  0.00  0.00    +0.000 A 
ATOM      6  C6  UNL     1       0.694   0.380   0.124  0.00  0.00    +0.000 A 
ATOM      7  C7  UNL     1      -0.739   0.319   0.095  0.00  0.00    +0.000 A 
ATOM      8  N1  UNL     1       0.765  -1.892  -0.589  0.00  0.00    +0.000 N 
ATOM      9  C8  UNL     1      -0.568  -1.978  -0.625  0.00  0.00    +0.000 A 
ATOM     10  C9  UNL     1      -1.363  -0.890  -0.288  0.00  0.00    +0.000 A 
ATOM     11  C10 UNL     1      -2.765  -0.997  -0.331  0.00  0.00    +0.000 A 
ATOM     12  C11 UNL     1      -3.569   0.088   0.005  0.00  0.00    +0.000 A 
ATOM     13  C12 UNL     1      -2.982   1.286   0.384  0.00  0.00    +0.000 A 
ATOM     14  C13 UNL     1      -1.590   1.401   0.429  0.00  0.00    +0.000 A 
ATOM     15  H5  UNL     1       1.309  -2.715  -0.844  0.00  0.00    +0.000 HD
ENDROOT
TORSDOF 0
