REMARK  Name = /home/anacleto/Desktop/manuscript_Mpro/naturecomm/supplementary_file_S2/6-chemical-library/molecular_docking/3D_ligand_structure/1456.pdb
REMARK  0 active torsions:
REMARK  status: ('A' for Active; 'I' for Inactive)
REMARK                            x       y       z     vdW  Elec       q    Type
REMARK                         _______ _______ _______ _____ _____    ______ ____
ROOT
ATOM      1  C1  UNL     1      -1.888  -0.200  -1.589  0.00  0.00    +0.000 A 
ATOM      2  C2  UNL     1      -3.221  -0.529  -1.332  0.00  0.00    +0.000 A 
ATOM      3  C3  UNL     1      -3.687  -0.674  -0.013  0.00  0.00    +0.000 A 
ATOM      4  C4  UNL     1      -2.824  -0.505   1.074  0.00  0.00    +0.000 A 
ATOM      5  C5  UNL     1      -1.499  -0.220   0.812  0.00  0.00    +0.000 A 
ATOM      6  C6  UNL     1      -1.043  -0.047  -0.506  0.00  0.00    +0.000 A 
ATOM      7  N1  UNL     1      -0.483   0.028   1.793  0.00  0.00    +0.000 N 
ATOM      8  C7  UNL     1       0.722  -0.162   0.958  0.00  0.00    +0.000 C 
ATOM      9  C8  UNL     1       0.380   0.385  -0.437  0.00  0.00    +0.000 C 
ATOM     10  C9  UNL     1       1.434  -0.123  -1.413  0.00  0.00    +0.000 C 
ATOM     11  N2  UNL     1       2.790  -0.112  -0.821  0.00  0.00    +0.000 NA
ATOM     12  C10 UNL     1       2.932   0.832   0.295  0.00  0.00    +0.000 C 
ATOM     13  C11 UNL     1       1.980   0.521   1.468  0.00  0.00    +0.000 C 
ATOM     14  H5  UNL     1      -0.567  -0.640   2.556  0.00  0.00    +0.000 HD
ATOM     15  H10 UNL     1       3.477   0.091  -1.547  0.00  0.00    +0.000 HD
ENDROOT
TORSDOF 0
