REMARK  Name = /home/anacleto/Desktop/manuscript_Mpro/naturecomm/supplementary_file_S2/6-chemical-library/molecular_docking/3D_ligand_structure/1464.pdb
REMARK  0 active torsions:
REMARK  status: ('A' for Active; 'I' for Inactive)
REMARK                            x       y       z     vdW  Elec       q    Type
REMARK                         _______ _______ _______ _____ _____    ______ ____
ROOT
ATOM      1  C1  UNL     1       1.707  -1.413   0.274  0.00  0.00    +0.000 A 
ATOM      2  C2  UNL     1       3.059  -1.055   0.218  0.00  0.00    +0.000 A 
ATOM      3  C3  UNL     1       3.434   0.264  -0.022  0.00  0.00    +0.000 A 
ATOM      4  C4  UNL     1       2.475   1.263  -0.214  0.00  0.00    +0.000 A 
ATOM      5  C5  UNL     1       1.127   0.887  -0.155  0.00  0.00    +0.000 A 
ATOM      6  C6  UNL     1       0.719  -0.425   0.084  0.00  0.00    +0.000 A 
ATOM      7  C7  UNL     1      -0.713  -0.437   0.075  0.00  0.00    +0.000 A 
ATOM      8  N1  UNL     1      -0.012   1.642  -0.303  0.00  0.00    +0.000 N 
ATOM      9  C8  UNL     1      -1.140   0.868  -0.169  0.00  0.00    +0.000 A 
ATOM     10  C9  UNL     1      -2.493   1.221  -0.245  0.00  0.00    +0.000 A 
ATOM     11  C10 UNL     1      -3.438   0.207  -0.065  0.00  0.00    +0.000 A 
ATOM     12  C11 UNL     1      -3.044  -1.107   0.181  0.00  0.00    +0.000 A 
ATOM     13  C12 UNL     1      -1.687  -1.442   0.253  0.00  0.00    +0.000 A 
ATOM     14  H5  UNL     1      -0.019   2.634  -0.487  0.00  0.00    +0.000 HD
ENDROOT
TORSDOF 0
