REMARK  Name = /home/anacleto/Desktop/manuscript_Mpro/naturecomm/supplementary_file_S2/6-chemical-library/molecular_docking/3D_ligand_structure/1469.pdb
REMARK  0 active torsions:
REMARK  status: ('A' for Active; 'I' for Inactive)
REMARK                            x       y       z     vdW  Elec       q    Type
REMARK                         _______ _______ _______ _____ _____    ______ ____
ROOT
ATOM      1  C1  UNL     1      -2.102   0.362  -0.772  0.00  0.00    +0.000 C 
ATOM      2  C2  UNL     1      -1.819  -1.051  -0.156  0.00  0.00    +0.000 C 
ATOM      3  C3  UNL     1      -1.893  -0.296   1.216  0.00  0.00    +0.000 C 
ATOM      4  O1  UNL     1      -0.517  -1.641  -0.489  0.00  0.00    +0.000 OA
ATOM      5  C4  UNL     1       0.573  -0.796  -0.324  0.00  0.00    +0.000 A 
ATOM      6  C5  UNL     1       0.330   0.517   0.136  0.00  0.00    +0.000 A 
ATOM      7  C6  UNL     1      -1.187   0.856   0.409  0.00  0.00    +0.000 C 
ATOM      8  C7  UNL     1       1.847  -1.262  -0.613  0.00  0.00    +0.000 A 
ATOM      9  C8  UNL     1       2.928  -0.400  -0.441  0.00  0.00    +0.000 A 
ATOM     10  C9  UNL     1       2.721   0.907   0.013  0.00  0.00    +0.000 A 
ATOM     11  C10 UNL     1       1.430   1.363   0.300  0.00  0.00    +0.000 A 
ENDROOT
TORSDOF 0
