REMARK  Name = /home/anacleto/Desktop/manuscript_Mpro/naturecomm/supplementary_file_S2/6-chemical-library/molecular_docking/3D_ligand_structure/147.pdb
REMARK  0 active torsions:
REMARK  status: ('A' for Active; 'I' for Inactive)
REMARK                            x       y       z     vdW  Elec       q    Type
REMARK                         _______ _______ _______ _____ _____    ______ ____
ROOT
ATOM      1  C1  UNL     1      -1.188   1.433   0.228  0.00  0.00    +0.000 A 
ATOM      2  C2  UNL     1      -2.416   0.774   0.310  0.00  0.00    +0.000 A 
ATOM      3  C3  UNL     1      -2.471  -0.617   0.216  0.00  0.00    +0.000 A 
ATOM      4  C4  UNL     1      -1.298  -1.353   0.039  0.00  0.00    +0.000 A 
ATOM      5  C5  UNL     1      -0.065  -0.694  -0.043  0.00  0.00    +0.000 A 
ATOM      6  C6  UNL     1      -0.009   0.697   0.051  0.00  0.00    +0.000 A 
ATOM      7  C7  UNL     1       1.171  -1.481  -0.230  0.00  0.00    +0.000 C 
ATOM      8  O1  UNL     1       1.156  -2.701  -0.316  0.00  0.00    +0.000 OA
ATOM      9  C8  UNL     1       2.448  -0.745  -0.311  0.00  0.00    +0.000 C 
ATOM     10  C9  UNL     1       2.501   0.586  -0.221  0.00  0.00    +0.000 C 
ATOM     11  C10 UNL     1       1.285   1.401  -0.035  0.00  0.00    +0.000 C 
ATOM     12  O2  UNL     1       1.366   2.620   0.044  0.00  0.00    +0.000 OA
ENDROOT
TORSDOF 0
