REMARK  Name = /home/anacleto/Desktop/manuscript_Mpro/naturecomm/supplementary_file_S2/6-chemical-library/molecular_docking/3D_ligand_structure/1471.pdb
REMARK  0 active torsions:
REMARK  status: ('A' for Active; 'I' for Inactive)
REMARK                            x       y       z     vdW  Elec       q    Type
REMARK                         _______ _______ _______ _____ _____    ______ ____
ROOT
ATOM      1  C1  UNL     1       1.549  -1.034   0.727  0.00  0.00    +0.000 C 
ATOM      2  C2  UNL     1       1.875  -0.721  -0.729  0.00  0.00    +0.000 C 
ATOM      3  C3  UNL     1       1.621   0.774  -0.877  0.00  0.00    +0.000 C 
ATOM      4  C4  UNL     1       0.522   1.119   0.121  0.00  0.00    +0.000 C 
ATOM      5  C5  UNL     1       0.476  -0.035   1.145  0.00  0.00    +0.000 C 
ATOM      6  C6  UNL     1      -0.941   1.196  -0.374  0.00  0.00    +0.000 C 
ATOM      7  C7  UNL     1      -1.697   0.888   0.925  0.00  0.00    +0.000 C 
ATOM      8  C8  UNL     1      -1.007  -0.471   1.104  0.00  0.00    +0.000 C 
ATOM      9  C9  UNL     1      -1.386  -1.163  -0.215  0.00  0.00    +0.000 C 
ATOM     10  C10 UNL     1      -1.340  -0.015  -1.234  0.00  0.00    +0.000 C 
ENDROOT
TORSDOF 0
