REMARK  Name = /home/anacleto/Desktop/manuscript_Mpro/naturecomm/supplementary_file_S2/6-chemical-library/molecular_docking/3D_ligand_structure/1486.pdb
REMARK  7 active torsions:
REMARK  status: ('A' for Active; 'I' for Inactive)
REMARK    1  A    between atoms: C9_10  and  N2_11
REMARK    2  A    between atoms: C10_12  and  C11_14
REMARK    3  A    between atoms: C11_14  and  N3_15
REMARK    4  A    between atoms: C12_16  and  C13_18
REMARK    5  A    between atoms: C13_18  and  O3_19
REMARK    6  A    between atoms: O3_19  and  C14_20
REMARK    7  A    between atoms: C14_20  and  C15_21
REMARK                            x       y       z     vdW  Elec       q    Type
REMARK                         _______ _______ _______ _____ _____    ______ ____
ROOT
ATOM      1  C11 UNL     1      -0.879   1.797  -2.039  0.00  0.00    +0.000 C 
ENDROOT
BRANCH   1   3
ATOM      2  N2  UNL     1      -3.030   1.019  -1.208  0.00  0.00    +0.000 N 
ATOM      3  C10 UNL     1      -2.328   1.396  -2.341  0.00  0.00    +0.000 C 
ATOM      4  O1  UNL     1      -2.765   1.450  -3.486  0.00  0.00    +0.000 OA
ATOM      5  H7  UNL     1      -2.490   1.025  -0.345  0.00  0.00    +0.000 HD
BRANCH   2  15
ATOM      6  C1  UNL     1      -4.252   0.272   1.383  0.00  0.00    +0.000 A 
ATOM      7  C2  UNL     1      -4.867  -0.098   2.584  0.00  0.00    +0.000 A 
ATOM      8  C3  UNL     1      -6.192  -0.509   2.590  0.00  0.00    +0.000 A 
ATOM      9  C4  UNL     1      -6.903  -0.549   1.395  0.00  0.00    +0.000 A 
ATOM     10  C5  UNL     1      -6.293  -0.179   0.181  0.00  0.00    +0.000 A 
ATOM     11  C6  UNL     1      -4.942   0.242   0.142  0.00  0.00    +0.000 A 
ATOM     12  C7  UNL     1      -7.009  -0.218  -1.013  0.00  0.00    +0.000 A 
ATOM     13  N1  UNL     1      -6.509   0.119  -2.217  0.00  0.00    +0.000 NA
ATOM     14  C8  UNL     1      -5.215   0.517  -2.242  0.00  0.00    +0.000 A 
ATOM     15  C9  UNL     1      -4.384   0.601  -1.123  0.00  0.00    +0.000 A 
ENDBRANCH   2  15
ENDBRANCH   1   3
BRANCH   1  16
ATOM     16  N3  UNL     1      -0.084   0.674  -1.579  0.00  0.00    +0.000 N 
ATOM     17  C12 UNL     1      -0.089   0.248  -0.273  0.00  0.00    +0.000 C 
ATOM     18  O2  UNL     1      -0.789   0.781   0.585  0.00  0.00    +0.000 OA
ATOM     19  H10 UNL     1       0.373   0.072  -2.260  0.00  0.00    +0.000 HD
BRANCH  17  20
ATOM     20  C13 UNL     1       0.793  -0.975  -0.005  0.00  0.00    +0.000 C 
BRANCH  20  21
ATOM     21  O3  UNL     1       1.797  -1.154  -1.004  0.00  0.00    +0.000 OA
BRANCH  21  22
ATOM     22  C14 UNL     1       3.013  -0.480  -0.695  0.00  0.00    +0.000 C 
BRANCH  22  23
ATOM     23  C15 UNL     1       3.888  -1.126   0.398  0.00  0.00    +0.000 C 
ATOM     24  O4  UNL     1       3.501  -2.091   1.058  0.00  0.00    +0.000 OA
ATOM     25  N4  UNL     1       5.125  -0.552   0.605  0.00  0.00    +0.000 N 
ATOM     26  C16 UNL     1       6.050  -1.087   1.590  0.00  0.00    +0.000 C 
ATOM     27  C17 UNL     1       7.374  -0.407   1.275  0.00  0.00    +0.000 C 
ATOM     28  C18 UNL     1       6.940   0.939   0.708  0.00  0.00    +0.000 C 
ATOM     29  C19 UNL     1       5.699   0.584  -0.099  0.00  0.00    +0.000 C 
ENDBRANCH  22  23
ENDBRANCH  21  22
ENDBRANCH  20  21
ENDBRANCH  17  20
ENDBRANCH   1  16
TORSDOF 7
