REMARK  Name = /home/anacleto/Desktop/manuscript_Mpro/naturecomm/supplementary_file_S2/6-chemical-library/molecular_docking/3D_ligand_structure/1487.pdb
REMARK  6 active torsions:
REMARK  status: ('A' for Active; 'I' for Inactive)
REMARK    1  A    between atoms: C6_6  and  C7_7
REMARK    2  A    between atoms: C7_7  and  C8_8
REMARK    3  A    between atoms: C8_8  and  N1_9
REMARK    4  A    between atoms: C9_10  and  C10_12
REMARK    5  A    between atoms: C10_12  and  N2_13
REMARK    6  A    between atoms: C11_14  and  C12_16
REMARK                            x       y       z     vdW  Elec       q    Type
REMARK                         _______ _______ _______ _____ _____    ______ ____
ROOT
ATOM      1  N2  UNL     1       1.418   1.556   0.521  0.00  0.00    +0.000 N 
ATOM      2  C11 UNL     1       2.580   2.280   0.410  0.00  0.00    +0.000 C 
ATOM      3  O2  UNL     1       2.625   3.502   0.479  0.00  0.00    +0.000 OA
ATOM      4  H13 UNL     1       1.469   0.539   0.466  0.00  0.00    +0.000 HD
ENDROOT
BRANCH   2   5
ATOM      5  C12 UNL     1       3.813   1.455   0.196  0.00  0.00    +0.000 A 
ATOM      6  C13 UNL     1       5.049   2.082   0.066  0.00  0.00    +0.000 A 
ATOM      7  C14 UNL     1       6.173   1.285  -0.132  0.00  0.00    +0.000 A 
ATOM      8  N3  UNL     1       3.633   0.103   0.142  0.00  0.00    +0.000 NA
ATOM      9  C15 UNL     1       4.741  -0.639  -0.050  0.00  0.00    +0.000 A 
ATOM     10  C16 UNL     1       6.011  -0.098  -0.190  0.00  0.00    +0.000 A 
ATOM     11  N4  UNL     1       4.570  -2.015  -0.107  0.00  0.00    +0.000 N 
ATOM     12  C17 UNL     1       5.592  -2.892  -0.295  0.00  0.00    +0.000 A 
ATOM     13  O3  UNL     1       5.408  -4.103  -0.341  0.00  0.00    +0.000 OA
ATOM     14  N5  UNL     1       6.838  -2.350  -0.432  0.00  0.00    +0.000 N 
ATOM     15  C18 UNL     1       7.143  -1.012  -0.395  0.00  0.00    +0.000 A 
ATOM     16  O4  UNL     1       8.286  -0.592  -0.525  0.00  0.00    +0.000 OA
ATOM     17  H16 UNL     1       3.635  -2.383  -0.002  0.00  0.00    +0.000 HD
ATOM     18  H17 UNL     1       7.601  -2.996  -0.572  0.00  0.00    +0.000 HD
ENDBRANCH   2   5
BRANCH   1  19
ATOM     19  C10 UNL     1       0.135   2.176   0.750  0.00  0.00    +0.000 C 
BRANCH  19  21
ATOM     20  N1  UNL     1      -2.235   1.643   0.952  0.00  0.00    +0.000 N 
ATOM     21  C9  UNL     1      -0.970   1.120   0.785  0.00  0.00    +0.000 C 
ATOM     22  O1  UNL     1      -0.745  -0.084   0.679  0.00  0.00    +0.000 OA
ATOM     23  H10 UNL     1      -2.364   2.648   0.953  0.00  0.00    +0.000 HD
BRANCH  20  24
ATOM     24  C8  UNL     1      -3.412   0.794   0.982  0.00  0.00    +0.000 C 
BRANCH  24  25
ATOM     25  C7  UNL     1      -3.855   0.369  -0.420  0.00  0.00    +0.000 C 
BRANCH  25  31
ATOM     26  C1  UNL     1      -6.367   0.116  -0.541  0.00  0.00    +0.000 A 
ATOM     27  C2  UNL     1      -7.523  -0.665  -0.481  0.00  0.00    +0.000 A 
ATOM     28  C3  UNL     1      -7.428  -2.037  -0.254  0.00  0.00    +0.000 A 
ATOM     29  C4  UNL     1      -6.178  -2.630  -0.086  0.00  0.00    +0.000 A 
ATOM     30  C5  UNL     1      -5.021  -1.851  -0.146  0.00  0.00    +0.000 A 
ATOM     31  C6  UNL     1      -5.106  -0.471  -0.378  0.00  0.00    +0.000 A 
ENDBRANCH  25  31
ENDBRANCH  24  25
ENDBRANCH  20  24
ENDBRANCH  19  21
ENDBRANCH   1  19
TORSDOF 6
