REMARK  Name = /home/anacleto/Desktop/manuscript_Mpro/naturecomm/supplementary_file_S2/6-chemical-library/molecular_docking/3D_ligand_structure/1488.pdb
REMARK  6 active torsions:
REMARK  status: ('A' for Active; 'I' for Inactive)
REMARK    1  A    between atoms: C6_6  and  C7_7
REMARK    2  A    between atoms: N1_9  and  C8_10
REMARK    3  A    between atoms: C8_10  and  C9_11
REMARK    4  A    between atoms: N2_13  and  C10_14
REMARK    5  A    between atoms: C10_14  and  C11_15
REMARK    6  A    between atoms: N3_17  and  C12_18
REMARK                            x       y       z     vdW  Elec       q    Type
REMARK                         _______ _______ _______ _____ _____    ______ ____
ROOT
ATOM      1  C9  UNL     1       0.797  -1.307  -1.328  0.00  0.00    +0.000 C 
ATOM      2  O2  UNL     1      -0.086  -1.792  -2.034  0.00  0.00    +0.000 OA
ATOM      3  N2  UNL     1       0.751  -1.384   0.050  0.00  0.00    +0.000 N 
ATOM      4  H9  UNL     1       1.236  -0.645   0.551  0.00  0.00    +0.000 HD
ENDROOT
BRANCH   1   5
ATOM      5  C8  UNL     1       1.948  -0.467  -1.885  0.00  0.00    +0.000 C 
BRANCH   5   8
ATOM      6  C7  UNL     1       3.903   0.725  -0.986  0.00  0.00    +0.000 C 
ATOM      7  O1  UNL     1       3.727   1.682  -1.730  0.00  0.00    +0.000 OA
ATOM      8  N1  UNL     1       3.047  -0.355  -0.934  0.00  0.00    +0.000 N 
ATOM      9  H6  UNL     1       3.392  -1.219  -0.537  0.00  0.00    +0.000 HD
BRANCH   6  15
ATOM     10  C1  UNL     1       6.236   1.400  -0.476  0.00  0.00    +0.000 A 
ATOM     11  C2  UNL     1       7.384   1.372   0.319  0.00  0.00    +0.000 A 
ATOM     12  C3  UNL     1       7.401   0.616   1.490  0.00  0.00    +0.000 A 
ATOM     13  C4  UNL     1       6.271  -0.106   1.874  0.00  0.00    +0.000 A 
ATOM     14  C5  UNL     1       5.121  -0.082   1.081  0.00  0.00    +0.000 A 
ATOM     15  C6  UNL     1       5.103   0.664  -0.105  0.00  0.00    +0.000 A 
ENDBRANCH   6  15
ENDBRANCH   5   8
ENDBRANCH   1   5
BRANCH   3  16
ATOM     16  C10 UNL     1      -0.365  -2.034   0.712  0.00  0.00    +0.000 C 
BRANCH  16  17
ATOM     17  C11 UNL     1      -1.583  -1.108   0.717  0.00  0.00    +0.000 C 
ATOM     18  O3  UNL     1      -1.735  -0.272   1.602  0.00  0.00    +0.000 OA
ATOM     19  N3  UNL     1      -2.353  -1.254  -0.428  0.00  0.00    +0.000 N 
ATOM     20  H12 UNL     1      -1.814  -1.608  -1.223  0.00  0.00    +0.000 HD
BRANCH  19  21
ATOM     21  C12 UNL     1      -3.495  -0.482  -0.761  0.00  0.00    +0.000 A 
ATOM     22  C13 UNL     1      -3.611  -0.099  -2.101  0.00  0.00    +0.000 A 
ATOM     23  N4  UNL     1      -4.602   0.665  -2.607  0.00  0.00    +0.000 NA
ATOM     24  C14 UNL     1      -5.545   1.063  -1.729  0.00  0.00    +0.000 A 
ATOM     25  C15 UNL     1      -5.577   0.711  -0.378  0.00  0.00    +0.000 A 
ATOM     26  C16 UNL     1      -4.537  -0.105   0.131  0.00  0.00    +0.000 A 
ATOM     27  C17 UNL     1      -6.634   1.136   0.448  0.00  0.00    +0.000 A 
ATOM     28  C18 UNL     1      -6.701   0.738   1.780  0.00  0.00    +0.000 A 
ATOM     29  C19 UNL     1      -5.721  -0.099   2.294  0.00  0.00    +0.000 A 
ATOM     30  C20 UNL     1      -4.664  -0.521   1.481  0.00  0.00    +0.000 A 
ENDBRANCH  19  21
ENDBRANCH  16  17
ENDBRANCH   3  16
TORSDOF 6
