REMARK  Name = /home/anacleto/Desktop/manuscript_Mpro/naturecomm/supplementary_file_S2/6-chemical-library/molecular_docking/3D_ligand_structure/1492.pdb
REMARK  5 active torsions:
REMARK  status: ('A' for Active; 'I' for Inactive)
REMARK    1  A    between atoms: N1_5  and  C5_9
REMARK    2  A    between atoms: C5_9  and  C6_10
REMARK    3  A    between atoms: N3_12  and  C7_13
REMARK    4  A    between atoms: C7_13  and  C8_14
REMARK    5  A    between atoms: N4_16  and  C9_17
REMARK                            x       y       z     vdW  Elec       q    Type
REMARK                         _______ _______ _______ _____ _____    ______ ____
ROOT
ATOM      1  C7  UNL     1       0.114  -3.241  -1.816  0.00  0.00    +0.000 C 
ENDROOT
BRANCH   1   4
ATOM      2  C6  UNL     1      -1.684  -1.769  -0.973  0.00  0.00    +0.000 C 
ATOM      3  O3  UNL     1      -1.258  -1.876   0.178  0.00  0.00    +0.000 OA
ATOM      4  N3  UNL     1      -1.075  -2.425  -2.020  0.00  0.00    +0.000 N 
ATOM      5  H6  UNL     1      -1.284  -2.142  -2.974  0.00  0.00    +0.000 HD
BRANCH   2   6
ATOM      6  C5  UNL     1      -2.906  -0.926  -1.360  0.00  0.00    +0.000 C 
BRANCH   6  11
ATOM      7  O1  UNL     1      -3.270   3.105   2.319  0.00  0.00    +0.000 OA
ATOM      8  C1  UNL     1      -3.212   2.212   1.475  0.00  0.00    +0.000 A 
ATOM      9  C2  UNL     1      -3.992   0.969   1.625  0.00  0.00    +0.000 A 
ATOM     10  C3  UNL     1      -3.889   0.019   0.695  0.00  0.00    +0.000 A 
ATOM     11  N1  UNL     1      -3.074   0.173  -0.407  0.00  0.00    +0.000 N 
ATOM     12  C4  UNL     1      -2.290   1.311  -0.592  0.00  0.00    +0.000 A 
ATOM     13  O2  UNL     1      -1.504   1.458  -1.534  0.00  0.00    +0.000 OA
ATOM     14  N2  UNL     1      -2.433   2.289   0.357  0.00  0.00    +0.000 N 
ATOM     15  H3  UNL     1      -1.866   3.118   0.245  0.00  0.00    +0.000 HD
ENDBRANCH   6  11
ENDBRANCH   2   6
ENDBRANCH   1   4
BRANCH   1  16
ATOM     16  C8  UNL     1       1.409  -2.411  -1.739  0.00  0.00    +0.000 C 
ATOM     17  O4  UNL     1       2.320  -2.608  -2.544  0.00  0.00    +0.000 OA
ATOM     18  N4  UNL     1       1.426  -1.516  -0.681  0.00  0.00    +0.000 N 
ATOM     19  H9  UNL     1       0.583  -1.502  -0.113  0.00  0.00    +0.000 HD
BRANCH  18  20
ATOM     20  C9  UNL     1       2.449  -0.588  -0.336  0.00  0.00    +0.000 A 
ATOM     21  C10 UNL     1       3.662  -0.518  -1.029  0.00  0.00    +0.000 A 
ATOM     22  N5  UNL     1       4.665   0.347  -0.746  0.00  0.00    +0.000 NA
ATOM     23  C11 UNL     1       4.453   1.198   0.278  0.00  0.00    +0.000 A 
ATOM     24  C12 UNL     1       3.291   1.236   1.050  0.00  0.00    +0.000 A 
ATOM     25  C13 UNL     1       2.252   0.320   0.750  0.00  0.00    +0.000 A 
ATOM     26  C14 UNL     1       3.157   2.164   2.102  0.00  0.00    +0.000 A 
ATOM     27  C15 UNL     1       1.995   2.202   2.874  0.00  0.00    +0.000 A 
ATOM     28  C16 UNL     1       0.958   1.316   2.609  0.00  0.00    +0.000 A 
ATOM     29  C17 UNL     1       1.085   0.390   1.565  0.00  0.00    +0.000 A 
ENDBRANCH  18  20
ENDBRANCH   1  16
TORSDOF 5
