REMARK  Name = /home/anacleto/Desktop/manuscript_Mpro/naturecomm/supplementary_file_S2/6-chemical-library/molecular_docking/3D_ligand_structure/1499.pdb
REMARK  6 active torsions:
REMARK  status: ('A' for Active; 'I' for Inactive)
REMARK    1  A    between atoms: C6_6  and  C7_7
REMARK    2  A    between atoms: C7_7  and  C8_8
REMARK    3  A    between atoms: C8_8  and  N1_9
REMARK    4  A    between atoms: C9_10  and  C10_12
REMARK    5  A    between atoms: C10_12  and  N2_13
REMARK    6  A    between atoms: C11_14  and  C12_16
REMARK                            x       y       z     vdW  Elec       q    Type
REMARK                         _______ _______ _______ _____ _____    ______ ____
ROOT
ATOM      1  N2  UNL     1      -1.552   0.318   0.680  0.00  0.00    +0.000 N 
ATOM      2  C11 UNL     1      -2.410  -0.683   1.078  0.00  0.00    +0.000 C 
ATOM      3  O2  UNL     1      -2.098  -1.607   1.817  0.00  0.00    +0.000 OA
ATOM      4  H13 UNL     1      -1.782   0.777  -0.196  0.00  0.00    +0.000 HD
ENDROOT
BRANCH   2   5
ATOM      5  C12 UNL     1      -3.789  -0.552   0.494  0.00  0.00    +0.000 A 
ATOM      6  N3  UNL     1      -4.243   0.685   0.064  0.00  0.00    +0.000 N 
ATOM      7  C13 UNL     1      -4.538  -1.666   0.417  0.00  0.00    +0.000 A 
ATOM      8  C14 UNL     1      -5.909  -1.579  -0.154  0.00  0.00    +0.000 A 
ATOM      9  O3  UNL     1      -6.654  -2.542  -0.277  0.00  0.00    +0.000 OA
ATOM     10  N4  UNL     1      -6.290  -0.288  -0.537  0.00  0.00    +0.000 N 
ATOM     11  C15 UNL     1      -5.491   0.831  -0.421  0.00  0.00    +0.000 A 
ATOM     12  N5  UNL     1      -7.498   0.056  -1.048  0.00  0.00    +0.000 NA
ATOM     13  C16 UNL     1      -7.353   1.376  -1.194  0.00  0.00    +0.000 A 
ATOM     14  N6  UNL     1      -6.143   1.895  -0.815  0.00  0.00    +0.000 NA
ATOM     15  H14 UNL     1      -3.697   1.502   0.324  0.00  0.00    +0.000 HD
ENDBRANCH   2   5
BRANCH   1  16
ATOM     16  C10 UNL     1      -0.127   0.182   0.931  0.00  0.00    +0.000 C 
BRANCH  16  18
ATOM     17  N1  UNL     1       1.750  -1.033  -0.057  0.00  0.00    +0.000 N 
ATOM     18  C9  UNL     1       0.542  -0.422  -0.306  0.00  0.00    +0.000 C 
ATOM     19  O1  UNL     1       0.053  -0.318  -1.430  0.00  0.00    +0.000 OA
ATOM     20  H10 UNL     1       2.177  -0.930   0.856  0.00  0.00    +0.000 HD
BRANCH  17  21
ATOM     21  C8  UNL     1       2.582  -1.551  -1.127  0.00  0.00    +0.000 C 
BRANCH  21  22
ATOM     22  C7  UNL     1       3.402  -0.461  -1.826  0.00  0.00    +0.000 C 
BRANCH  22  28
ATOM     23  C1  UNL     1       5.531  -0.398  -0.459  0.00  0.00    +0.000 A 
ATOM     24  C2  UNL     1       6.401   0.244   0.424  0.00  0.00    +0.000 A 
ATOM     25  C3  UNL     1       6.110   1.527   0.883  0.00  0.00    +0.000 A 
ATOM     26  C4  UNL     1       4.949   2.171   0.459  0.00  0.00    +0.000 A 
ATOM     27  C5  UNL     1       4.077   1.531  -0.423  0.00  0.00    +0.000 A 
ATOM     28  C6  UNL     1       4.360   0.240  -0.890  0.00  0.00    +0.000 A 
ENDBRANCH  22  28
ENDBRANCH  21  22
ENDBRANCH  17  21
ENDBRANCH  16  18
ENDBRANCH   1  16
TORSDOF 6
