REMARK  Name = /home/anacleto/Desktop/manuscript_Mpro/naturecomm/supplementary_file_S2/6-chemical-library/molecular_docking/3D_ligand_structure/1502.pdb
REMARK  6 active torsions:
REMARK  status: ('A' for Active; 'I' for Inactive)
REMARK    1  A    between atoms: C6_6  and  C7_7
REMARK    2  A    between atoms: C7_7  and  C8_8
REMARK    3  A    between atoms: C8_8  and  N1_9
REMARK    4  A    between atoms: C9_10  and  C10_12
REMARK    5  A    between atoms: C10_12  and  N2_13
REMARK    6  A    between atoms: C11_14  and  C12_16
REMARK                            x       y       z     vdW  Elec       q    Type
REMARK                         _______ _______ _______ _____ _____    ______ ____
ROOT
ATOM      1  C10 UNL     1       0.899  -3.222  -1.893  0.00  0.00    +0.000 C 
ENDROOT
BRANCH   1   3
ATOM      2  N1  UNL     1      -1.271  -2.106  -1.639  0.00  0.00    +0.000 N 
ATOM      3  C9  UNL     1      -0.631  -3.264  -2.029  0.00  0.00    +0.000 C 
ATOM      4  O1  UNL     1      -1.220  -4.239  -2.487  0.00  0.00    +0.000 OA
ATOM      5  H10 UNL     1      -0.738  -1.523  -1.006  0.00  0.00    +0.000 HD
BRANCH   2   6
ATOM      6  C8  UNL     1      -2.711  -2.055  -1.472  0.00  0.00    +0.000 C 
BRANCH   6   7
ATOM      7  C7  UNL     1      -3.235  -0.614  -1.417  0.00  0.00    +0.000 C 
BRANCH   7  13
ATOM      8  C1  UNL     1      -1.951   1.478  -0.815  0.00  0.00    +0.000 A 
ATOM      9  C2  UNL     1      -1.283   2.292   0.102  0.00  0.00    +0.000 A 
ATOM     10  C3  UNL     1      -1.183   1.905   1.436  0.00  0.00    +0.000 A 
ATOM     11  C4  UNL     1      -1.758   0.708   1.855  0.00  0.00    +0.000 A 
ATOM     12  C5  UNL     1      -2.435  -0.103   0.942  0.00  0.00    +0.000 A 
ATOM     13  C6  UNL     1      -2.528   0.266  -0.407  0.00  0.00    +0.000 A 
ENDBRANCH   7  13
ENDBRANCH   6   7
ENDBRANCH   2   6
ENDBRANCH   1   3
BRANCH   1  14
ATOM     14  N2  UNL     1       1.405  -1.985  -1.309  0.00  0.00    +0.000 N 
ATOM     15  C11 UNL     1       1.587  -1.836   0.059  0.00  0.00    +0.000 C 
ATOM     16  O2  UNL     1       1.357  -2.778   0.816  0.00  0.00    +0.000 OA
ATOM     17  H13 UNL     1       1.503  -1.177  -1.911  0.00  0.00    +0.000 HD
BRANCH  15  18
ATOM     18  C12 UNL     1       2.012  -0.508   0.516  0.00  0.00    +0.000 A 
ATOM     19  N3  UNL     1       2.129  -0.200   1.792  0.00  0.00    +0.000 NA
ATOM     20  S1  UNL     1       2.381   0.760  -0.582  0.00  0.00    +0.000 S 
ATOM     21  C13 UNL     1       2.704   1.817   0.737  0.00  0.00    +0.000 A 
ATOM     22  C14 UNL     1       2.512   1.125   1.933  0.00  0.00    +0.000 A 
ATOM     23  C15 UNL     1       3.094   3.159   0.717  0.00  0.00    +0.000 A 
ATOM     24  C16 UNL     1       3.268   3.748   1.958  0.00  0.00    +0.000 A 
ATOM     25  N4  UNL     1       3.088   3.120   3.137  0.00  0.00    +0.000 NA
ATOM     26  C17 UNL     1       2.716   1.815   3.136  0.00  0.00    +0.000 A 
ENDBRANCH  15  18
ENDBRANCH   1  14
TORSDOF 6
