REMARK  Name = /home/anacleto/Desktop/manuscript_Mpro/naturecomm/supplementary_file_S2/6-chemical-library/molecular_docking/3D_ligand_structure/1505.pdb
REMARK  6 active torsions:
REMARK  status: ('A' for Active; 'I' for Inactive)
REMARK    1  A    between atoms: C3_4  and  C5_7
REMARK    2  A    between atoms: C5_7  and  C6_8
REMARK    3  A    between atoms: C6_8  and  N2_9
REMARK    4  A    between atoms: C7_10  and  C8_12
REMARK    5  A    between atoms: C8_12  and  N3_13
REMARK    6  A    between atoms: C9_14  and  C10_16
REMARK                            x       y       z     vdW  Elec       q    Type
REMARK                         _______ _______ _______ _____ _____    ______ ____
ROOT
ATOM      1  C8  UNL     1      -0.011   2.848  -0.933  0.00  0.00    +0.000 C 
ENDROOT
BRANCH   1   3
ATOM      2  N2  UNL     1      -1.228   0.773  -0.469  0.00  0.00    +0.000 N 
ATOM      3  C7  UNL     1      -1.153   1.887  -1.279  0.00  0.00    +0.000 C 
ATOM      4  O2  UNL     1      -1.974   2.141  -2.157  0.00  0.00    +0.000 OA
ATOM      5  H11 UNL     1      -0.629   0.758   0.356  0.00  0.00    +0.000 HD
BRANCH   2   6
ATOM      6  C6  UNL     1      -2.328  -0.162  -0.546  0.00  0.00    +0.000 C 
BRANCH   6   7
ATOM      7  C5  UNL     1      -3.500   0.281   0.325  0.00  0.00    +0.000 C 
BRANCH   7  11
ATOM      8  N1  UNL     1      -6.429  -1.412   1.575  0.00  0.00    +0.000 N 
ATOM      9  C1  UNL     1      -5.835  -2.582   1.007  0.00  0.00    +0.000 C 
ATOM     10  C2  UNL     1      -4.460  -2.098   0.584  0.00  0.00    +0.000 C 
ATOM     11  C3  UNL     1      -4.709  -0.637   0.188  0.00  0.00    +0.000 C 
ATOM     12  C4  UNL     1      -5.837  -0.248   1.125  0.00  0.00    +0.000 C 
ATOM     13  O1  UNL     1      -6.204   0.876   1.412  0.00  0.00    +0.000 OA
ATOM     14  H1  UNL     1      -7.272  -1.379   2.135  0.00  0.00    +0.000 HD
ENDBRANCH   7  11
ENDBRANCH   6   7
ENDBRANCH   2   6
ENDBRANCH   1   3
BRANCH   1  15
ATOM     15  N3  UNL     1       1.289   2.199  -0.910  0.00  0.00    +0.000 N 
ATOM     16  C9  UNL     1       1.751   1.517   0.186  0.00  0.00    +0.000 C 
ATOM     17  O3  UNL     1       1.063   1.371   1.194  0.00  0.00    +0.000 OA
ATOM     18  H14 UNL     1       1.810   2.159  -1.773  0.00  0.00    +0.000 HD
BRANCH  16  19
ATOM     19  C10 UNL     1       3.070   0.945   0.060  0.00  0.00    +0.000 A 
ATOM     20  C11 UNL     1       4.010   0.973  -0.957  0.00  0.00    +0.000 A 
ATOM     21  N4  UNL     1       3.631   0.209   1.083  0.00  0.00    +0.000 N 
ATOM     22  C12 UNL     1       4.885  -0.238   0.745  0.00  0.00    +0.000 A 
ATOM     23  C13 UNL     1       5.150   0.231  -0.539  0.00  0.00    +0.000 A 
ATOM     24  C14 UNL     1       5.797  -1.011   1.472  0.00  0.00    +0.000 A 
ATOM     25  C15 UNL     1       7.018  -1.313   0.862  0.00  0.00    +0.000 A 
ATOM     26  C16 UNL     1       7.311  -0.858  -0.422  0.00  0.00    +0.000 A 
ATOM     27  C17 UNL     1       6.387  -0.085  -1.134  0.00  0.00    +0.000 A 
ATOM     28  H16 UNL     1       3.167   0.031   1.964  0.00  0.00    +0.000 HD
ENDBRANCH  16  19
ENDBRANCH   1  15
TORSDOF 6
