REMARK  Name = /home/anacleto/Desktop/manuscript_Mpro/naturecomm/supplementary_file_S2/6-chemical-library/molecular_docking/3D_ligand_structure/1516.pdb
REMARK  4 active torsions:
REMARK  status: ('A' for Active; 'I' for Inactive)
REMARK    1  A    between atoms: C4_6  and  C5_7
REMARK    2  A    between atoms: N2_9  and  C6_10
REMARK    3  A    between atoms: C6_10  and  C7_11
REMARK    4  A    between atoms: N3_13  and  C8_14
REMARK                            x       y       z     vdW  Elec       q    Type
REMARK                         _______ _______ _______ _____ _____    ______ ____
ROOT
ATOM      1  C7  UNL     1       0.662  -1.146   2.306  0.00  0.00    +0.000 C 
ATOM      2  O3  UNL     1       1.321  -1.954   2.953  0.00  0.00    +0.000 OA
ATOM      3  N3  UNL     1       1.154  -0.178   1.445  0.00  0.00    +0.000 N 
ATOM      4  H12 UNL     1       0.448   0.324   0.909  0.00  0.00    +0.000 HD
ENDROOT
BRANCH   3   5
ATOM      5  C8  UNL     1       2.514   0.140   1.190  0.00  0.00    +0.000 A 
ATOM      6  C9  UNL     1       3.565  -0.433   1.912  0.00  0.00    +0.000 A 
ATOM      7  N4  UNL     1       4.874  -0.141   1.734  0.00  0.00    +0.000 NA
ATOM      8  C10 UNL     1       5.161   0.770   0.785  0.00  0.00    +0.000 A 
ATOM      9  C11 UNL     1       4.213   1.413  -0.009  0.00  0.00    +0.000 A 
ATOM     10  C12 UNL     1       2.846   1.098   0.185  0.00  0.00    +0.000 A 
ATOM     11  C13 UNL     1       4.612   2.348  -0.982  0.00  0.00    +0.000 A 
ATOM     12  C14 UNL     1       3.670   2.985  -1.786  0.00  0.00    +0.000 A 
ATOM     13  C15 UNL     1       2.324   2.694  -1.625  0.00  0.00    +0.000 A 
ATOM     14  C16 UNL     1       1.917   1.768  -0.657  0.00  0.00    +0.000 A 
ENDBRANCH   3   5
BRANCH   1  15
ATOM     15  C6  UNL     1      -0.869  -1.152   2.385  0.00  0.00    +0.000 C 
BRANCH  15  18
ATOM     16  C5  UNL     1      -1.667  -0.866   0.070  0.00  0.00    +0.000 C 
ATOM     17  O2  UNL     1      -1.305   0.311   0.081  0.00  0.00    +0.000 OA
ATOM     18  N2  UNL     1      -1.469  -1.676   1.170  0.00  0.00    +0.000 N 
ATOM     19  H9  UNL     1      -1.457  -2.682   1.045  0.00  0.00    +0.000 HD
BRANCH  16  25
ATOM     20  O1  UNL     1      -2.253  -0.735  -2.323  0.00  0.00    +0.000 OA
ATOM     21  C1  UNL     1      -3.515  -0.170  -2.705  0.00  0.00    +0.000 C 
ATOM     22  C2  UNL     1      -4.406   0.170  -1.502  0.00  0.00    +0.000 C 
ATOM     23  N1  UNL     1      -4.762  -1.019  -0.707  0.00  0.00    +0.000 NA
ATOM     24  C3  UNL     1      -3.731  -2.067  -0.828  0.00  0.00    +0.000 C 
ATOM     25  C4  UNL     1      -2.307  -1.558  -1.153  0.00  0.00    +0.000 C 
ATOM     26  H5  UNL     1      -4.868  -0.734   0.266  0.00  0.00    +0.000 HD
ENDBRANCH  16  25
ENDBRANCH  15  18
ENDBRANCH   1  15
TORSDOF 4
