REMARK  Name = /home/anacleto/Desktop/manuscript_Mpro/naturecomm/supplementary_file_S2/6-chemical-library/molecular_docking/3D_ligand_structure/1517.pdb
REMARK  5 active torsions:
REMARK  status: ('A' for Active; 'I' for Inactive)
REMARK    1  A    between atoms: C7_10  and  C9_12
REMARK    2  A    between atoms: C9_12  and  C10_13
REMARK    3  A    between atoms: N2_15  and  C11_16
REMARK    4  A    between atoms: C11_16  and  C12_17
REMARK    5  A    between atoms: C12_17  and  C13_18
REMARK                            x       y       z     vdW  Elec       q    Type
REMARK                         _______ _______ _______ _____ _____    ______ ____
ROOT
ATOM      1  C9  UNL     1      -0.232   0.700   2.182  0.00  0.00    +0.000 C 
ENDROOT
BRANCH   1  11
ATOM      2  C1  UNL     1      -5.186   0.566   1.158  0.00  0.00    +0.000 C 
ATOM      3  O1  UNL     1      -6.196  -0.264   0.565  0.00  0.00    +0.000 OA
ATOM      4  C2  UNL     1      -5.915  -0.544  -0.808  0.00  0.00    +0.000 C 
ATOM      5  C3  UNL     1      -4.663  -1.415  -0.919  0.00  0.00    +0.000 C 
ATOM      6  C4  UNL     1      -3.552  -0.848  -0.085  0.00  0.00    +0.000 A 
ATOM      7  C5  UNL     1      -3.792   0.075   0.864  0.00  0.00    +0.000 A 
ATOM      8  N1  UNL     1      -2.268  -1.278  -0.320  0.00  0.00    +0.000 N 
ATOM      9  C6  UNL     1      -1.165  -0.823   0.360  0.00  0.00    +0.000 A 
ATOM     10  O2  UNL     1      -0.034  -1.231   0.112  0.00  0.00    +0.000 OA
ATOM     11  C7  UNL     1      -1.420   0.205   1.417  0.00  0.00    +0.000 A 
ATOM     12  C8  UNL     1      -2.686   0.607   1.635  0.00  0.00    +0.000 A 
ATOM     13  H7  UNL     1      -2.087  -1.976  -1.031  0.00  0.00    +0.000 HD
ENDBRANCH   1  11
BRANCH   1  14
ATOM     14  C10 UNL     1       0.538   1.707   1.344  0.00  0.00    +0.000 C 
ATOM     15  O3  UNL     1       0.346   2.917   1.433  0.00  0.00    +0.000 OA
ATOM     16  N2  UNL     1       1.442   1.142   0.476  0.00  0.00    +0.000 N 
ATOM     17  H11 UNL     1       1.407   0.131   0.342  0.00  0.00    +0.000 HD
BRANCH  16  18
ATOM     18  C11 UNL     1       2.255   1.940  -0.417  0.00  0.00    +0.000 C 
BRANCH  18  19
ATOM     19  C12 UNL     1       2.960   1.106  -1.490  0.00  0.00    +0.000 C 
BRANCH  19  20
ATOM     20  C13 UNL     1       3.965   0.128  -0.928  0.00  0.00    +0.000 A 
ATOM     21  C14 UNL     1       3.654  -1.235  -0.831  0.00  0.00    +0.000 A 
ATOM     22  C15 UNL     1       4.578  -2.135  -0.299  0.00  0.00    +0.000 A 
ATOM     23  C16 UNL     1       5.821  -1.683   0.141  0.00  0.00    +0.000 A 
ATOM     24  C17 UNL     1       6.140  -0.329   0.049  0.00  0.00    +0.000 A 
ATOM     25  C18 UNL     1       5.217   0.573  -0.482  0.00  0.00    +0.000 A 
ENDBRANCH  19  20
ENDBRANCH  18  19
ENDBRANCH  16  18
ENDBRANCH   1  14
TORSDOF 5
