REMARK  Name = /home/anacleto/Desktop/manuscript_Mpro/naturecomm/supplementary_file_S2/6-chemical-library/molecular_docking/3D_ligand_structure/1518.pdb
REMARK  5 active torsions:
REMARK  status: ('A' for Active; 'I' for Inactive)
REMARK    1  A    between atoms: C4_5  and  C5_6
REMARK    2  A    between atoms: C5_6  and  C6_7
REMARK    3  A    between atoms: C6_7  and  C7_8
REMARK    4  A    between atoms: C7_8  and  N1_9
REMARK    5  A    between atoms: N2_12  and  C9_13
REMARK                            x       y       z     vdW  Elec       q    Type
REMARK                         _______ _______ _______ _____ _____    ______ ____
ROOT
ATOM      1  N1  UNL     1       1.257   0.801   1.216  0.00  0.00    +0.000 N 
ATOM      2  C8  UNL     1       0.079   0.244   1.671  0.00  0.00    +0.000 C 
ATOM      3  O2  UNL     1      -0.030  -0.250   2.785  0.00  0.00    +0.000 OA
ATOM      4  N2  UNL     1      -0.909   0.346   0.713  0.00  0.00    +0.000 N 
ATOM      5  H10 UNL     1       1.412   0.793   0.216  0.00  0.00    +0.000 HD
ATOM      6  H11 UNL     1      -0.658   0.951  -0.050  0.00  0.00    +0.000 HD
ENDROOT
BRANCH   4   7
ATOM      7  C9  UNL     1      -2.201  -0.144   0.745  0.00  0.00    +0.000 A 
ATOM      8  C10 UNL     1      -2.671  -0.924   1.735  0.00  0.00    +0.000 A 
ATOM      9  N3  UNL     1      -3.951  -1.411   1.759  0.00  0.00    +0.000 N 
ATOM     10  C11 UNL     1      -4.894  -1.169   0.795  0.00  0.00    +0.000 A 
ATOM     11  O3  UNL     1      -6.028  -1.628   0.868  0.00  0.00    +0.000 OA
ATOM     12  C12 UNL     1      -4.457  -0.321  -0.341  0.00  0.00    +0.000 A 
ATOM     13  C13 UNL     1      -3.139   0.182  -0.374  0.00  0.00    +0.000 A 
ATOM     14  C14 UNL     1      -5.377  -0.044  -1.363  0.00  0.00    +0.000 A 
ATOM     15  C15 UNL     1      -4.998   0.744  -2.444  0.00  0.00    +0.000 A 
ATOM     16  C16 UNL     1      -3.704   1.252  -2.503  0.00  0.00    +0.000 A 
ATOM     17  C17 UNL     1      -2.785   0.975  -1.481  0.00  0.00    +0.000 A 
ATOM     18  H13 UNL     1      -4.252  -1.990   2.535  0.00  0.00    +0.000 HD
ENDBRANCH   4   7
BRANCH   1  19
ATOM     19  C7  UNL     1       2.462   0.765   2.021  0.00  0.00    +0.000 C 
BRANCH  19  20
ATOM     20  C6  UNL     1       3.123  -0.615   2.079  0.00  0.00    +0.000 C 
BRANCH  20  21
ATOM     21  C5  UNL     1       3.336  -1.289   0.721  0.00  0.00    +0.000 C 
BRANCH  21  26
ATOM     22  O1  UNL     1       3.409   0.359  -1.051  0.00  0.00    +0.000 OA
ATOM     23  C1  UNL     1       4.309   1.024  -1.821  0.00  0.00    +0.000 A 
ATOM     24  C2  UNL     1       5.591   0.648  -1.496  0.00  0.00    +0.000 A 
ATOM     25  C3  UNL     1       5.473  -0.312  -0.462  0.00  0.00    +0.000 A 
ATOM     26  C4  UNL     1       4.123  -0.457  -0.222  0.00  0.00    +0.000 A 
ENDBRANCH  21  26
ENDBRANCH  20  21
ENDBRANCH  19  20
ENDBRANCH   1  19
TORSDOF 5
