REMARK  Name = /home/anacleto/Desktop/manuscript_Mpro/naturecomm/supplementary_file_S2/6-chemical-library/molecular_docking/3D_ligand_structure/152.pdb
REMARK  0 active torsions:
REMARK  status: ('A' for Active; 'I' for Inactive)
REMARK                            x       y       z     vdW  Elec       q    Type
REMARK                         _______ _______ _______ _____ _____    ______ ____
ROOT
ATOM      1  C1  UNL     1       2.181   0.708  -0.078  0.00  0.00    +0.000 A 
ATOM      2  C2  UNL     1       2.657  -0.613  -0.018  0.00  0.00    +0.000 A 
ATOM      3  N1  UNL     1       1.667  -1.506   0.039  0.00  0.00    +0.000 NA
ATOM      4  N2  UNL     1       0.554  -0.746   0.034  0.00  0.00    +0.000 N 
ATOM      5  C3  UNL     1       0.805   0.596  -0.049  0.00  0.00    +0.000 A 
ATOM      6  C4  UNL     1      -0.745  -1.396   0.014  0.00  0.00    +0.000 C 
ATOM      7  C5  UNL     1      -1.887  -0.480   0.448  0.00  0.00    +0.000 C 
ATOM      8  N3  UNL     1      -1.883   0.775  -0.330  0.00  0.00    +0.000 NA
ATOM      9  S1  UNL     1      -0.522   1.734  -0.069  0.00  0.00    +0.000 S 
ATOM     10  O1  UNL     1      -0.574   2.260   1.272  0.00  0.00    +0.000 OA
ATOM     11  O2  UNL     1      -0.331   2.543  -1.247  0.00  0.00    +0.000 OA
ATOM     12  H7  UNL     1      -2.099   0.704  -1.325  0.00  0.00    +0.000 HD
ENDROOT
TORSDOF 0
