REMARK  Name = /home/anacleto/Desktop/manuscript_Mpro/naturecomm/supplementary_file_S2/6-chemical-library/molecular_docking/3D_ligand_structure/1526.pdb
REMARK  5 active torsions:
REMARK  status: ('A' for Active; 'I' for Inactive)
REMARK    1  A    between atoms: C7_9  and  C9_12
REMARK    2  A    between atoms: C9_12  and  C10_13
REMARK    3  A    between atoms: N3_15  and  C11_16
REMARK    4  A    between atoms: C11_16  and  C12_17
REMARK    5  A    between atoms: C12_17  and  C13_18
REMARK                            x       y       z     vdW  Elec       q    Type
REMARK                         _______ _______ _______ _____ _____    ______ ____
ROOT
ATOM      1  C9  UNL     1       1.317   2.249  -1.170  0.00  0.00    +0.000 C 
ENDROOT
BRANCH   1  10
ATOM      2  C1  UNL     1       5.859  -0.474   0.987  0.00  0.00    +0.000 A 
ATOM      3  C2  UNL     1       6.090  -1.747   0.649  0.00  0.00    +0.000 A 
ATOM      4  C3  UNL     1       5.203  -2.434  -0.252  0.00  0.00    +0.000 A 
ATOM      5  C4  UNL     1       4.139  -1.797  -0.757  0.00  0.00    +0.000 A 
ATOM      6  N1  UNL     1       3.855  -0.474  -0.435  0.00  0.00    +0.000 N 
ATOM      7  C5  UNL     1       4.676   0.242   0.430  0.00  0.00    +0.000 A 
ATOM      8  C6  UNL     1       2.739   0.136  -0.991  0.00  0.00    +0.000 A 
ATOM      9  O1  UNL     1       1.954  -0.405  -1.774  0.00  0.00    +0.000 OA
ATOM     10  C7  UNL     1       2.503   1.545  -0.591  0.00  0.00    +0.000 A 
ATOM     11  C8  UNL     1       3.381   2.101   0.250  0.00  0.00    +0.000 A 
ATOM     12  N2  UNL     1       4.476   1.477   0.773  0.00  0.00    +0.000 NA
ENDBRANCH   1  10
BRANCH   1  13
ATOM     13  C10 UNL     1       0.051   1.760  -0.486  0.00  0.00    +0.000 C 
ATOM     14  O2  UNL     1      -0.382   2.283   0.537  0.00  0.00    +0.000 OA
ATOM     15  N3  UNL     1      -0.546   0.683  -1.107  0.00  0.00    +0.000 N 
ATOM     16  H8  UNL     1       0.068   0.116  -1.694  0.00  0.00    +0.000 HD
BRANCH  15  17
ATOM     17  C11 UNL     1      -1.685   0.011  -0.509  0.00  0.00    +0.000 C 
BRANCH  17  18
ATOM     18  C12 UNL     1      -2.985   0.803  -0.669  0.00  0.00    +0.000 C 
BRANCH  18  19
ATOM     19  C13 UNL     1      -4.162   0.064  -0.082  0.00  0.00    +0.000 A 
ATOM     20  C14 UNL     1      -4.463   0.186   1.281  0.00  0.00    +0.000 A 
ATOM     21  C15 UNL     1      -5.538  -0.512   1.833  0.00  0.00    +0.000 A 
ATOM     22  C16 UNL     1      -6.318  -1.341   1.029  0.00  0.00    +0.000 A 
ATOM     23  C17 UNL     1      -6.023  -1.473  -0.327  0.00  0.00    +0.000 A 
ATOM     24  C18 UNL     1      -4.949  -0.776  -0.881  0.00  0.00    +0.000 A 
ENDBRANCH  18  19
ENDBRANCH  17  18
ENDBRANCH  15  17
ENDBRANCH   1  13
TORSDOF 5
