REMARK  Name = /home/anacleto/Desktop/manuscript_Mpro/naturecomm/supplementary_file_S2/6-chemical-library/molecular_docking/3D_ligand_structure/153.pdb
REMARK  0 active torsions:
REMARK  status: ('A' for Active; 'I' for Inactive)
REMARK                            x       y       z     vdW  Elec       q    Type
REMARK                         _______ _______ _______ _____ _____    ______ ____
ROOT
ATOM      1  C1  UNL     1       1.773   1.134  -1.064  0.00  0.00    +0.000 A 
ATOM      2  N1  UNL     1       2.416   0.003  -1.478  0.00  0.00    +0.000 N 
ATOM      3  N2  UNL     1       1.780  -1.128  -1.129  0.00  0.00    +0.000 NA
ATOM      4  C2  UNL     1       0.687  -0.700  -0.494  0.00  0.00    +0.000 A 
ATOM      5  C3  UNL     1       0.632   0.714  -0.417  0.00  0.00    +0.000 A 
ATOM      6  C4  UNL     1      -0.328  -1.649   0.042  0.00  0.00    +0.000 C 
ATOM      7  C5  UNL     1      -1.085  -1.050   1.217  0.00  0.00    +0.000 C 
ATOM      8  S1  UNL     1      -1.827   0.514   0.774  0.00  0.00    +0.000 S 
ATOM      9  O1  UNL     1      -2.362   1.099   1.991  0.00  0.00    +0.000 OA
ATOM     10  O2  UNL     1      -2.695   0.286  -0.366  0.00  0.00    +0.000 OA
ATOM     11  C6  UNL     1      -0.427   1.516   0.247  0.00  0.00    +0.000 C 
ATOM     12  H2  UNL     1       3.286  -0.074  -1.995  0.00  0.00    +0.000 HD
ENDROOT
TORSDOF 0
