REMARK  Name = /home/anacleto/Desktop/manuscript_Mpro/naturecomm/supplementary_file_S2/6-chemical-library/molecular_docking/3D_ligand_structure/1534.pdb
REMARK  6 active torsions:
REMARK  status: ('A' for Active; 'I' for Inactive)
REMARK    1  A    between atoms: C6_8  and  N2_10
REMARK    2  A    between atoms: N2_10  and  C8_11
REMARK    3  A    between atoms: C8_11  and  C9_12
REMARK    4  A    between atoms: N3_14  and  C10_15
REMARK    5  A    between atoms: C10_15  and  C11_16
REMARK    6  A    between atoms: C11_16  and  C12_17
REMARK                            x       y       z     vdW  Elec       q    Type
REMARK                         _______ _______ _______ _____ _____    ______ ____
ROOT
ATOM      1  C8  UNL     1       1.496   0.524   1.587  0.00  0.00    +0.000 C 
ENDROOT
BRANCH   1   2
ATOM      2  C9  UNL     1      -0.035   0.603   1.671  0.00  0.00    +0.000 C 
ATOM      3  O1  UNL     1      -0.655   0.487   2.723  0.00  0.00    +0.000 OA
ATOM      4  N3  UNL     1      -0.631   0.856   0.452  0.00  0.00    +0.000 N 
ATOM      5  H8  UNL     1      -0.016   0.846  -0.359  0.00  0.00    +0.000 HD
BRANCH   4   6
ATOM      6  C10 UNL     1      -2.068   0.923   0.281  0.00  0.00    +0.000 C 
BRANCH   6   7
ATOM      7  C11 UNL     1      -2.674  -0.458   0.027  0.00  0.00    +0.000 C 
BRANCH   7   8
ATOM      8  C12 UNL     1      -4.172  -0.396  -0.130  0.00  0.00    +0.000 A 
ATOM      9  C13 UNL     1      -5.009  -0.723   0.945  0.00  0.00    +0.000 A 
ATOM     10  C14 UNL     1      -6.396  -0.648   0.809  0.00  0.00    +0.000 A 
ATOM     11  C15 UNL     1      -6.958  -0.239  -0.399  0.00  0.00    +0.000 A 
ATOM     12  C16 UNL     1      -6.134   0.092  -1.475  0.00  0.00    +0.000 A 
ATOM     13  C17 UNL     1      -4.747   0.014  -1.342  0.00  0.00    +0.000 A 
ENDBRANCH   7   8
ENDBRANCH   6   7
ENDBRANCH   4   6
ENDBRANCH   1   2
BRANCH   1  14
ATOM     14  N2  UNL     1       1.896  -0.110   0.312  0.00  0.00    +0.000 N 
ATOM     15  H5  UNL     1       1.423  -1.008   0.203  0.00  0.00    +0.000 HD
BRANCH  14  23
ATOM     16  N1  UNL     1       6.642   1.313   0.578  0.00  0.00    +0.000 NA
ATOM     17  C1  UNL     1       7.766   0.892   0.045  0.00  0.00    +0.000 A 
ATOM     18  S1  UNL     1       7.657  -0.459  -0.999  0.00  0.00    +0.000 S 
ATOM     19  C2  UNL     1       5.956  -0.519  -0.726  0.00  0.00    +0.000 A 
ATOM     20  C3  UNL     1       5.598   0.507   0.149  0.00  0.00    +0.000 A 
ATOM     21  C4  UNL     1       5.004  -1.401  -1.253  0.00  0.00    +0.000 A 
ATOM     22  C5  UNL     1       3.667  -1.233  -0.867  0.00  0.00    +0.000 A 
ATOM     23  C6  UNL     1       3.268  -0.245   0.041  0.00  0.00    +0.000 A 
ATOM     24  C7  UNL     1       4.240   0.648   0.514  0.00  0.00    +0.000 A 
ENDBRANCH  14  23
ENDBRANCH   1  14
TORSDOF 6
