REMARK  Name = /home/anacleto/Desktop/manuscript_Mpro/naturecomm/supplementary_file_S2/6-chemical-library/molecular_docking/3D_ligand_structure/1539.pdb
REMARK  6 active torsions:
REMARK  status: ('A' for Active; 'I' for Inactive)
REMARK    1  A    between atoms: C6_7  and  N1_10
REMARK    2  A    between atoms: N1_10  and  C9_11
REMARK    3  A    between atoms: C9_11  and  C10_12
REMARK    4  A    between atoms: N2_14  and  C11_15
REMARK    5  A    between atoms: C11_15  and  C12_16
REMARK    6  A    between atoms: C12_16  and  C13_17
REMARK                            x       y       z     vdW  Elec       q    Type
REMARK                         _______ _______ _______ _____ _____    ______ ____
ROOT
ATOM      1  C9  UNL     1       0.374  -2.035  -0.638  0.00  0.00    +0.000 C 
ENDROOT
BRANCH   1   2
ATOM      2  C10 UNL     1      -1.083  -1.793  -1.044  0.00  0.00    +0.000 C 
ATOM      3  O2  UNL     1      -1.590  -2.313  -2.032  0.00  0.00    +0.000 OA
ATOM      4  N2  UNL     1      -1.760  -0.977  -0.159  0.00  0.00    +0.000 N 
ATOM      5  H17 UNL     1      -1.130  -0.427   0.424  0.00  0.00    +0.000 HD
BRANCH   4   6
ATOM      6  C11 UNL     1      -3.071  -0.441  -0.466  0.00  0.00    +0.000 C 
BRANCH   6   7
ATOM      7  C12 UNL     1      -3.925  -0.288   0.795  0.00  0.00    +0.000 C 
BRANCH   7   8
ATOM      8  C13 UNL     1      -5.242   0.388   0.503  0.00  0.00    +0.000 A 
ATOM      9  C14 UNL     1      -5.431   1.741   0.818  0.00  0.00    +0.000 A 
ATOM     10  C15 UNL     1      -6.637   2.378   0.516  0.00  0.00    +0.000 A 
ATOM     11  C16 UNL     1      -7.664   1.668  -0.104  0.00  0.00    +0.000 A 
ATOM     12  C17 UNL     1      -7.488   0.320  -0.420  0.00  0.00    +0.000 A 
ATOM     13  C18 UNL     1      -6.282  -0.319  -0.117  0.00  0.00    +0.000 A 
ENDBRANCH   7   8
ENDBRANCH   6   7
ENDBRANCH   4   6
ENDBRANCH   1   2
BRANCH   1  14
ATOM     14  N1  UNL     1       0.944  -0.795  -0.061  0.00  0.00    +0.000 NA
ATOM     15  H14 UNL     1       1.088  -0.126  -0.824  0.00  0.00    +0.000 HD
BRANCH  14  22
ATOM     16  O1  UNL     1       4.883   1.943  -0.096  0.00  0.00    +0.000 OA
ATOM     17  C1  UNL     1       6.314   1.822  -0.259  0.00  0.00    +0.000 C 
ATOM     18  C2  UNL     1       6.319   0.464   0.438  0.00  0.00    +0.000 C 
ATOM     19  C3  UNL     1       4.784   0.546   0.310  0.00  0.00    +0.000 C 
ATOM     20  C4  UNL     1       4.042   0.430   1.647  0.00  0.00    +0.000 C 
ATOM     21  C5  UNL     1       2.543   0.286   1.398  0.00  0.00    +0.000 C 
ATOM     22  C6  UNL     1       2.215  -1.020   0.641  0.00  0.00    +0.000 C 
ATOM     23  C7  UNL     1       3.389  -1.457  -0.268  0.00  0.00    +0.000 C 
ATOM     24  C8  UNL     1       4.154  -0.263  -0.833  0.00  0.00    +0.000 C 
ENDBRANCH  14  22
ENDBRANCH   1  14
TORSDOF 6
