REMARK  Name = /home/anacleto/Desktop/manuscript_Mpro/naturecomm/supplementary_file_S2/6-chemical-library/molecular_docking/3D_ligand_structure/1540.pdb
REMARK  4 active torsions:
REMARK  status: ('A' for Active; 'I' for Inactive)
REMARK    1  A    between atoms: N1_7  and  C7_10
REMARK    2  A    between atoms: C7_10  and  C8_11
REMARK    3  A    between atoms: N4_13  and  C9_14
REMARK    4  A    between atoms: C9_14  and  C10_15
REMARK                            x       y       z     vdW  Elec       q    Type
REMARK                         _______ _______ _______ _____ _____    ______ ____
ROOT
ATOM      1  C8  UNL     1       1.423   0.142  -1.588  0.00  0.00    +0.000 C 
ATOM      2  O1  UNL     1       1.414   1.364  -1.725  0.00  0.00    +0.000 OA
ATOM      3  N4  UNL     1       0.316  -0.564  -1.187  0.00  0.00    +0.000 N 
ATOM      4  H7  UNL     1       0.385  -1.549  -0.933  0.00  0.00    +0.000 HD
ENDROOT
BRANCH   1   5
ATOM      5  C7  UNL     1       2.652  -0.688  -1.856  0.00  0.00    +0.000 C 
BRANCH   5  12
ATOM      6  C1  UNL     1       5.625  -0.170   1.961  0.00  0.00    +0.000 A 
ATOM      7  C2  UNL     1       6.054   1.141   1.722  0.00  0.00    +0.000 A 
ATOM      8  C3  UNL     1       5.580   1.861   0.621  0.00  0.00    +0.000 A 
ATOM      9  C4  UNL     1       4.667   1.299  -0.280  0.00  0.00    +0.000 A 
ATOM     10  C5  UNL     1       4.259  -0.013  -0.021  0.00  0.00    +0.000 A 
ATOM     11  C6  UNL     1       4.711  -0.748   1.070  0.00  0.00    +0.000 A 
ATOM     12  N1  UNL     1       3.405  -0.884  -0.642  0.00  0.00    +0.000 N 
ATOM     13  N2  UNL     1       3.327  -2.062   0.009  0.00  0.00    +0.000 NA
ATOM     14  N3  UNL     1       4.129  -1.987   1.063  0.00  0.00    +0.000 NA
ENDBRANCH   5  12
ENDBRANCH   1   5
BRANCH   3  15
ATOM     15  C9  UNL     1      -0.916   0.109  -0.819  0.00  0.00    +0.000 C 
BRANCH  15  16
ATOM     16  C10 UNL     1      -1.991  -0.918  -0.448  0.00  0.00    +0.000 C 
ATOM     17  O2  UNL     1      -1.730  -2.125  -0.460  0.00  0.00    +0.000 OA
ATOM     18  N5  UNL     1      -3.251  -0.432  -0.111  0.00  0.00    +0.000 N 
ATOM     19  C11 UNL     1      -4.227  -1.398   0.403  0.00  0.00    +0.000 C 
ATOM     20  C12 UNL     1      -5.679  -0.912   0.263  0.00  0.00    +0.000 C 
ATOM     21  N6  UNL     1      -5.889   0.442   0.807  0.00  0.00    +0.000 NA
ATOM     22  C13 UNL     1      -4.971   1.374   0.132  0.00  0.00    +0.000 C 
ATOM     23  C14 UNL     1      -3.491   0.968   0.258  0.00  0.00    +0.000 C 
ATOM     24  H14 UNL     1      -5.669   0.427   1.804  0.00  0.00    +0.000 HD
ENDBRANCH  15  16
ENDBRANCH   3  15
TORSDOF 4
