REMARK  Name = /home/anacleto/Desktop/manuscript_Mpro/naturecomm/supplementary_file_S2/6-chemical-library/molecular_docking/3D_ligand_structure/1546.pdb
REMARK  6 active torsions:
REMARK  status: ('A' for Active; 'I' for Inactive)
REMARK    1  A    between atoms: N1_7  and  C8_10
REMARK    2  A    between atoms: C8_10  and  C9_11
REMARK    3  A    between atoms: N3_13  and  C10_14
REMARK    4  A    between atoms: C10_14  and  C11_15
REMARK    5  A    between atoms: C11_15  and  N4_16
REMARK    6  A    between atoms: C12_17  and  C13_19
REMARK                            x       y       z     vdW  Elec       q    Type
REMARK                         _______ _______ _______ _____ _____    ______ ____
ROOT
ATOM      1  C9  UNL     1      -1.611   0.474   2.137  0.00  0.00    +0.000 C 
ATOM      2  O1  UNL     1      -1.321   1.546   2.664  0.00  0.00    +0.000 OA
ATOM      3  N3  UNL     1      -0.726  -0.224   1.335  0.00  0.00    +0.000 N 
ATOM      4  H8  UNL     1      -1.115  -0.912   0.698  0.00  0.00    +0.000 HD
ENDROOT
BRANCH   1   5
ATOM      5  C8  UNL     1      -2.941  -0.201   2.417  0.00  0.00    +0.000 C 
BRANCH   5  12
ATOM      6  C1  UNL     1      -4.972  -0.782  -1.973  0.00  0.00    +0.000 A 
ATOM      7  C2  UNL     1      -5.046   0.570  -2.331  0.00  0.00    +0.000 A 
ATOM      8  C3  UNL     1      -4.601   1.565  -1.458  0.00  0.00    +0.000 A 
ATOM      9  C4  UNL     1      -4.069   1.248  -0.202  0.00  0.00    +0.000 A 
ATOM     10  C5  UNL     1      -4.006  -0.109   0.134  0.00  0.00    +0.000 A 
ATOM     11  C6  UNL     1      -4.443  -1.120  -0.719  0.00  0.00    +0.000 A 
ATOM     12  N1  UNL     1      -3.550  -0.785   1.240  0.00  0.00    +0.000 N 
ATOM     13  C7  UNL     1      -3.744  -2.122   1.033  0.00  0.00    +0.000 A 
ATOM     14  N2  UNL     1      -4.264  -2.357  -0.149  0.00  0.00    +0.000 NA
ENDBRANCH   5  12
ENDBRANCH   1   5
BRANCH   3  15
ATOM     15  C10 UNL     1       0.525   0.392   0.927  0.00  0.00    +0.000 C 
BRANCH  15  16
ATOM     16  C11 UNL     1       1.553  -0.636   0.455  0.00  0.00    +0.000 C 
BRANCH  16  17
ATOM     17  N4  UNL     1       2.802  -0.019   0.057  0.00  0.00    +0.000 N 
ATOM     18  C12 UNL     1       3.699  -0.697  -0.739  0.00  0.00    +0.000 C 
ATOM     19  O2  UNL     1       3.441  -1.782  -1.248  0.00  0.00    +0.000 OA
ATOM     20  H13 UNL     1       3.165   0.737   0.621  0.00  0.00    +0.000 HD
BRANCH  18  21
ATOM     21  C13 UNL     1       4.988   0.015  -0.882  0.00  0.00    +0.000 C 
ATOM     22  C14 UNL     1       5.401   1.236  -0.496  0.00  0.00    +0.000 C 
ATOM     23  C15 UNL     1       6.783   1.043  -1.089  0.00  0.00    +0.000 C 
ATOM     24  C16 UNL     1       6.284  -0.341  -1.558  0.00  0.00    +0.000 C 
ENDBRANCH  18  21
ENDBRANCH  16  17
ENDBRANCH  15  16
ENDBRANCH   3  15
TORSDOF 6
