REMARK  Name = /home/anacleto/Desktop/manuscript_Mpro/naturecomm/supplementary_file_S2/6-chemical-library/molecular_docking/3D_ligand_structure/1557.pdb
REMARK  6 active torsions:
REMARK  status: ('A' for Active; 'I' for Inactive)
REMARK    1  A    between atoms: C6_6  and  C7_7
REMARK    2  A    between atoms: C7_7  and  C8_8
REMARK    3  A    between atoms: C8_8  and  N1_9
REMARK    4  A    between atoms: C9_10  and  C10_12
REMARK    5  A    between atoms: C10_12  and  N2_13
REMARK    6  A    between atoms: N2_13  and  C11_14
REMARK                            x       y       z     vdW  Elec       q    Type
REMARK                         _______ _______ _______ _____ _____    ______ ____
ROOT
ATOM      1  N1  UNL     1       0.923  -0.142  -1.248  0.00  0.00    +0.000 N 
ATOM      2  C9  UNL     1       0.089  -1.238  -1.350  0.00  0.00    +0.000 C 
ATOM      3  O1  UNL     1       0.387  -2.357  -0.938  0.00  0.00    +0.000 OA
ATOM      4  H10 UNL     1       0.512   0.772  -1.388  0.00  0.00    +0.000 HD
ENDROOT
BRANCH   1   5
ATOM      5  C8  UNL     1       2.162  -0.221  -0.494  0.00  0.00    +0.000 C 
BRANCH   5   6
ATOM      6  C7  UNL     1       3.133   0.892  -0.887  0.00  0.00    +0.000 C 
BRANCH   6  12
ATOM      7  C1  UNL     1       5.464   0.017  -0.473  0.00  0.00    +0.000 A 
ATOM      8  C2  UNL     1       6.634  -0.043   0.286  0.00  0.00    +0.000 A 
ATOM      9  C3  UNL     1       6.754   0.720   1.445  0.00  0.00    +0.000 A 
ATOM     10  C4  UNL     1       5.703   1.542   1.849  0.00  0.00    +0.000 A 
ATOM     11  C5  UNL     1       4.532   1.603   1.092  0.00  0.00    +0.000 A 
ATOM     12  C6  UNL     1       4.404   0.844  -0.079  0.00  0.00    +0.000 A 
ENDBRANCH   6  12
ENDBRANCH   5   6
ENDBRANCH   1   5
BRANCH   2  13
ATOM     13  C10 UNL     1      -1.248  -0.943  -2.040  0.00  0.00    +0.000 C 
BRANCH  13  14
ATOM     14  N2  UNL     1      -2.346  -1.731  -1.457  0.00  0.00    +0.000 NA
ATOM     15  H13 UNL     1      -2.047  -2.710  -1.484  0.00  0.00    +0.000 HD
BRANCH  14  16
ATOM     16  C11 UNL     1      -2.640  -1.405  -0.056  0.00  0.00    +0.000 C 
ATOM     17  C12 UNL     1      -3.814  -2.295   0.422  0.00  0.00    +0.000 C 
ATOM     18  C13 UNL     1      -5.105  -1.564   0.021  0.00  0.00    +0.000 C 
ATOM     19  C14 UNL     1      -4.667  -0.140   0.171  0.00  0.00    +0.000 A 
ATOM     20  C15 UNL     1      -3.269  -0.048   0.140  0.00  0.00    +0.000 A 
ATOM     21  C16 UNL     1      -5.461   0.985   0.313  0.00  0.00    +0.000 A 
ATOM     22  C17 UNL     1      -4.832   2.223   0.458  0.00  0.00    +0.000 A 
ATOM     23  C18 UNL     1      -3.432   2.319   0.459  0.00  0.00    +0.000 A 
ATOM     24  C19 UNL     1      -2.640   1.179   0.301  0.00  0.00    +0.000 A 
ENDBRANCH  14  16
ENDBRANCH  13  14
ENDBRANCH   2  13
TORSDOF 6
