REMARK  Name = /home/anacleto/Desktop/manuscript_Mpro/naturecomm/supplementary_file_S2/6-chemical-library/molecular_docking/3D_ligand_structure/1560.pdb
REMARK  6 active torsions:
REMARK  status: ('A' for Active; 'I' for Inactive)
REMARK    1  A    between atoms: C6_6  and  C7_7
REMARK    2  A    between atoms: C7_7  and  C8_8
REMARK    3  A    between atoms: C8_8  and  N1_9
REMARK    4  A    between atoms: C9_10  and  C10_12
REMARK    5  A    between atoms: C10_12  and  N2_13
REMARK    6  A    between atoms: N2_13  and  C11_14
REMARK                            x       y       z     vdW  Elec       q    Type
REMARK                         _______ _______ _______ _____ _____    ______ ____
ROOT
ATOM      1  C10 UNL     1       1.314  -2.081  -0.173  0.00  0.00    +0.000 C 
ENDROOT
BRANCH   1   3
ATOM      2  N1  UNL     1      -0.832  -0.905  -0.156  0.00  0.00    +0.000 N 
ATOM      3  C9  UNL     1      -0.219  -2.142  -0.071  0.00  0.00    +0.000 C 
ATOM      4  O1  UNL     1      -0.831  -3.200   0.046  0.00  0.00    +0.000 OA
ATOM      5  H10 UNL     1      -0.232  -0.175  -0.535  0.00  0.00    +0.000 HD
BRANCH   2   6
ATOM      6  C8  UNL     1      -2.269  -0.785  -0.302  0.00  0.00    +0.000 C 
BRANCH   6   7
ATOM      7  C7  UNL     1      -2.754   0.619   0.056  0.00  0.00    +0.000 C 
BRANCH   7  13
ATOM      8  C1  UNL     1      -5.124   0.389   0.893  0.00  0.00    +0.000 A 
ATOM      9  C2  UNL     1      -6.504   0.507   0.717  0.00  0.00    +0.000 A 
ATOM     10  C3  UNL     1      -7.014   1.001  -0.483  0.00  0.00    +0.000 A 
ATOM     11  C4  UNL     1      -6.146   1.374  -1.507  0.00  0.00    +0.000 A 
ATOM     12  C5  UNL     1      -4.766   1.256  -1.332  0.00  0.00    +0.000 A 
ATOM     13  C6  UNL     1      -4.243   0.767  -0.128  0.00  0.00    +0.000 A 
ENDBRANCH   7  13
ENDBRANCH   6   7
ENDBRANCH   2   6
ENDBRANCH   1   3
BRANCH   1  14
ATOM     14  N2  UNL     1       1.798  -0.709   0.081  0.00  0.00    +0.000 N 
ATOM     15  H13 UNL     1       1.412  -0.354   0.957  0.00  0.00    +0.000 HD
BRANCH  14  16
ATOM     16  C11 UNL     1       3.180  -0.460   0.027  0.00  0.00    +0.000 A 
ATOM     17  C12 UNL     1       3.660   0.708   0.652  0.00  0.00    +0.000 A 
ATOM     18  C13 UNL     1       4.076  -1.226  -0.731  0.00  0.00    +0.000 A 
ATOM     19  C14 UNL     1       5.441  -0.913  -0.827  0.00  0.00    +0.000 A 
ATOM     20  C15 UNL     1       5.879   0.229  -0.156  0.00  0.00    +0.000 A 
ATOM     21  C16 UNL     1       5.024   1.044   0.573  0.00  0.00    +0.000 A 
ATOM     22  N3  UNL     1       7.114   0.812  -0.048  0.00  0.00    +0.000 N 
ATOM     23  N4  UNL     1       7.127   1.938   0.689  0.00  0.00    +0.000 NA
ATOM     24  C17 UNL     1       5.852   2.078   1.061  0.00  0.00    +0.000 A 
ATOM     25  H17 UNL     1       7.986   0.494  -0.455  0.00  0.00    +0.000 HD
ENDBRANCH  14  16
ENDBRANCH   1  14
TORSDOF 6
