REMARK  Name = /home/anacleto/Desktop/manuscript_Mpro/naturecomm/supplementary_file_S2/6-chemical-library/molecular_docking/3D_ligand_structure/1563.pdb
REMARK  6 active torsions:
REMARK  status: ('A' for Active; 'I' for Inactive)
REMARK    1  A    between atoms: C6_6  and  C7_7
REMARK    2  A    between atoms: C7_7  and  C8_8
REMARK    3  A    between atoms: C8_8  and  N1_9
REMARK    4  A    between atoms: C9_10  and  C10_12
REMARK    5  A    between atoms: C10_12  and  N2_13
REMARK    6  A    between atoms: N2_13  and  C11_14
REMARK                            x       y       z     vdW  Elec       q    Type
REMARK                         _______ _______ _______ _____ _____    ______ ____
ROOT
ATOM      1  C10 UNL     1       0.078   1.382   0.625  0.00  0.00    +0.000 C 
ENDROOT
BRANCH   1   3
ATOM      2  N1  UNL     1      -1.706   1.476  -1.034  0.00  0.00    +0.000 N 
ATOM      3  C9  UNL     1      -1.351   1.811   0.259  0.00  0.00    +0.000 C 
ATOM      4  O1  UNL     1      -2.101   2.367   1.056  0.00  0.00    +0.000 OA
ATOM      5  H10 UNL     1      -1.022   0.918  -1.539  0.00  0.00    +0.000 HD
BRANCH   2   6
ATOM      6  C8  UNL     1      -3.073   1.543  -1.509  0.00  0.00    +0.000 C 
BRANCH   6   7
ATOM      7  C7  UNL     1      -3.712   0.156  -1.653  0.00  0.00    +0.000 C 
BRANCH   7  13
ATOM      8  C1  UNL     1      -3.056  -1.871  -0.291  0.00  0.00    +0.000 A 
ATOM      9  C2  UNL     1      -3.086  -2.623   0.885  0.00  0.00    +0.000 A 
ATOM     10  C3  UNL     1      -3.813  -2.170   1.984  0.00  0.00    +0.000 A 
ATOM     11  C4  UNL     1      -4.510  -0.967   1.907  0.00  0.00    +0.000 A 
ATOM     12  C5  UNL     1      -4.483  -0.215   0.732  0.00  0.00    +0.000 A 
ATOM     13  C6  UNL     1      -3.752  -0.656  -0.379  0.00  0.00    +0.000 A 
ENDBRANCH   7  13
ENDBRANCH   6   7
ENDBRANCH   2   6
ENDBRANCH   1   3
BRANCH   1  14
ATOM     14  N2  UNL     1       0.910   1.270  -0.592  0.00  0.00    +0.000 N 
ATOM     15  H13 UNL     1       0.862   2.134  -1.134  0.00  0.00    +0.000 HD
BRANCH  14  16
ATOM     16  C11 UNL     1       2.248   0.862  -0.453  0.00  0.00    +0.000 A 
ATOM     17  C12 UNL     1       2.707   0.063   0.605  0.00  0.00    +0.000 A 
ATOM     18  C13 UNL     1       3.134   1.147  -1.502  0.00  0.00    +0.000 A 
ATOM     19  C14 UNL     1       4.472   0.728  -1.495  0.00  0.00    +0.000 A 
ATOM     20  C15 UNL     1       4.901  -0.026  -0.402  0.00  0.00    +0.000 A 
ATOM     21  C16 UNL     1       4.050  -0.373   0.645  0.00  0.00    +0.000 A 
ATOM     22  N3  UNL     1       6.133  -0.571  -0.122  0.00  0.00    +0.000 N 
ATOM     23  C17 UNL     1       6.090  -1.254   1.065  0.00  0.00    +0.000 A 
ATOM     24  C18 UNL     1       4.810  -1.152   1.562  0.00  0.00    +0.000 A 
ATOM     25  H17 UNL     1       6.948  -0.480  -0.713  0.00  0.00    +0.000 HD
ENDBRANCH  14  16
ENDBRANCH   1  14
TORSDOF 6
