REMARK  Name = /home/anacleto/Desktop/manuscript_Mpro/naturecomm/supplementary_file_S2/6-chemical-library/molecular_docking/3D_ligand_structure/1571.pdb
REMARK  4 active torsions:
REMARK  status: ('A' for Active; 'I' for Inactive)
REMARK    1  A    between atoms: C3_5  and  C4_6
REMARK    2  A    between atoms: C4_6  and  N3_7
REMARK    3  A    between atoms: N3_7  and  S1_8
REMARK    4  A    between atoms: S1_8  and  N4_11
REMARK                            x       y       z     vdW  Elec       q    Type
REMARK                         _______ _______ _______ _____ _____    ______ ____
ROOT
ATOM      1  S1  UNL     1       2.050  -2.487  -0.480  0.00  0.00    +0.000 S 
ATOM      2  O1  UNL     1       2.367  -3.255   0.699  0.00  0.00    +0.000 OA
ATOM      3  O2  UNL     1       2.225  -3.024  -1.808  0.00  0.00    +0.000 OA
ENDROOT
BRANCH   1   4
ATOM      4  N4  UNL     1       0.492  -1.867  -0.351  0.00  0.00    +0.000 NA
ATOM      5  C5  UNL     1       0.066  -1.356   0.967  0.00  0.00    +0.000 C 
ATOM      6  C6  UNL     1      -1.460  -1.306   1.019  0.00  0.00    +0.000 C 
ATOM      7  C7  UNL     1       0.031  -1.025  -1.478  0.00  0.00    +0.000 C 
ATOM      8  C8  UNL     1      -1.494  -0.904  -1.452  0.00  0.00    +0.000 C 
ATOM      9  C9  UNL     1      -2.067  -0.414  -0.096  0.00  0.00    +0.000 C 
ATOM     10  C10 UNL     1      -3.612  -0.600  -0.127  0.00  0.00    +0.000 C 
ATOM     11  C11 UNL     1      -4.335   0.379   0.791  0.00  0.00    +0.000 C 
ATOM     12  C12 UNL     1      -4.106   1.826   0.356  0.00  0.00    +0.000 C 
ATOM     13  C13 UNL     1      -2.767   2.039  -0.350  0.00  0.00    +0.000 C 
ATOM     14  C14 UNL     1      -1.703   1.077   0.169  0.00  0.00    +0.000 C 
ENDBRANCH   1   4
BRANCH   1  15
ATOM     15  N3  UNL     1       2.943  -1.077  -0.449  0.00  0.00    +0.000 NA
ATOM     16  H6  UNL     1       3.652  -1.129  -1.181  0.00  0.00    +0.000 HD
BRANCH  15  17
ATOM     17  C4  UNL     1       3.510  -0.696   0.847  0.00  0.00    +0.000 C 
BRANCH  17  22
ATOM     18  C1  UNL     1       5.327   1.078   0.364  0.00  0.00    +0.000 A 
ATOM     19  N1  UNL     1       5.318   2.443   0.359  0.00  0.00    +0.000 N 
ATOM     20  N2  UNL     1       4.122   2.968   0.668  0.00  0.00    +0.000 NA
ATOM     21  C2  UNL     1       3.349   1.899   0.867  0.00  0.00    +0.000 A 
ATOM     22  C3  UNL     1       4.047   0.681   0.698  0.00  0.00    +0.000 A 
ATOM     23  H2  UNL     1       6.084   3.077   0.157  0.00  0.00    +0.000 HD
ENDBRANCH  17  22
ENDBRANCH  15  17
ENDBRANCH   1  15
TORSDOF 4
