REMARK  Name = /home/anacleto/Desktop/manuscript_Mpro/naturecomm/supplementary_file_S2/6-chemical-library/molecular_docking/3D_ligand_structure/1579.pdb
REMARK  4 active torsions:
REMARK  status: ('A' for Active; 'I' for Inactive)
REMARK    1  A    between atoms: C4_7  and  C5_9
REMARK    2  A    between atoms: C5_9  and  O2_10
REMARK    3  A    between atoms: O2_10  and  C6_11
REMARK    4  A    between atoms: C6_11  and  C7_12
REMARK                            x       y       z     vdW  Elec       q    Type
REMARK                         _______ _______ _______ _____ _____    ______ ____
ROOT
ATOM      1  O2  UNL     1       0.682   0.597  -0.330  0.00  0.00    +0.000 OA
ENDROOT
BRANCH   1   2
ATOM      2  C5  UNL     1       1.438   1.289  -1.323  0.00  0.00    +0.000 C 
BRANCH   2   9
ATOM      3  N1  UNL     1       5.625   0.156  -0.551  0.00  0.00    +0.000 N 
ATOM      4  C1  UNL     1       6.710  -0.444   0.024  0.00  0.00    +0.000 A 
ATOM      5  C2  UNL     1       6.190  -1.206   1.043  0.00  0.00    +0.000 A 
ATOM      6  N2  UNL     1       4.824  -1.084   1.098  0.00  0.00    +0.000 NA
ATOM      7  C3  UNL     1       4.507  -0.258   0.128  0.00  0.00    +0.000 A 
ATOM      8  N3  UNL     1       3.237   0.141  -0.173  0.00  0.00    +0.000 N 
ATOM      9  C4  UNL     1       2.937   1.010  -1.197  0.00  0.00    +0.000 C 
ATOM     10  O1  UNL     1       3.762   1.524  -1.952  0.00  0.00    +0.000 OA
ATOM     11  H1  UNL     1       5.606   0.795  -1.337  0.00  0.00    +0.000 HD
ATOM     12  H4  UNL     1       2.483  -0.227   0.397  0.00  0.00    +0.000 HD
ENDBRANCH   2   9
ENDBRANCH   1   2
BRANCH   1  13
ATOM     13  C6  UNL     1      -0.721   0.851  -0.464  0.00  0.00    +0.000 C 
BRANCH  13  14
ATOM     14  C7  UNL     1      -1.495   0.051   0.601  0.00  0.00    +0.000 C 
ATOM     15  C8  UNL     1      -1.158  -1.443   0.469  0.00  0.00    +0.000 C 
ATOM     16  C9  UNL     1      -2.142  -2.258   1.284  0.00  0.00    +0.000 C 
ATOM     17  O3  UNL     1      -3.466  -2.124   0.765  0.00  0.00    +0.000 OA
ATOM     18  C10 UNL     1      -3.875  -0.824   0.628  0.00  0.00    +0.000 A 
ATOM     19  C11 UNL     1      -2.995   0.266   0.551  0.00  0.00    +0.000 A 
ATOM     20  C12 UNL     1      -5.256  -0.636   0.547  0.00  0.00    +0.000 A 
ATOM     21  C13 UNL     1      -5.784   0.648   0.437  0.00  0.00    +0.000 A 
ATOM     22  C14 UNL     1      -4.928   1.745   0.411  0.00  0.00    +0.000 A 
ATOM     23  C15 UNL     1      -3.545   1.556   0.473  0.00  0.00    +0.000 A 
ENDBRANCH  13  14
ENDBRANCH   1  13
TORSDOF 4
