REMARK  Name = /home/anacleto/Desktop/manuscript_Mpro/naturecomm/supplementary_file_S2/6-chemical-library/molecular_docking/3D_ligand_structure/1583.pdb
REMARK  3 active torsions:
REMARK  status: ('A' for Active; 'I' for Inactive)
REMARK    1  A    between atoms: C5_10  and  C7_12
REMARK    2  A    between atoms: N4_14  and  C8_15
REMARK    3  A    between atoms: C8_15  and  C9_16
REMARK                            x       y       z     vdW  Elec       q    Type
REMARK                         _______ _______ _______ _____ _____    ______ ____
ROOT
ATOM      1  O1  UNL     1       4.737   0.233  -2.624  0.00  0.00    +0.000 OA
ATOM      2  C1  UNL     1       4.439   0.324  -1.438  0.00  0.00    +0.000 A 
ATOM      3  N1  UNL     1       5.301   0.846  -0.492  0.00  0.00    +0.000 N 
ATOM      4  C2  UNL     1       5.067   0.986   0.859  0.00  0.00    +0.000 A 
ATOM      5  O2  UNL     1       5.914   1.461   1.612  0.00  0.00    +0.000 OA
ATOM      6  N2  UNL     1       3.843   0.571   1.336  0.00  0.00    +0.000 N 
ATOM      7  C3  UNL     1       2.939   0.048   0.454  0.00  0.00    +0.000 A 
ATOM      8  C4  UNL     1       3.172  -0.095  -0.887  0.00  0.00    +0.000 A 
ATOM      9  N3  UNL     1       1.693  -0.416   0.747  0.00  0.00    +0.000 N 
ATOM     10  C5  UNL     1       1.086  -0.857  -0.417  0.00  0.00    +0.000 A 
ATOM     11  C6  UNL     1       2.012  -0.680  -1.442  0.00  0.00    +0.000 A 
ATOM     12  H1  UNL     1       6.200   1.151  -0.827  0.00  0.00    +0.000 HD
ATOM     13  H2  UNL     1       3.669   0.668   2.327  0.00  0.00    +0.000 HD
ATOM     14  H3  UNL     1       1.288  -0.477   1.670  0.00  0.00    +0.000 HD
ENDROOT
BRANCH  10  15
ATOM     15  C7  UNL     1      -0.238  -1.435  -0.518  0.00  0.00    +0.000 C 
ATOM     16  O3  UNL     1      -0.586  -2.146  -1.454  0.00  0.00    +0.000 OA
ATOM     17  N4  UNL     1      -1.092  -1.104   0.513  0.00  0.00    +0.000 N 
ATOM     18  H5  UNL     1      -0.878  -0.285   1.061  0.00  0.00    +0.000 HD
BRANCH  17  19
ATOM     19  C8  UNL     1      -2.482  -1.507   0.477  0.00  0.00    +0.000 C 
BRANCH  19  20
ATOM     20  C9  UNL     1      -3.352  -0.407  -0.054  0.00  0.00    +0.000 A 
ATOM     21  C10 UNL     1      -4.006   0.489   0.798  0.00  0.00    +0.000 A 
ATOM     22  C11 UNL     1      -4.790   1.506   0.259  0.00  0.00    +0.000 A 
ATOM     23  C12 UNL     1      -4.890   1.598  -1.118  0.00  0.00    +0.000 A 
ATOM     24  N5  UNL     1      -4.267   0.758  -1.972  0.00  0.00    +0.000 NA
ATOM     25  C13 UNL     1      -3.512  -0.221  -1.424  0.00  0.00    +0.000 A 
ENDBRANCH  19  20
ENDBRANCH  17  19
ENDBRANCH  10  15
TORSDOF 3
