REMARK  Name = /home/anacleto/Desktop/manuscript_Mpro/naturecomm/supplementary_file_S2/6-chemical-library/molecular_docking/3D_ligand_structure/1590.pdb
REMARK  6 active torsions:
REMARK  status: ('A' for Active; 'I' for Inactive)
REMARK    1  A    between atoms: C3_5  and  C4_6
REMARK    2  A    between atoms: C4_6  and  C5_7
REMARK    3  A    between atoms: C5_7  and  C6_8
REMARK    4  A    between atoms: N3_10  and  C7_11
REMARK    5  A    between atoms: C7_11  and  C8_12
REMARK    6  A    between atoms: C8_12  and  C9_13
REMARK                            x       y       z     vdW  Elec       q    Type
REMARK                         _______ _______ _______ _____ _____    ______ ____
ROOT
ATOM      1  C6  UNL     1       0.544  -0.596  -1.842  0.00  0.00    +0.000 C 
ATOM      2  O1  UNL     1       0.946  -1.754  -1.788  0.00  0.00    +0.000 OA
ATOM      3  N3  UNL     1      -0.618  -0.214  -2.486  0.00  0.00    +0.000 N 
ATOM      4  H8  UNL     1      -0.912   0.749  -2.400  0.00  0.00    +0.000 HD
ENDROOT
BRANCH   1   5
ATOM      5  C5  UNL     1       1.302   0.571  -1.248  0.00  0.00    +0.000 C 
BRANCH   5   6
ATOM      6  C4  UNL     1       2.256   0.100  -0.155  0.00  0.00    +0.000 C 
BRANCH   6  11
ATOM      7  N1  UNL     1       4.204   1.660   0.196  0.00  0.00    +0.000 N 
ATOM      8  C1  UNL     1       4.495   2.735   0.986  0.00  0.00    +0.000 A 
ATOM      9  N2  UNL     1       3.495   3.032   1.783  0.00  0.00    +0.000 NA
ATOM     10  C2  UNL     1       2.521   2.110   1.501  0.00  0.00    +0.000 A 
ATOM     11  C3  UNL     1       2.933   1.249   0.506  0.00  0.00    +0.000 A 
ATOM     12  H1  UNL     1       4.821   1.244  -0.489  0.00  0.00    +0.000 HD
ENDBRANCH   6  11
ENDBRANCH   5   6
ENDBRANCH   1   5
BRANCH   3  13
ATOM     13  C7  UNL     1      -1.636  -1.195  -2.830  0.00  0.00    +0.000 C 
BRANCH  13  14
ATOM     14  C8  UNL     1      -2.781  -1.242  -1.806  0.00  0.00    +0.000 C 
BRANCH  14  15
ATOM     15  C9  UNL     1      -2.324  -1.539  -0.410  0.00  0.00    +0.000 A 
ATOM     16  C10 UNL     1      -2.031  -2.786   0.105  0.00  0.00    +0.000 A 
ATOM     17  N4  UNL     1      -1.581  -2.627   1.388  0.00  0.00    +0.000 N 
ATOM     18  C11 UNL     1      -1.589  -1.297   1.735  0.00  0.00    +0.000 A 
ATOM     19  C12 UNL     1      -2.067  -0.588   0.632  0.00  0.00    +0.000 A 
ATOM     20  C13 UNL     1      -1.205  -0.674   2.929  0.00  0.00    +0.000 A 
ATOM     21  C14 UNL     1      -1.316   0.717   3.000  0.00  0.00    +0.000 A 
ATOM     22  C15 UNL     1      -1.794   1.454   1.919  0.00  0.00    +0.000 A 
ATOM     23  C16 UNL     1      -2.173   0.815   0.733  0.00  0.00    +0.000 A 
ATOM     24  H14 UNL     1      -1.269  -3.375   1.991  0.00  0.00    +0.000 HD
ENDBRANCH  14  15
ENDBRANCH  13  14
ENDBRANCH   3  13
TORSDOF 6
