REMARK  Name = /home/anacleto/Desktop/manuscript_Mpro/naturecomm/supplementary_file_S2/6-chemical-library/molecular_docking/3D_ligand_structure/1604.pdb
REMARK  3 active torsions:
REMARK  status: ('A' for Active; 'I' for Inactive)
REMARK    1  A    between atoms: C5_6  and  C6_7
REMARK    2  A    between atoms: C6_7  and  N2_8
REMARK    3  A    between atoms: C7_9  and  C8_11
REMARK                            x       y       z     vdW  Elec       q    Type
REMARK                         _______ _______ _______ _____ _____    ______ ____
ROOT
ATOM      1  C8  UNL     1      -1.070  -0.096  -0.295  0.00  0.00    +0.000 A 
ATOM      2  C9  UNL     1      -0.877  -1.425  -0.236  0.00  0.00    +0.000 A 
ATOM      3  C10 UNL     1      -2.010  -2.369  -0.311  0.00  0.00    +0.000 A 
ATOM      4  O2  UNL     1      -1.822  -3.577  -0.227  0.00  0.00    +0.000 OA
ATOM      5  N3  UNL     1      -3.255  -1.831  -0.467  0.00  0.00    +0.000 N 
ATOM      6  C11 UNL     1      -3.500  -0.456  -0.562  0.00  0.00    +0.000 A 
ATOM      7  C12 UNL     1      -2.427   0.446  -0.486  0.00  0.00    +0.000 A 
ATOM      8  C13 UNL     1      -4.811  -0.007  -0.730  0.00  0.00    +0.000 A 
ATOM      9  C14 UNL     1      -5.065   1.360  -0.822  0.00  0.00    +0.000 A 
ATOM     10  C15 UNL     1      -4.011   2.270  -0.748  0.00  0.00    +0.000 A 
ATOM     11  C16 UNL     1      -2.699   1.817  -0.579  0.00  0.00    +0.000 A 
ATOM     12  H9  UNL     1      -4.019  -2.492  -0.523  0.00  0.00    +0.000 HD
ENDROOT
BRANCH   1  14
ATOM     13  N2  UNL     1       0.927   0.558   0.871  0.00  0.00    +0.000 N 
ATOM     14  C7  UNL     1       0.149   0.757  -0.244  0.00  0.00    +0.000 C 
ATOM     15  O1  UNL     1       0.401   1.572  -1.123  0.00  0.00    +0.000 OA
ATOM     16  H7  UNL     1       0.663  -0.143   1.550  0.00  0.00    +0.000 HD
BRANCH  13  17
ATOM     17  C6  UNL     1       2.199   1.222   1.043  0.00  0.00    +0.000 C 
BRANCH  17  23
ATOM     18  C1  UNL     1       4.102  -0.306   1.676  0.00  0.00    +0.000 A 
ATOM     19  N1  UNL     1       5.123  -1.155   1.425  0.00  0.00    +0.000 NA
ATOM     20  C2  UNL     1       5.394  -1.412   0.127  0.00  0.00    +0.000 A 
ATOM     21  C3  UNL     1       4.690  -0.860  -0.929  0.00  0.00    +0.000 A 
ATOM     22  C4  UNL     1       3.643   0.010  -0.640  0.00  0.00    +0.000 A 
ATOM     23  C5  UNL     1       3.333   0.305   0.691  0.00  0.00    +0.000 A 
ENDBRANCH  17  23
ENDBRANCH  13  17
ENDBRANCH   1  14
TORSDOF 3
