REMARK  Name = /home/anacleto/Desktop/manuscript_Mpro/naturecomm/supplementary_file_S2/6-chemical-library/molecular_docking/3D_ligand_structure/1605.pdb
REMARK  3 active torsions:
REMARK  status: ('A' for Active; 'I' for Inactive)
REMARK    1  A    between atoms: C6_6  and  C7_7
REMARK    2  A    between atoms: C7_7  and  C8_8
REMARK    3  A    between atoms: N1_10  and  N2_11
REMARK                            x       y       z     vdW  Elec       q    Type
REMARK                         _______ _______ _______ _____ _____    ______ ____
ROOT
ATOM      1  C8  UNL     1      -1.016  -1.985   0.507  0.00  0.00    +0.000 C 
ATOM      2  O1  UNL     1      -0.855  -2.707  -0.476  0.00  0.00    +0.000 OA
ATOM      3  N1  UNL     1      -0.012  -1.211   1.073  0.00  0.00    +0.000 N 
ATOM      4  H8  UNL     1      -0.323  -0.360   1.546  0.00  0.00    +0.000 HD
ENDROOT
BRANCH   3   5
ATOM      5  N2  UNL     1       1.136  -0.984   0.279  0.00  0.00    +0.000 N 
ATOM      6  C9  UNL     1       1.350   0.311  -0.167  0.00  0.00    +0.000 A 
ATOM      7  O2  UNL     1       0.621   1.258   0.119  0.00  0.00    +0.000 OA
ATOM      8  C10 UNL     1       2.031  -2.005   0.063  0.00  0.00    +0.000 A 
ATOM      9  N3  UNL     1       3.125  -1.878  -0.615  0.00  0.00    +0.000 NA
ATOM     10  C11 UNL     1       3.392  -0.619  -1.180  0.00  0.00    +0.000 A 
ATOM     11  C12 UNL     1       2.560   0.491  -0.991  0.00  0.00    +0.000 A 
ATOM     12  C13 UNL     1       4.539  -0.467  -1.963  0.00  0.00    +0.000 A 
ATOM     13  C14 UNL     1       4.848   0.771  -2.538  0.00  0.00    +0.000 A 
ATOM     14  C15 UNL     1       4.011   1.871  -2.336  0.00  0.00    +0.000 A 
ATOM     15  C16 UNL     1       2.862   1.734  -1.559  0.00  0.00    +0.000 A 
ENDBRANCH   3   5
BRANCH   1  16
ATOM     16  C7  UNL     1      -2.340  -1.911   1.247  0.00  0.00    +0.000 C 
BRANCH  16  22
ATOM     17  C1  UNL     1      -3.229   0.158   2.400  0.00  0.00    +0.000 A 
ATOM     18  C2  UNL     1      -3.789   1.436   2.358  0.00  0.00    +0.000 A 
ATOM     19  C3  UNL     1      -4.090   2.029   1.134  0.00  0.00    +0.000 A 
ATOM     20  C4  UNL     1      -3.843   1.341  -0.052  0.00  0.00    +0.000 A 
ATOM     21  C5  UNL     1      -3.286   0.063  -0.015  0.00  0.00    +0.000 A 
ATOM     22  C6  UNL     1      -2.963  -0.536   1.212  0.00  0.00    +0.000 A 
ENDBRANCH  16  22
ENDBRANCH   1  16
TORSDOF 3
