REMARK  Name = /home/anacleto/Desktop/manuscript_Mpro/naturecomm/supplementary_file_S2/6-chemical-library/molecular_docking/3D_ligand_structure/1608.pdb
REMARK  3 active torsions:
REMARK  status: ('A' for Active; 'I' for Inactive)
REMARK    1  A    between atoms: C6_6  and  C7_7
REMARK    2  A    between atoms: C7_7  and  C8_8
REMARK    3  A    between atoms: N1_10  and  C9_11
REMARK                            x       y       z     vdW  Elec       q    Type
REMARK                         _______ _______ _______ _____ _____    ______ ____
ROOT
ATOM      1  C9  UNL     1      -1.286   0.914  -0.613  0.00  0.00    +0.000 A 
ATOM      2  C10 UNL     1      -2.027   1.886  -1.175  0.00  0.00    +0.000 A 
ATOM      3  N2  UNL     1      -3.224   2.306  -0.658  0.00  0.00    +0.000 N 
ATOM      4  C11 UNL     1      -3.808   1.790   0.470  0.00  0.00    +0.000 A 
ATOM      5  O2  UNL     1      -4.890   2.194   0.880  0.00  0.00    +0.000 OA
ATOM      6  C12 UNL     1      -3.050   0.720   1.162  0.00  0.00    +0.000 A 
ATOM      7  C13 UNL     1      -1.810   0.293   0.644  0.00  0.00    +0.000 A 
ATOM      8  C14 UNL     1      -3.589   0.168   2.333  0.00  0.00    +0.000 A 
ATOM      9  C15 UNL     1      -2.894  -0.823   3.018  0.00  0.00    +0.000 A 
ATOM     10  C16 UNL     1      -1.663  -1.255   2.537  0.00  0.00    +0.000 A 
ATOM     11  C17 UNL     1      -1.124  -0.703   1.366  0.00  0.00    +0.000 A 
ATOM     12  H10 UNL     1      -3.744   3.038  -1.128  0.00  0.00    +0.000 HD
ENDROOT
BRANCH   1  15
ATOM     13  C8  UNL     1       0.619   0.940  -2.234  0.00  0.00    +0.000 C 
ATOM     14  O1  UNL     1       0.280   1.884  -2.944  0.00  0.00    +0.000 OA
ATOM     15  N1  UNL     1      -0.091   0.460  -1.143  0.00  0.00    +0.000 N 
ATOM     16  H8  UNL     1       0.350  -0.305  -0.654  0.00  0.00    +0.000 HD
BRANCH  13  17
ATOM     17  C7  UNL     1       1.883   0.152  -2.572  0.00  0.00    +0.000 C 
BRANCH  17  23
ATOM     18  C1  UNL     1       3.232   0.348  -0.443  0.00  0.00    +0.000 A 
ATOM     19  C2  UNL     1       3.858  -0.220   0.667  0.00  0.00    +0.000 A 
ATOM     20  C3  UNL     1       3.863  -1.603   0.835  0.00  0.00    +0.000 A 
ATOM     21  C4  UNL     1       3.244  -2.421  -0.108  0.00  0.00    +0.000 A 
ATOM     22  C5  UNL     1       2.616  -1.857  -1.219  0.00  0.00    +0.000 A 
ATOM     23  C6  UNL     1       2.601  -0.466  -1.394  0.00  0.00    +0.000 A 
ENDBRANCH  17  23
ENDBRANCH  13  17
ENDBRANCH   1  15
TORSDOF 3
