REMARK  Name = /home/anacleto/Desktop/manuscript_Mpro/naturecomm/supplementary_file_S2/6-chemical-library/molecular_docking/3D_ligand_structure/1609.pdb
REMARK  4 active torsions:
REMARK  status: ('A' for Active; 'I' for Inactive)
REMARK    1  A    between atoms: C6_6  and  C7_7
REMARK    2  A    between atoms: C7_7  and  N1_8
REMARK    3  A    between atoms: C8_9  and  C9_11
REMARK    4  A    between atoms: C9_11  and  C10_12
REMARK                            x       y       z     vdW  Elec       q    Type
REMARK                         _______ _______ _______ _____ _____    ______ ____
ROOT
ATOM      1  N1  UNL     1       0.990  -0.330  -0.565  0.00  0.00    +0.000 N 
ATOM      2  C8  UNL     1       0.356   0.453   0.378  0.00  0.00    +0.000 C 
ATOM      3  O1  UNL     1       0.528   1.663   0.475  0.00  0.00    +0.000 OA
ATOM      4  H8  UNL     1       0.991  -1.332  -0.446  0.00  0.00    +0.000 HD
ENDROOT
BRANCH   1   5
ATOM      5  C7  UNL     1       1.998   0.221  -1.443  0.00  0.00    +0.000 C 
BRANCH   5  11
ATOM      6  C1  UNL     1       4.109  -1.171  -1.320  0.00  0.00    +0.000 A 
ATOM      7  C2  UNL     1       5.378  -1.424  -0.794  0.00  0.00    +0.000 A 
ATOM      8  C3  UNL     1       5.924  -0.564   0.157  0.00  0.00    +0.000 A 
ATOM      9  C4  UNL     1       5.204   0.548   0.586  0.00  0.00    +0.000 A 
ATOM     10  C5  UNL     1       3.936   0.803   0.062  0.00  0.00    +0.000 A 
ATOM     11  C6  UNL     1       3.379  -0.049  -0.902  0.00  0.00    +0.000 A 
ENDBRANCH   5  11
ENDBRANCH   1   5
BRANCH   2  12
ATOM     12  C9  UNL     1      -0.568  -0.319   1.305  0.00  0.00    +0.000 C 
BRANCH  12  13
ATOM     13  C10 UNL     1      -1.950   0.279   1.382  0.00  0.00    +0.000 A 
ATOM     14  C11 UNL     1      -2.240   1.152   2.431  0.00  0.00    +0.000 A 
ATOM     15  N2  UNL     1      -3.437   1.740   2.628  0.00  0.00    +0.000 NA
ATOM     16  C12 UNL     1      -4.395   1.469   1.717  0.00  0.00    +0.000 A 
ATOM     17  C13 UNL     1      -4.227   0.636   0.611  0.00  0.00    +0.000 A 
ATOM     18  C14 UNL     1      -2.968   0.022   0.429  0.00  0.00    +0.000 A 
ATOM     19  C15 UNL     1      -5.273   0.411  -0.302  0.00  0.00    +0.000 A 
ATOM     20  C16 UNL     1      -5.085  -0.417  -1.405  0.00  0.00    +0.000 A 
ATOM     21  C17 UNL     1      -3.853  -1.025  -1.607  0.00  0.00    +0.000 A 
ATOM     22  C18 UNL     1      -2.808  -0.810  -0.703  0.00  0.00    +0.000 A 
ENDBRANCH  12  13
ENDBRANCH   2  12
TORSDOF 4
