REMARK  Name = /home/anacleto/Desktop/manuscript_Mpro/naturecomm/supplementary_file_S2/6-chemical-library/molecular_docking/3D_ligand_structure/1611.pdb
REMARK  4 active torsions:
REMARK  status: ('A' for Active; 'I' for Inactive)
REMARK    1  A    between atoms: C6_6  and  C7_7
REMARK    2  A    between atoms: N1_9  and  C8_10
REMARK    3  A    between atoms: C8_10  and  C9_11
REMARK    4  A    between atoms: C9_11  and  C10_12
REMARK                            x       y       z     vdW  Elec       q    Type
REMARK                         _______ _______ _______ _____ _____    ______ ____
ROOT
ATOM      1  C8  UNL     1       0.494   0.021   0.876  0.00  0.00    +0.000 C 
ENDROOT
BRANCH   1   4
ATOM      2  C7  UNL     1       2.863  -0.508   0.436  0.00  0.00    +0.000 C 
ATOM      3  O1  UNL     1       2.617  -1.672   0.142  0.00  0.00    +0.000 OA
ATOM      4  N1  UNL     1       1.895   0.397   0.825  0.00  0.00    +0.000 N 
ATOM      5  H6  UNL     1       2.122   1.381   0.850  0.00  0.00    +0.000 HD
BRANCH   2  11
ATOM      6  C1  UNL     1       4.710   1.066   1.146  0.00  0.00    +0.000 A 
ATOM      7  C2  UNL     1       6.025   1.521   1.022  0.00  0.00    +0.000 A 
ATOM      8  C3  UNL     1       6.888   0.924   0.103  0.00  0.00    +0.000 A 
ATOM      9  C4  UNL     1       6.444  -0.135  -0.689  0.00  0.00    +0.000 A 
ATOM     10  C5  UNL     1       5.131  -0.593  -0.567  0.00  0.00    +0.000 A 
ATOM     11  C6  UNL     1       4.254   0.013   0.341  0.00  0.00    +0.000 A 
ENDBRANCH   2  11
ENDBRANCH   1   4
BRANCH   1  12
ATOM     12  C9  UNL     1      -0.153   0.003  -0.511  0.00  0.00    +0.000 C 
BRANCH  12  13
ATOM     13  C10 UNL     1      -1.619  -0.340  -0.439  0.00  0.00    +0.000 A 
ATOM     14  C11 UNL     1      -2.590   0.672  -0.397  0.00  0.00    +0.000 A 
ATOM     15  C12 UNL     1      -2.028  -1.676  -0.383  0.00  0.00    +0.000 A 
ATOM     16  C13 UNL     1      -3.384  -1.998  -0.295  0.00  0.00    +0.000 A 
ATOM     17  C14 UNL     1      -4.360  -0.991  -0.256  0.00  0.00    +0.000 A 
ATOM     18  C15 UNL     1      -3.958   0.363  -0.308  0.00  0.00    +0.000 A 
ATOM     19  C16 UNL     1      -5.727  -1.299  -0.167  0.00  0.00    +0.000 A 
ATOM     20  C17 UNL     1      -6.686  -0.286  -0.129  0.00  0.00    +0.000 A 
ATOM     21  C18 UNL     1      -6.291   1.047  -0.180  0.00  0.00    +0.000 A 
ATOM     22  C19 UNL     1      -4.936   1.370  -0.269  0.00  0.00    +0.000 A 
ENDBRANCH  12  13
ENDBRANCH   1  12
TORSDOF 4
