REMARK  Name = /home/anacleto/Desktop/manuscript_Mpro/naturecomm/supplementary_file_S2/6-chemical-library/molecular_docking/3D_ligand_structure/1627.pdb
REMARK  4 active torsions:
REMARK  status: ('A' for Active; 'I' for Inactive)
REMARK    1  A    between atoms: C4_5  and  C5_6
REMARK    2  A    between atoms: C5_6  and  N1_7
REMARK    3  A    between atoms: C6_8  and  C7_10
REMARK    4  A    between atoms: C7_10  and  N2_11
REMARK                            x       y       z     vdW  Elec       q    Type
REMARK                         _______ _______ _______ _____ _____    ______ ____
ROOT
ATOM      1  N1  UNL     1       1.696  -1.917   0.956  0.00  0.00    +0.000 N 
ATOM      2  C6  UNL     1       0.962  -1.805   2.122  0.00  0.00    +0.000 C 
ATOM      3  O1  UNL     1       1.378  -1.286   3.155  0.00  0.00    +0.000 OA
ATOM      4  H8  UNL     1       1.185  -2.233   0.132  0.00  0.00    +0.000 HD
ENDROOT
BRANCH   1   5
ATOM      5  C5  UNL     1       2.886  -1.133   0.738  0.00  0.00    +0.000 C 
BRANCH   5  10
ATOM      6  C1  UNL     1       2.404  -0.010  -1.586  0.00  0.00    +0.000 C 
ATOM      7  C2  UNL     1       1.869   1.335  -1.954  0.00  0.00    +0.000 C 
ATOM      8  C3  UNL     1       1.541   2.194  -0.982  0.00  0.00    +0.000 C 
ATOM      9  S1  UNL     1       1.805   1.524   0.646  0.00  0.00    +0.000 S 
ATOM     10  C4  UNL     1       2.443   0.020  -0.097  0.00  0.00    +0.000 C 
ATOM     11  H5  UNL     1       2.964   2.142   0.976  0.00  0.00    +0.000 HD
ENDBRANCH   5  10
ENDBRANCH   1   5
BRANCH   2  12
ATOM     12  C7  UNL     1      -0.464  -2.339   1.992  0.00  0.00    +0.000 C 
BRANCH  12  13
ATOM     13  N2  UNL     1      -1.241  -1.423   1.173  0.00  0.00    +0.000 N 
ATOM     14  C8  UNL     1      -1.179  -1.421  -0.210  0.00  0.00    +0.000 C 
ATOM     15  O2  UNL     1      -0.622  -2.235  -0.925  0.00  0.00    +0.000 OA
ATOM     16  C9  UNL     1      -1.750  -0.167   1.703  0.00  0.00    +0.000 C 
ATOM     17  C10 UNL     1      -2.180   0.552   0.467  0.00  0.00    +0.000 A 
ATOM     18  C11 UNL     1      -1.835  -0.191  -0.662  0.00  0.00    +0.000 A 
ATOM     19  C12 UNL     1      -2.797   1.782   0.328  0.00  0.00    +0.000 A 
ATOM     20  C13 UNL     1      -3.062   2.245  -0.967  0.00  0.00    +0.000 A 
ATOM     21  C14 UNL     1      -2.704   1.485  -2.096  0.00  0.00    +0.000 A 
ATOM     22  C15 UNL     1      -2.077   0.247  -1.950  0.00  0.00    +0.000 A 
ENDBRANCH  12  13
ENDBRANCH   2  12
TORSDOF 4
