REMARK  Name = /home/anacleto/Desktop/manuscript_Mpro/naturecomm/supplementary_file_S2/6-chemical-library/molecular_docking/3D_ligand_structure/1633.pdb
REMARK  4 active torsions:
REMARK  status: ('A' for Active; 'I' for Inactive)
REMARK    1  A    between atoms: C4_5  and  C5_6
REMARK    2  A    between atoms: C5_6  and  N1_7
REMARK    3  A    between atoms: C6_8  and  C7_10
REMARK    4  A    between atoms: C7_10  and  C8_11
REMARK                            x       y       z     vdW  Elec       q    Type
REMARK                         _______ _______ _______ _____ _____    ______ ____
ROOT
ATOM      1  C7  UNL     1       0.554  -1.783   1.360  0.00  0.00    +0.000 C 
ENDROOT
BRANCH   1   2
ATOM      2  C8  UNL     1       1.688  -1.255   0.515  0.00  0.00    +0.000 A 
ATOM      3  C9  UNL     1       2.689  -2.141   0.115  0.00  0.00    +0.000 A 
ATOM      4  N2  UNL     1       3.758  -1.802  -0.633  0.00  0.00    +0.000 NA
ATOM      5  C10 UNL     1       3.825  -0.514  -1.031  0.00  0.00    +0.000 A 
ATOM      6  C11 UNL     1       2.882   0.466  -0.720  0.00  0.00    +0.000 A 
ATOM      7  C12 UNL     1       1.776   0.092   0.077  0.00  0.00    +0.000 A 
ATOM      8  C13 UNL     1       3.015   1.787  -1.184  0.00  0.00    +0.000 A 
ATOM      9  C14 UNL     1       2.059   2.750  -0.871  0.00  0.00    +0.000 A 
ATOM     10  C15 UNL     1       0.964   2.403  -0.091  0.00  0.00    +0.000 A 
ATOM     11  C16 UNL     1       0.825   1.094   0.379  0.00  0.00    +0.000 A 
ENDBRANCH   1   2
BRANCH   1  13
ATOM     12  N1  UNL     1      -1.837  -1.440   1.062  0.00  0.00    +0.000 N 
ATOM     13  C6  UNL     1      -0.705  -2.038   0.549  0.00  0.00    +0.000 C 
ATOM     14  O1  UNL     1      -0.710  -2.725  -0.468  0.00  0.00    +0.000 OA
ATOM     15  H6  UNL     1      -1.745  -0.785   1.825  0.00  0.00    +0.000 HD
BRANCH  12  16
ATOM     16  C5  UNL     1      -3.057  -1.368   0.290  0.00  0.00    +0.000 C 
BRANCH  16  21
ATOM     17  C1  UNL     1      -3.822   1.065   0.092  0.00  0.00    +0.000 A 
ATOM     18  S1  UNL     1      -3.608   2.460  -0.874  0.00  0.00    +0.000 S 
ATOM     19  C2  UNL     1      -2.548   1.634  -1.928  0.00  0.00    +0.000 A 
ATOM     20  C3  UNL     1      -2.361   0.325  -1.547  0.00  0.00    +0.000 A 
ATOM     21  C4  UNL     1      -3.095  -0.021  -0.362  0.00  0.00    +0.000 A 
ENDBRANCH  16  21
ENDBRANCH  12  16
ENDBRANCH   1  13
TORSDOF 4
