REMARK  Name = /home/anacleto/Desktop/manuscript_Mpro/naturecomm/supplementary_file_S2/6-chemical-library/molecular_docking/3D_ligand_structure/1634.pdb
REMARK  4 active torsions:
REMARK  status: ('A' for Active; 'I' for Inactive)
REMARK    1  A    between atoms: C4_6  and  S1_7
REMARK    2  A    between atoms: S1_7  and  C5_8
REMARK    3  A    between atoms: C5_8  and  C6_10
REMARK    4  A    between atoms: C6_10  and  C7_11
REMARK                            x       y       z     vdW  Elec       q    Type
REMARK                         _______ _______ _______ _____ _____    ______ ____
ROOT
ATOM      1  C6  UNL     1       0.399   1.481   1.574  0.00  0.00    +0.000 C 
ENDROOT
BRANCH   1   2
ATOM      2  C7  UNL     1      -0.639   0.599   0.919  0.00  0.00    +0.000 A 
ATOM      3  C8  UNL     1      -1.792   1.156   0.346  0.00  0.00    +0.000 A 
ATOM      4  C9  UNL     1      -0.456  -0.787   0.862  0.00  0.00    +0.000 A 
ATOM      5  C10 UNL     1      -1.415  -1.603   0.258  0.00  0.00    +0.000 A 
ATOM      6  C11 UNL     1      -2.574  -1.052  -0.309  0.00  0.00    +0.000 A 
ATOM      7  C12 UNL     1      -2.764   0.347  -0.267  0.00  0.00    +0.000 A 
ATOM      8  C13 UNL     1      -3.547  -1.860  -0.920  0.00  0.00    +0.000 A 
ATOM      9  C14 UNL     1      -4.691  -1.295  -1.485  0.00  0.00    +0.000 A 
ATOM     10  C15 UNL     1      -4.877   0.083  -1.446  0.00  0.00    +0.000 A 
ATOM     11  C16 UNL     1      -3.920   0.900  -0.842  0.00  0.00    +0.000 A 
ENDBRANCH   1   2
BRANCH   1  12
ATOM     12  C5  UNL     1       1.344   2.148   0.593  0.00  0.00    +0.000 C 
ATOM     13  O1  UNL     1       1.025   2.553  -0.520  0.00  0.00    +0.000 OA
BRANCH  12  14
ATOM     14  S1  UNL     1       2.954   2.454   1.229  0.00  0.00    +0.000 S 
BRANCH  14  20
ATOM     15  N1  UNL     1       5.004   1.178   0.107  0.00  0.00    +0.000 NA
ATOM     16  C1  UNL     1       5.607   0.076  -0.376  0.00  0.00    +0.000 A 
ATOM     17  C2  UNL     1       5.016  -1.163  -0.398  0.00  0.00    +0.000 A 
ATOM     18  C3  UNL     1       3.744  -1.221   0.118  0.00  0.00    +0.000 A 
ATOM     19  N2  UNL     1       3.094  -0.152   0.617  0.00  0.00    +0.000 NA
ATOM     20  C4  UNL     1       3.751   1.021   0.569  0.00  0.00    +0.000 A 
ENDBRANCH  14  20
ENDBRANCH  12  14
ENDBRANCH   1  12
TORSDOF 4
