REMARK  Name = /home/anacleto/Desktop/manuscript_Mpro/naturecomm/supplementary_file_S2/6-chemical-library/molecular_docking/3D_ligand_structure/1648.pdb
REMARK  4 active torsions:
REMARK  status: ('A' for Active; 'I' for Inactive)
REMARK    1  A    between atoms: C7_8  and  C9_10
REMARK    2  A    between atoms: N2_12  and  C10_13
REMARK    3  A    between atoms: C10_13  and  C11_14
REMARK    4  A    between atoms: C11_14  and  C12_15
REMARK                            x       y       z     vdW  Elec       q    Type
REMARK                         _______ _______ _______ _____ _____    ______ ____
ROOT
ATOM      1  C9  UNL     1       1.058   1.053   0.489  0.00  0.00    +0.000 C 
ATOM      2  O1  UNL     1       0.578   2.008  -0.113  0.00  0.00    +0.000 OA
ATOM      3  N2  UNL     1       0.425   0.442   1.545  0.00  0.00    +0.000 N 
ATOM      4  H7  UNL     1       0.861  -0.354   1.984  0.00  0.00    +0.000 HD
ENDROOT
BRANCH   1  12
ATOM      5  C1  UNL     1       5.397  -1.535  -0.078  0.00  0.00    +0.000 A 
ATOM      6  C2  UNL     1       6.432  -1.366  -1.006  0.00  0.00    +0.000 A 
ATOM      7  C3  UNL     1       6.366  -0.362  -1.970  0.00  0.00    +0.000 A 
ATOM      8  C4  UNL     1       5.269   0.502  -2.037  0.00  0.00    +0.000 A 
ATOM      9  C5  UNL     1       4.244   0.319  -1.101  0.00  0.00    +0.000 A 
ATOM     10  C6  UNL     1       4.282  -0.676  -0.127  0.00  0.00    +0.000 A 
ATOM     11  N1  UNL     1       3.066   1.003  -0.927  0.00  0.00    +0.000 N 
ATOM     12  C7  UNL     1       2.338   0.487   0.124  0.00  0.00    +0.000 A 
ATOM     13  C8  UNL     1       3.085  -0.561   0.635  0.00  0.00    +0.000 A 
ATOM     14  H5  UNL     1       2.755   1.786  -1.488  0.00  0.00    +0.000 HD
ENDBRANCH   1  12
BRANCH   3  15
ATOM     15  C10 UNL     1      -0.877   0.859   2.023  0.00  0.00    +0.000 C 
BRANCH  15  16
ATOM     16  C11 UNL     1      -1.988  -0.108   1.601  0.00  0.00    +0.000 C 
BRANCH  16  17
ATOM     17  C12 UNL     1      -2.255  -0.173   0.080  0.00  0.00    +0.000 C 
ATOM     18  C13 UNL     1      -2.833   1.146  -0.478  0.00  0.00    +0.000 C 
ATOM     19  C14 UNL     1      -4.284   1.043  -0.953  0.00  0.00    +0.000 C 
ATOM     20  C15 UNL     1      -5.130   0.236   0.021  0.00  0.00    +0.000 C 
ATOM     21  C16 UNL     1      -4.604  -1.187   0.206  0.00  0.00    +0.000 C 
ATOM     22  C17 UNL     1      -3.160  -1.368  -0.261  0.00  0.00    +0.000 C 
ENDBRANCH  16  17
ENDBRANCH  15  16
ENDBRANCH   3  15
TORSDOF 4
