REMARK  Name = /home/anacleto/Desktop/manuscript_Mpro/naturecomm/supplementary_file_S2/6-chemical-library/molecular_docking/3D_ligand_structure/1659.pdb
REMARK  3 active torsions:
REMARK  status: ('A' for Active; 'I' for Inactive)
REMARK    1  A    between atoms: C5_6  and  C6_7
REMARK    2  A    between atoms: C6_7  and  C7_8
REMARK    3  A    between atoms: N2_10  and  C8_11
REMARK                            x       y       z     vdW  Elec       q    Type
REMARK                         _______ _______ _______ _____ _____    ______ ____
ROOT
ATOM      1  C7  UNL     1       1.277  -1.284   1.271  0.00  0.00    +0.000 C 
ATOM      2  O1  UNL     1       1.359  -2.505   1.367  0.00  0.00    +0.000 OA
ATOM      3  N2  UNL     1       0.211  -0.646   0.682  0.00  0.00    +0.000 N 
ATOM      4  H7  UNL     1       0.155   0.365   0.706  0.00  0.00    +0.000 HD
ENDROOT
BRANCH   3   5
ATOM      5  C8  UNL     1      -0.904  -1.373   0.097  0.00  0.00    +0.000 C 
ATOM      6  C9  UNL     1      -1.897  -1.770   1.188  0.00  0.00    +0.000 C 
ATOM      7  C10 UNL     1      -3.180  -2.240   0.532  0.00  0.00    +0.000 C 
ATOM      8  O2  UNL     1      -3.812  -1.181  -0.191  0.00  0.00    +0.000 OA
ATOM      9  C11 UNL     1      -2.983  -0.517  -1.056  0.00  0.00    +0.000 A 
ATOM     10  C12 UNL     1      -1.586  -0.559  -0.978  0.00  0.00    +0.000 A 
ATOM     11  C13 UNL     1      -3.617   0.250  -2.035  0.00  0.00    +0.000 A 
ATOM     12  C14 UNL     1      -2.862   0.952  -2.974  0.00  0.00    +0.000 A 
ATOM     13  C15 UNL     1      -1.471   0.886  -2.934  0.00  0.00    +0.000 A 
ATOM     14  C16 UNL     1      -0.836   0.132  -1.946  0.00  0.00    +0.000 A 
ENDBRANCH   3   5
BRANCH   1  15
ATOM     15  C6  UNL     1       2.341  -0.358   1.836  0.00  0.00    +0.000 C 
BRANCH  15  21
ATOM     16  C1  UNL     1       3.349   0.333  -0.371  0.00  0.00    +0.000 A 
ATOM     17  N1  UNL     1       3.768   1.222  -1.298  0.00  0.00    +0.000 NA
ATOM     18  C2  UNL     1       3.663   2.529  -0.980  0.00  0.00    +0.000 A 
ATOM     19  C3  UNL     1       3.154   2.989   0.222  0.00  0.00    +0.000 A 
ATOM     20  C4  UNL     1       2.722   2.053   1.157  0.00  0.00    +0.000 A 
ATOM     21  C5  UNL     1       2.809   0.690   0.862  0.00  0.00    +0.000 A 
ENDBRANCH  15  21
ENDBRANCH   1  15
TORSDOF 3
