REMARK  Name = /home/anacleto/Desktop/manuscript_Mpro/naturecomm/supplementary_file_S2/6-chemical-library/molecular_docking/3D_ligand_structure/1663.pdb
REMARK  3 active torsions:
REMARK  status: ('A' for Active; 'I' for Inactive)
REMARK    1  A    between atoms: C4_8  and  C5_9
REMARK    2  A    between atoms: C5_9  and  N3_10
REMARK    3  A    between atoms: N3_10  and  C6_11
REMARK                            x       y       z     vdW  Elec       q    Type
REMARK                         _______ _______ _______ _____ _____    ______ ____
ROOT
ATOM      1  N3  UNL     1      -0.218  -0.339  -0.047  0.00  0.00    +0.000 N 
ATOM      2  H6  UNL     1      -0.345   0.350  -0.792  0.00  0.00    +0.000 HD
ENDROOT
BRANCH   1   3
ATOM      3  C6  UNL     1       1.128  -0.770  -0.059  0.00  0.00    +0.000 A 
ATOM      4  C7  UNL     1       1.520  -2.094   0.175  0.00  0.00    +0.000 A 
ATOM      5  N4  UNL     1       2.794  -2.547   0.200  0.00  0.00    +0.000 NA
ATOM      6  C8  UNL     1       3.756  -1.623   0.008  0.00  0.00    +0.000 A 
ATOM      7  C9  UNL     1       3.521  -0.264  -0.192  0.00  0.00    +0.000 A 
ATOM      8  C10 UNL     1       2.178   0.182  -0.210  0.00  0.00    +0.000 A 
ATOM      9  C11 UNL     1       4.583   0.643  -0.361  0.00  0.00    +0.000 A 
ATOM     10  C12 UNL     1       4.336   2.003  -0.535  0.00  0.00    +0.000 A 
ATOM     11  C13 UNL     1       3.027   2.468  -0.537  0.00  0.00    +0.000 A 
ATOM     12  C14 UNL     1       1.966   1.573  -0.374  0.00  0.00    +0.000 A 
ENDBRANCH   1   3
BRANCH   1  13
ATOM     13  C5  UNL     1      -1.295  -1.322  -0.083  0.00  0.00    +0.000 C 
BRANCH  13  21
ATOM     14  C1  UNL     1      -3.351  -0.563   1.149  0.00  0.00    +0.000 A 
ATOM     15  N1  UNL     1      -4.553   0.086   1.178  0.00  0.00    +0.000 N 
ATOM     16  C2  UNL     1      -5.097   0.725   0.098  0.00  0.00    +0.000 A 
ATOM     17  O1  UNL     1      -6.173   1.308   0.160  0.00  0.00    +0.000 OA
ATOM     18  N2  UNL     1      -4.359   0.667  -1.049  0.00  0.00    +0.000 N 
ATOM     19  C3  UNL     1      -3.129   0.083  -1.170  0.00  0.00    +0.000 A 
ATOM     20  O2  UNL     1      -2.484   0.132  -2.213  0.00  0.00    +0.000 OA
ATOM     21  C4  UNL     1      -2.604  -0.604   0.037  0.00  0.00    +0.000 A 
ATOM     22  H2  UNL     1      -5.099   0.124   2.032  0.00  0.00    +0.000 HD
ATOM     23  H3  UNL     1      -4.727   1.150  -1.854  0.00  0.00    +0.000 HD
ENDBRANCH  13  21
ENDBRANCH   1  13
TORSDOF 3
