REMARK  Name = /home/anacleto/Desktop/manuscript_Mpro/naturecomm/supplementary_file_S2/6-chemical-library/molecular_docking/3D_ligand_structure/1666.pdb
REMARK  3 active torsions:
REMARK  status: ('A' for Active; 'I' for Inactive)
REMARK    1  A    between atoms: C6_6  and  C7_7
REMARK    2  A    between atoms: C7_7  and  C8_8
REMARK    3  A    between atoms: N1_10  and  C9_11
REMARK                            x       y       z     vdW  Elec       q    Type
REMARK                         _______ _______ _______ _____ _____    ______ ____
ROOT
ATOM      1  C8  UNL     1       0.723   1.031   0.526  0.00  0.00    +0.000 C 
ATOM      2  O1  UNL     1       0.183   2.034   0.069  0.00  0.00    +0.000 OA
ATOM      3  N1  UNL     1       0.316  -0.282   0.315  0.00  0.00    +0.000 N 
ATOM      4  H8  UNL     1       1.096  -0.931   0.291  0.00  0.00    +0.000 HD
ENDROOT
BRANCH   3   5
ATOM      5  C9  UNL     1      -0.768  -0.619  -0.532  0.00  0.00    +0.000 A 
ATOM      6  C10 UNL     1      -0.517  -1.538  -1.556  0.00  0.00    +0.000 A 
ATOM      7  N2  UNL     1      -1.426  -1.954  -2.460  0.00  0.00    +0.000 NA
ATOM      8  C11 UNL     1      -2.666  -1.438  -2.321  0.00  0.00    +0.000 A 
ATOM      9  C12 UNL     1      -3.072  -0.584  -1.289  0.00  0.00    +0.000 A 
ATOM     10  C13 UNL     1      -2.085  -0.141  -0.381  0.00  0.00    +0.000 A 
ATOM     11  N3  UNL     1      -4.393  -0.103  -1.264  0.00  0.00    +0.000 N 
ATOM     12  C14 UNL     1      -4.854   0.481  -0.014  0.00  0.00    +0.000 C 
ATOM     13  C15 UNL     1      -3.817   1.443   0.531  0.00  0.00    +0.000 C 
ATOM     14  C16 UNL     1      -2.525   0.683   0.809  0.00  0.00    +0.000 C 
ATOM     15  H11 UNL     1      -5.057  -0.752  -1.679  0.00  0.00    +0.000 HD
ENDBRANCH   3   5
BRANCH   1  16
ATOM     16  C7  UNL     1       1.958   1.139   1.410  0.00  0.00    +0.000 C 
BRANCH  16  22
ATOM     17  C1  UNL     1       3.772  -0.620   1.559  0.00  0.00    +0.000 A 
ATOM     18  C2  UNL     1       4.873  -1.291   1.023  0.00  0.00    +0.000 A 
ATOM     19  C3  UNL     1       5.375  -0.926  -0.225  0.00  0.00    +0.000 A 
ATOM     20  C4  UNL     1       4.780   0.113  -0.937  0.00  0.00    +0.000 A 
ATOM     21  C5  UNL     1       3.681   0.787  -0.403  0.00  0.00    +0.000 A 
ATOM     22  C6  UNL     1       3.161   0.420   0.846  0.00  0.00    +0.000 A 
ENDBRANCH  16  22
ENDBRANCH   1  16
TORSDOF 3
