REMARK  Name = /home/anacleto/Desktop/manuscript_Mpro/naturecomm/supplementary_file_S2/6-chemical-library/molecular_docking/3D_ligand_structure/1671.pdb
REMARK  4 active torsions:
REMARK  status: ('A' for Active; 'I' for Inactive)
REMARK    1  A    between atoms: N1_7  and  C7_10
REMARK    2  A    between atoms: C7_10  and  C8_11
REMARK    3  A    between atoms: N4_13  and  C9_14
REMARK    4  A    between atoms: C9_14  and  C10_15
REMARK                            x       y       z     vdW  Elec       q    Type
REMARK                         _______ _______ _______ _____ _____    ______ ____
ROOT
ATOM      1  C8  UNL     1      -0.091  -0.427  -2.366  0.00  0.00    +0.000 C 
ATOM      2  O1  UNL     1      -0.352  -1.543  -2.809  0.00  0.00    +0.000 OA
ATOM      3  N4  UNL     1      -1.034   0.409  -1.796  0.00  0.00    +0.000 N 
ATOM      4  H7  UNL     1      -0.734   1.305  -1.410  0.00  0.00    +0.000 HD
ENDROOT
BRANCH   1   5
ATOM      5  C7  UNL     1       1.307   0.144  -2.419  0.00  0.00    +0.000 C 
BRANCH   5  12
ATOM      6  C1  UNL     1       3.360  -0.629   1.923  0.00  0.00    +0.000 A 
ATOM      7  C2  UNL     1       3.811  -1.935   1.712  0.00  0.00    +0.000 A 
ATOM      8  C3  UNL     1       3.599  -2.579   0.490  0.00  0.00    +0.000 A 
ATOM      9  C4  UNL     1       2.937  -1.944  -0.566  0.00  0.00    +0.000 A 
ATOM     10  C5  UNL     1       2.501  -0.640  -0.334  0.00  0.00    +0.000 A 
ATOM     11  C6  UNL     1       2.693   0.023   0.875  0.00  0.00    +0.000 A 
ATOM     12  N1  UNL     1       1.828   0.289  -1.086  0.00  0.00    +0.000 N 
ATOM     13  N2  UNL     1       1.620   1.441  -0.408  0.00  0.00    +0.000 NA
ATOM     14  N3  UNL     1       2.146   1.285   0.802  0.00  0.00    +0.000 NA
ENDBRANCH   5  12
ENDBRANCH   1   5
BRANCH   3  15
ATOM     15  C9  UNL     1      -2.381  -0.033  -1.506  0.00  0.00    +0.000 C 
BRANCH  15  16
ATOM     16  C10 UNL     1      -2.939   0.687  -0.313  0.00  0.00    +0.000 A 
ATOM     17  C11 UNL     1      -2.215   0.794   0.884  0.00  0.00    +0.000 A 
ATOM     18  C12 UNL     1      -2.760   1.474   1.968  0.00  0.00    +0.000 A 
ATOM     19  C13 UNL     1      -4.029   2.014   1.829  0.00  0.00    +0.000 A 
ATOM     20  N5  UNL     1      -4.770   1.912   0.703  0.00  0.00    +0.000 NA
ATOM     21  C14 UNL     1      -4.213   1.249  -0.338  0.00  0.00    +0.000 A 
ENDBRANCH  15  16
ENDBRANCH   3  15
TORSDOF 4
