REMARK  Name = /home/anacleto/Desktop/manuscript_Mpro/naturecomm/supplementary_file_S2/6-chemical-library/molecular_docking/3D_ligand_structure/1673.pdb
REMARK  3 active torsions:
REMARK  status: ('A' for Active; 'I' for Inactive)
REMARK    1  A    between atoms: C5_6  and  N2_7
REMARK    2  A    between atoms: C6_8  and  C7_10
REMARK    3  A    between atoms: C7_10  and  N3_11
REMARK                            x       y       z     vdW  Elec       q    Type
REMARK                         _______ _______ _______ _____ _____    ______ ____
ROOT
ATOM      1  C7  UNL     1      -0.500  -2.230  -0.377  0.00  0.00    +0.000 C 
ENDROOT
BRANCH   1   2
ATOM      2  N3  UNL     1      -1.425  -1.257   0.162  0.00  0.00    +0.000 N 
ATOM      3  C8  UNL     1      -1.276  -0.664   1.401  0.00  0.00    +0.000 C 
ATOM      4  O2  UNL     1      -0.448  -0.926   2.253  0.00  0.00    +0.000 OA
ATOM      5  C9  UNL     1      -2.427  -0.605  -0.666  0.00  0.00    +0.000 C 
ATOM      6  C10 UNL     1      -2.989   0.413   0.268  0.00  0.00    +0.000 A 
ATOM      7  C11 UNL     1      -2.308   0.378   1.487  0.00  0.00    +0.000 A 
ATOM      8  C12 UNL     1      -4.025   1.307   0.064  0.00  0.00    +0.000 A 
ATOM      9  C13 UNL     1      -4.358   2.174   1.110  0.00  0.00    +0.000 A 
ATOM     10  C14 UNL     1      -3.661   2.134   2.334  0.00  0.00    +0.000 A 
ATOM     11  C15 UNL     1      -2.618   1.225   2.532  0.00  0.00    +0.000 A 
ENDBRANCH   1   2
BRANCH   1  13
ATOM     12  N2  UNL     1       1.694  -1.208  -0.288  0.00  0.00    +0.000 N 
ATOM     13  C6  UNL     1       0.629  -1.503  -1.109  0.00  0.00    +0.000 C 
ATOM     14  O1  UNL     1       0.501  -1.175  -2.289  0.00  0.00    +0.000 OA
ATOM     15  H5  UNL     1       1.640  -1.450   0.698  0.00  0.00    +0.000 HD
BRANCH  12  21
ATOM     16  N1  UNL     1       3.761  -0.502   0.420  0.00  0.00    +0.000 NA
ATOM     17  C1  UNL     1       4.957   0.082   0.192  0.00  0.00    +0.000 A 
ATOM     18  C2  UNL     1       5.322   0.639  -1.023  0.00  0.00    +0.000 A 
ATOM     19  C3  UNL     1       4.401   0.593  -2.064  0.00  0.00    +0.000 A 
ATOM     20  C4  UNL     1       3.168  -0.026  -1.862  0.00  0.00    +0.000 A 
ATOM     21  C5  UNL     1       2.884  -0.558  -0.609  0.00  0.00    +0.000 A 
ENDBRANCH  12  21
ENDBRANCH   1  13
TORSDOF 3
