REMARK  Name = /home/anacleto/Desktop/manuscript_Mpro/naturecomm/supplementary_file_S2/6-chemical-library/molecular_docking/3D_ligand_structure/1675.pdb
REMARK  3 active torsions:
REMARK  status: ('A' for Active; 'I' for Inactive)
REMARK    1  A    between atoms: C5_6  and  N2_7
REMARK    2  A    between atoms: C6_8  and  C7_10
REMARK    3  A    between atoms: C7_10  and  N3_11
REMARK                            x       y       z     vdW  Elec       q    Type
REMARK                         _______ _______ _______ _____ _____    ______ ____
ROOT
ATOM      1  C7  UNL     1       0.227   2.111   1.233  0.00  0.00    +0.000 C 
ENDROOT
BRANCH   1   2
ATOM      2  N3  UNL     1      -0.960   1.343   0.903  0.00  0.00    +0.000 N 
ATOM      3  C8  UNL     1      -1.178   0.049   1.335  0.00  0.00    +0.000 C 
ATOM      4  O2  UNL     1      -0.466  -0.603   2.076  0.00  0.00    +0.000 OA
ATOM      5  C9  UNL     1      -1.867   1.740  -0.161  0.00  0.00    +0.000 C 
ATOM      6  C10 UNL     1      -2.802   0.577  -0.228  0.00  0.00    +0.000 A 
ATOM      7  C11 UNL     1      -2.389  -0.422   0.655  0.00  0.00    +0.000 A 
ATOM      8  C12 UNL     1      -3.924   0.389  -1.015  0.00  0.00    +0.000 A 
ATOM      9  C13 UNL     1      -4.618  -0.821  -0.894  0.00  0.00    +0.000 A 
ATOM     10  C14 UNL     1      -4.186  -1.820   0.000  0.00  0.00    +0.000 A 
ATOM     11  C15 UNL     1      -3.052  -1.626   0.789  0.00  0.00    +0.000 A 
ENDBRANCH   1   2
BRANCH   1  13
ATOM     12  N2  UNL     1       1.833   0.428   0.544  0.00  0.00    +0.000 N 
ATOM     13  C6  UNL     1       1.401   1.727   0.327  0.00  0.00    +0.000 C 
ATOM     14  O1  UNL     1       1.867   2.532  -0.475  0.00  0.00    +0.000 OA
ATOM     15  H5  UNL     1       1.295  -0.110   1.225  0.00  0.00    +0.000 HD
BRANCH  12  21
ATOM     16  C1  UNL     1       3.707   0.321  -1.063  0.00  0.00    +0.000 A 
ATOM     17  C2  UNL     1       4.705  -0.460  -1.625  0.00  0.00    +0.000 A 
ATOM     18  N1  UNL     1       4.928  -1.751  -1.299  0.00  0.00    +0.000 NA
ATOM     19  C3  UNL     1       4.115  -2.284  -0.365  0.00  0.00    +0.000 A 
ATOM     20  C4  UNL     1       3.092  -1.585   0.254  0.00  0.00    +0.000 A 
ATOM     21  C5  UNL     1       2.881  -0.253  -0.103  0.00  0.00    +0.000 A 
ENDBRANCH  12  21
ENDBRANCH   1  13
TORSDOF 3
