REMARK  Name = /home/anacleto/Desktop/manuscript_Mpro/naturecomm/supplementary_file_S2/6-chemical-library/molecular_docking/3D_ligand_structure/168.pdb
REMARK  0 active torsions:
REMARK  status: ('A' for Active; 'I' for Inactive)
REMARK                            x       y       z     vdW  Elec       q    Type
REMARK                         _______ _______ _______ _____ _____    ______ ____
ROOT
ATOM      1  C1  UNL     1       1.716   1.354  -0.614  0.00  0.00    +0.000 A 
ATOM      2  N1  UNL     1       2.928   0.760  -0.568  0.00  0.00    +0.000 NA
ATOM      3  C2  UNL     1       2.940  -0.505  -0.119  0.00  0.00    +0.000 A 
ATOM      4  N2  UNL     1       1.868  -1.212   0.279  0.00  0.00    +0.000 NA
ATOM      5  C3  UNL     1       0.673  -0.581   0.209  0.00  0.00    +0.000 A 
ATOM      6  C4  UNL     1       0.551   0.724  -0.232  0.00  0.00    +0.000 A 
ATOM      7  C5  UNL     1      -0.532  -1.352   0.675  0.00  0.00    +0.000 C 
ATOM      8  C6  UNL     1      -1.794  -0.871  -0.032  0.00  0.00    +0.000 C 
ATOM      9  C7  UNL     1      -1.977   0.631   0.146  0.00  0.00    +0.000 C 
ATOM     10  C8  UNL     1      -0.752   1.405  -0.292  0.00  0.00    +0.000 C 
ATOM     11  O1  UNL     1      -0.815   2.580  -0.642  0.00  0.00    +0.000 OA
ENDROOT
TORSDOF 0
