REMARK  Name = /home/anacleto/Desktop/manuscript_Mpro/naturecomm/supplementary_file_S2/6-chemical-library/molecular_docking/3D_ligand_structure/1682.pdb
REMARK  4 active torsions:
REMARK  status: ('A' for Active; 'I' for Inactive)
REMARK    1  A    between atoms: N1_7  and  N4_10
REMARK    2  A    between atoms: C7_11  and  C8_13
REMARK    3  A    between atoms: C8_13  and  C9_14
REMARK    4  A    between atoms: C9_14  and  C10_15
REMARK                            x       y       z     vdW  Elec       q    Type
REMARK                         _______ _______ _______ _____ _____    ______ ____
ROOT
ATOM      1  N4  UNL     1      -1.285  -0.476   0.960  0.00  0.00    +0.000 N 
ATOM      2  C7  UNL     1      -0.408   0.346   0.288  0.00  0.00    +0.000 C 
ATOM      3  O1  UNL     1      -0.743   1.304  -0.398  0.00  0.00    +0.000 OA
ATOM      4  H5  UNL     1      -0.949  -0.988   1.763  0.00  0.00    +0.000 HD
ENDROOT
BRANCH   1  11
ATOM      5  C1  UNL     1      -5.927   0.329   0.473  0.00  0.00    +0.000 A 
ATOM      6  C2  UNL     1      -6.068  -0.134  -0.842  0.00  0.00    +0.000 A 
ATOM      7  C3  UNL     1      -4.964  -0.596  -1.564  0.00  0.00    +0.000 A 
ATOM      8  C4  UNL     1      -3.682  -0.612  -1.002  0.00  0.00    +0.000 A 
ATOM      9  C5  UNL     1      -3.567  -0.142   0.312  0.00  0.00    +0.000 A 
ATOM     10  C6  UNL     1      -4.650   0.318   1.052  0.00  0.00    +0.000 A 
ATOM     11  N1  UNL     1      -2.522   0.016   1.185  0.00  0.00    +0.000 N 
ATOM     12  N2  UNL     1      -2.927   0.461   2.384  0.00  0.00    +0.000 NA
ATOM     13  N3  UNL     1      -4.234   0.686   2.305  0.00  0.00    +0.000 NA
ENDBRANCH   1  11
BRANCH   2  14
ATOM     14  C8  UNL     1       1.032  -0.090   0.461  0.00  0.00    +0.000 C 
BRANCH  14  15
ATOM     15  C9  UNL     1       1.996   0.819  -0.297  0.00  0.00    +0.000 C 
BRANCH  15  16
ATOM     16  C10 UNL     1       3.425   0.377  -0.110  0.00  0.00    +0.000 A 
ATOM     17  C11 UNL     1       4.188   0.870   0.957  0.00  0.00    +0.000 A 
ATOM     18  C12 UNL     1       5.503   0.442   1.143  0.00  0.00    +0.000 A 
ATOM     19  C13 UNL     1       6.066  -0.484   0.267  0.00  0.00    +0.000 A 
ATOM     20  C14 UNL     1       5.315  -0.984  -0.795  0.00  0.00    +0.000 A 
ATOM     21  C15 UNL     1       4.000  -0.558  -0.983  0.00  0.00    +0.000 A 
ENDBRANCH  15  16
ENDBRANCH  14  15
ENDBRANCH   2  14
TORSDOF 4
