REMARK  Name = /home/anacleto/Desktop/manuscript_Mpro/naturecomm/supplementary_file_S2/6-chemical-library/molecular_docking/3D_ligand_structure/1684.pdb
REMARK  4 active torsions:
REMARK  status: ('A' for Active; 'I' for Inactive)
REMARK    1  A    between atoms: N1_7  and  C8_10
REMARK    2  A    between atoms: C8_10  and  C9_11
REMARK    3  A    between atoms: N3_13  and  C10_14
REMARK    4  A    between atoms: C10_14  and  C11_15
REMARK                            x       y       z     vdW  Elec       q    Type
REMARK                         _______ _______ _______ _____ _____    ______ ____
ROOT
ATOM      1  C9  UNL     1      -0.219  -2.161  -1.457  0.00  0.00    +0.000 C 
ATOM      2  O1  UNL     1       0.142  -1.950  -2.614  0.00  0.00    +0.000 OA
ATOM      3  N3  UNL     1      -1.486  -1.862  -0.996  0.00  0.00    +0.000 N 
ATOM      4  H8  UNL     1      -1.579  -1.731   0.008  0.00  0.00    +0.000 HD
ENDROOT
BRANCH   1   5
ATOM      5  C8  UNL     1       0.694  -2.830  -0.451  0.00  0.00    +0.000 C 
BRANCH   5  12
ATOM      6  C1  UNL     1       2.058   0.827   2.468  0.00  0.00    +0.000 A 
ATOM      7  C2  UNL     1       2.600   1.668   1.487  0.00  0.00    +0.000 A 
ATOM      8  C3  UNL     1       2.610   1.284   0.145  0.00  0.00    +0.000 A 
ATOM      9  C4  UNL     1       2.084   0.053  -0.263  0.00  0.00    +0.000 A 
ATOM     10  C5  UNL     1       1.546  -0.771   0.734  0.00  0.00    +0.000 A 
ATOM     11  C6  UNL     1       1.523  -0.409   2.079  0.00  0.00    +0.000 A 
ATOM     12  N1  UNL     1       0.942  -2.005   0.714  0.00  0.00    +0.000 N 
ATOM     13  C7  UNL     1       0.609  -2.335   1.999  0.00  0.00    +0.000 A 
ATOM     14  N2  UNL     1       0.943  -1.391   2.846  0.00  0.00    +0.000 NA
ENDBRANCH   5  12
ENDBRANCH   1   5
BRANCH   3  15
ATOM     15  C10 UNL     1      -2.311  -0.922  -1.739  0.00  0.00    +0.000 C 
BRANCH  15  16
ATOM     16  C11 UNL     1      -2.041   0.486  -1.257  0.00  0.00    +0.000 A 
ATOM     17  C12 UNL     1      -1.977   1.550  -2.152  0.00  0.00    +0.000 A 
ATOM     18  C13 UNL     1      -1.679   2.818  -1.661  0.00  0.00    +0.000 A 
ATOM     19  C14 UNL     1      -1.458   2.988  -0.299  0.00  0.00    +0.000 A 
ATOM     20  C15 UNL     1      -1.552   1.880   0.525  0.00  0.00    +0.000 A 
ATOM     21  N4  UNL     1      -1.858   0.641   0.082  0.00  0.00    +0.000 NA
ENDBRANCH  15  16
ENDBRANCH   3  15
TORSDOF 4
