REMARK  Name = /home/anacleto/Desktop/manuscript_Mpro/naturecomm/supplementary_file_S2/6-chemical-library/molecular_docking/3D_ligand_structure/170.pdb
REMARK  0 active torsions:
REMARK  status: ('A' for Active; 'I' for Inactive)
REMARK                            x       y       z     vdW  Elec       q    Type
REMARK                         _______ _______ _______ _____ _____    ______ ____
ROOT
ATOM      1  C1  UNL     1      -1.611  -0.821  -0.689  0.00  0.00    +0.000 C 
ATOM      2  C2  UNL     1      -2.417   0.442  -0.340  0.00  0.00    +0.000 C 
ATOM      3  N1  UNL     1      -1.398   1.475  -0.220  0.00  0.00    +0.000 N 
ATOM      4  C3  UNL     1      -0.157   0.940   0.010  0.00  0.00    +0.000 C 
ATOM      5  C4  UNL     1      -0.210  -0.482  -0.249  0.00  0.00    +0.000 C 
ATOM      6  C5  UNL     1       0.948   1.553   0.437  0.00  0.00    +0.000 C 
ATOM      7  C6  UNL     1       2.178   0.758   0.646  0.00  0.00    +0.000 C 
ATOM      8  O1  UNL     1       3.205   1.299   1.032  0.00  0.00    +0.000 OA
ATOM      9  C7  UNL     1       2.112  -0.753   0.374  0.00  0.00    +0.000 C 
ATOM     10  C8  UNL     1       0.819  -1.317  -0.086  0.00  0.00    +0.000 C 
ATOM     11  N2  UNL     1       3.164  -1.488   0.551  0.00  0.00    +0.000 NA
ATOM     12  H5  UNL     1      -1.630   2.320   0.296  0.00  0.00    +0.000 HD
ATOM     13  H8  UNL     1       2.979  -2.470   0.333  0.00  0.00    +0.000 HD
ENDROOT
TORSDOF 0
