REMARK  Name = /home/anacleto/Desktop/manuscript_Mpro/naturecomm/supplementary_file_S2/6-chemical-library/molecular_docking/3D_ligand_structure/1706.pdb
REMARK  3 active torsions:
REMARK  status: ('A' for Active; 'I' for Inactive)
REMARK    1  A    between atoms: C5_6  and  N2_7
REMARK    2  A    between atoms: C6_8  and  C7_10
REMARK    3  A    between atoms: C7_10  and  C8_11
REMARK                            x       y       z     vdW  Elec       q    Type
REMARK                         _______ _______ _______ _____ _____    ______ ____
ROOT
ATOM      1  C7  UNL     1      -0.544  -1.871  -1.131  0.00  0.00    +0.000 C 
ENDROOT
BRANCH   1   2
ATOM      2  C8  UNL     1      -1.422  -0.644  -1.197  0.00  0.00    +0.000 A 
ATOM      3  C9  UNL     1      -1.484   0.046  -2.410  0.00  0.00    +0.000 A 
ATOM      4  N3  UNL     1      -2.195   1.172  -2.611  0.00  0.00    +0.000 NA
ATOM      5  C10 UNL     1      -2.883   1.646  -1.552  0.00  0.00    +0.000 A 
ATOM      6  C11 UNL     1      -2.898   1.058  -0.287  0.00  0.00    +0.000 A 
ATOM      7  C12 UNL     1      -2.150  -0.126  -0.094  0.00  0.00    +0.000 A 
ATOM      8  C13 UNL     1      -3.631   1.623   0.772  0.00  0.00    +0.000 A 
ATOM      9  C14 UNL     1      -3.633   1.029   2.031  0.00  0.00    +0.000 A 
ATOM     10  C15 UNL     1      -2.906  -0.135   2.244  0.00  0.00    +0.000 A 
ATOM     11  C16 UNL     1      -2.175  -0.706   1.197  0.00  0.00    +0.000 A 
ENDBRANCH   1   2
BRANCH   1  13
ATOM     12  N2  UNL     1       1.284  -0.650  -0.069  0.00  0.00    +0.000 N 
ATOM     13  C6  UNL     1       0.947  -1.562  -1.054  0.00  0.00    +0.000 C 
ATOM     14  O1  UNL     1       1.732  -2.146  -1.796  0.00  0.00    +0.000 OA
ATOM     15  H5  UNL     1       0.520  -0.214   0.435  0.00  0.00    +0.000 HD
BRANCH  12  21
ATOM     16  C1  UNL     1       2.699   0.773   1.270  0.00  0.00    +0.000 A 
ATOM     17  N1  UNL     1       3.872   1.291   1.706  0.00  0.00    +0.000 NA
ATOM     18  C2  UNL     1       4.990   0.822   1.114  0.00  0.00    +0.000 A 
ATOM     19  C3  UNL     1       4.982  -0.138   0.117  0.00  0.00    +0.000 A 
ATOM     20  C4  UNL     1       3.756  -0.654  -0.306  0.00  0.00    +0.000 A 
ATOM     21  C5  UNL     1       2.576  -0.198   0.274  0.00  0.00    +0.000 A 
ENDBRANCH  12  21
ENDBRANCH   1  13
TORSDOF 3
