REMARK  Name = /home/anacleto/Desktop/manuscript_Mpro/naturecomm/supplementary_file_S2/6-chemical-library/molecular_docking/3D_ligand_structure/1707.pdb
REMARK  3 active torsions:
REMARK  status: ('A' for Active; 'I' for Inactive)
REMARK    1  A    between atoms: C5_6  and  C6_7
REMARK    2  A    between atoms: C6_7  and  C7_8
REMARK    3  A    between atoms: N2_10  and  C8_11
REMARK                            x       y       z     vdW  Elec       q    Type
REMARK                         _______ _______ _______ _____ _____    ______ ____
ROOT
ATOM      1  C7  UNL     1      -1.046   2.160   0.601  0.00  0.00    +0.000 C 
ATOM      2  O1  UNL     1      -0.884   3.078   1.400  0.00  0.00    +0.000 OA
ATOM      3  N2  UNL     1      -0.117   1.183   0.291  0.00  0.00    +0.000 N 
ATOM      4  H7  UNL     1      -0.426   0.462  -0.344  0.00  0.00    +0.000 HD
ENDROOT
BRANCH   3   5
ATOM      5  C8  UNL     1       1.196   1.037   0.814  0.00  0.00    +0.000 A 
ATOM      6  C9  UNL     1       1.781   1.984   1.657  0.00  0.00    +0.000 A 
ATOM      7  N3  UNL     1       3.036   1.901   2.158  0.00  0.00    +0.000 NA
ATOM      8  C10 UNL     1       3.753   0.816   1.807  0.00  0.00    +0.000 A 
ATOM      9  C11 UNL     1       3.290  -0.204   0.979  0.00  0.00    +0.000 A 
ATOM     10  C12 UNL     1       1.975  -0.107   0.462  0.00  0.00    +0.000 A 
ATOM     11  C13 UNL     1       4.112  -1.303   0.668  0.00  0.00    +0.000 A 
ATOM     12  C14 UNL     1       3.651  -2.328  -0.153  0.00  0.00    +0.000 A 
ATOM     13  C15 UNL     1       2.364  -2.266  -0.667  0.00  0.00    +0.000 A 
ATOM     14  C16 UNL     1       1.539  -1.177  -0.366  0.00  0.00    +0.000 A 
ENDBRANCH   3   5
BRANCH   1  15
ATOM     15  C6  UNL     1      -2.341   2.064  -0.198  0.00  0.00    +0.000 C 
BRANCH  15  21
ATOM     16  C1  UNL     1      -3.254  -0.063   0.808  0.00  0.00    +0.000 A 
ATOM     17  N1  UNL     1      -3.742  -1.321   0.764  0.00  0.00    +0.000 NA
ATOM     18  C2  UNL     1      -3.913  -1.870  -0.457  0.00  0.00    +0.000 A 
ATOM     19  C3  UNL     1      -3.609  -1.219  -1.640  0.00  0.00    +0.000 A 
ATOM     20  C4  UNL     1      -3.097   0.073  -1.569  0.00  0.00    +0.000 A 
ATOM     21  C5  UNL     1      -2.905   0.673  -0.321  0.00  0.00    +0.000 A 
ENDBRANCH  15  21
ENDBRANCH   1  15
TORSDOF 3
