REMARK  Name = /home/anacleto/Desktop/manuscript_Mpro/naturecomm/supplementary_file_S2/6-chemical-library/molecular_docking/3D_ligand_structure/1709.pdb
REMARK  2 active torsions:
REMARK  status: ('A' for Active; 'I' for Inactive)
REMARK    1  A    between atoms: C6_6  and  N1_7
REMARK    2  A    between atoms: N2_10  and  C8_11
REMARK                            x       y       z     vdW  Elec       q    Type
REMARK                         _______ _______ _______ _____ _____    ______ ____
ROOT
ATOM      1  N1  UNL     1       1.882   0.432   0.112  0.00  0.00    +0.000 N 
ATOM      2  C7  UNL     1       0.924  -0.551  -0.098  0.00  0.00    +0.000 C 
ATOM      3  O1  UNL     1       1.162  -1.701  -0.438  0.00  0.00    +0.000 OA
ATOM      4  N2  UNL     1      -0.348  -0.045   0.133  0.00  0.00    +0.000 N 
ATOM      5  H6  UNL     1       1.550   1.341   0.390  0.00  0.00    +0.000 HD
ATOM      6  H7  UNL     1      -0.392   0.919   0.407  0.00  0.00    +0.000 HD
ENDROOT
BRANCH   4   7
ATOM      7  C8  UNL     1      -1.589  -0.730   0.027  0.00  0.00    +0.000 A 
ATOM      8  C9  UNL     1      -1.683  -2.073  -0.344  0.00  0.00    +0.000 A 
ATOM      9  N3  UNL     1      -2.841  -2.765  -0.458  0.00  0.00    +0.000 NA
ATOM     10  C10 UNL     1      -3.974  -2.089  -0.189  0.00  0.00    +0.000 A 
ATOM     11  C11 UNL     1      -4.025  -0.750   0.191  0.00  0.00    +0.000 A 
ATOM     12  C12 UNL     1      -2.808  -0.036   0.307  0.00  0.00    +0.000 A 
ATOM     13  C13 UNL     1      -5.260  -0.127   0.452  0.00  0.00    +0.000 A 
ATOM     14  C14 UNL     1      -5.317   1.210   0.832  0.00  0.00    +0.000 A 
ATOM     15  C15 UNL     1      -4.142   1.937   0.955  0.00  0.00    +0.000 A 
ATOM     16  C16 UNL     1      -2.909   1.327   0.697  0.00  0.00    +0.000 A 
ENDBRANCH   4   7
BRANCH   1  22
ATOM     17  C1  UNL     1       4.045   1.463   0.250  0.00  0.00    +0.000 A 
ATOM     18  C2  UNL     1       5.439   1.437   0.146  0.00  0.00    +0.000 A 
ATOM     19  C3  UNL     1       6.086   0.263  -0.229  0.00  0.00    +0.000 A 
ATOM     20  C4  UNL     1       5.339  -0.881  -0.498  0.00  0.00    +0.000 A 
ATOM     21  C5  UNL     1       3.944  -0.855  -0.393  0.00  0.00    +0.000 A 
ATOM     22  C6  UNL     1       3.283   0.316  -0.019  0.00  0.00    +0.000 A 
ENDBRANCH   1  22
TORSDOF 2
