REMARK  Name = /home/anacleto/Desktop/manuscript_Mpro/naturecomm/supplementary_file_S2/6-chemical-library/molecular_docking/3D_ligand_structure/1711.pdb
REMARK  2 active torsions:
REMARK  status: ('A' for Active; 'I' for Inactive)
REMARK    1  A    between atoms: C6_6  and  C7_7
REMARK    2  A    between atoms: C7_7  and  C8_8
REMARK                            x       y       z     vdW  Elec       q    Type
REMARK                         _______ _______ _______ _____ _____    ______ ____
ROOT
ATOM      1  C8  UNL     1       0.535   2.079  -1.390  0.00  0.00    +0.000 C 
ATOM      2  O1  UNL     1       0.407   3.300  -1.402  0.00  0.00    +0.000 OA
ATOM      3  N1  UNL     1      -0.239   1.170  -0.689  0.00  0.00    +0.000 N 
ATOM      4  C9  UNL     1      -1.315   1.481   0.167  0.00  0.00    +0.000 A 
ATOM      5  N2  UNL     1      -1.702   2.762   0.256  0.00  0.00    +0.000 NA
ATOM      6  C10 UNL     1      -2.721   3.029   1.071  0.00  0.00    +0.000 A 
ATOM      7  N3  UNL     1      -3.389   2.138   1.811  0.00  0.00    +0.000 NA
ATOM      8  C11 UNL     1      -3.001   0.864   1.714  0.00  0.00    +0.000 A 
ATOM      9  C12 UNL     1      -1.946   0.443   0.889  0.00  0.00    +0.000 A 
ATOM     10  C13 UNL     1      -3.684  -0.081   2.469  0.00  0.00    +0.000 A 
ATOM     11  C14 UNL     1      -3.363  -1.441   2.427  0.00  0.00    +0.000 A 
ATOM     12  C15 UNL     1      -2.321  -1.874   1.621  0.00  0.00    +0.000 A 
ATOM     13  C16 UNL     1      -1.615  -0.945   0.858  0.00  0.00    +0.000 A 
ATOM     14  H8  UNL     1       0.039   0.203  -0.743  0.00  0.00    +0.000 HD
ENDROOT
BRANCH   1  15
ATOM     15  C7  UNL     1       1.600   1.423  -2.264  0.00  0.00    +0.000 C 
BRANCH  15  21
ATOM     16  C1  UNL     1       3.044   0.418  -0.442  0.00  0.00    +0.000 A 
ATOM     17  C2  UNL     1       3.663  -0.675   0.165  0.00  0.00    +0.000 A 
ATOM     18  C3  UNL     1       3.570  -1.940  -0.414  0.00  0.00    +0.000 A 
ATOM     19  C4  UNL     1       2.861  -2.116  -1.601  0.00  0.00    +0.000 A 
ATOM     20  C5  UNL     1       2.237  -1.026  -2.208  0.00  0.00    +0.000 A 
ATOM     21  C6  UNL     1       2.313   0.249  -1.627  0.00  0.00    +0.000 A 
ENDBRANCH  15  21
ENDBRANCH   1  15
TORSDOF 2
