REMARK  Name = /home/anacleto/Desktop/manuscript_Mpro/naturecomm/supplementary_file_S2/6-chemical-library/molecular_docking/3D_ligand_structure/1712.pdb
REMARK  3 active torsions:
REMARK  status: ('A' for Active; 'I' for Inactive)
REMARK    1  A    between atoms: C6_6  and  C7_7
REMARK    2  A    between atoms: C7_7  and  C8_8
REMARK    3  A    between atoms: N1_10  and  C9_11
REMARK                            x       y       z     vdW  Elec       q    Type
REMARK                         _______ _______ _______ _____ _____    ______ ____
ROOT
ATOM      1  C8  UNL     1      -0.179  -2.171   1.041  0.00  0.00    +0.000 C 
ATOM      2  O1  UNL     1       0.156  -2.740   2.076  0.00  0.00    +0.000 OA
ATOM      3  N1  UNL     1       0.448  -1.063   0.495  0.00  0.00    +0.000 N 
ATOM      4  H8  UNL     1       0.027  -0.692  -0.344  0.00  0.00    +0.000 HD
ENDROOT
BRANCH   3   5
ATOM      5  C9  UNL     1       1.552  -0.341   1.025  0.00  0.00    +0.000 A 
ATOM      6  C10 UNL     1       2.228  -0.742   2.169  0.00  0.00    +0.000 A 
ATOM      7  N2  UNL     1       3.276  -0.067   2.679  0.00  0.00    +0.000 NA
ATOM      8  N3  UNL     1       3.707   1.062   2.056  0.00  0.00    +0.000 NA
ATOM      9  C11 UNL     1       3.106   1.508   0.945  0.00  0.00    +0.000 A 
ATOM     10  C12 UNL     1       2.004   0.839   0.372  0.00  0.00    +0.000 A 
ATOM     11  C13 UNL     1       3.594   2.668   0.352  0.00  0.00    +0.000 A 
ATOM     12  C14 UNL     1       3.028   3.198  -0.807  0.00  0.00    +0.000 A 
ATOM     13  C15 UNL     1       1.944   2.561  -1.387  0.00  0.00    +0.000 A 
ATOM     14  C16 UNL     1       1.434   1.398  -0.806  0.00  0.00    +0.000 A 
ENDBRANCH   3   5
BRANCH   1  15
ATOM     15  C7  UNL     1      -1.335  -2.716   0.206  0.00  0.00    +0.000 C 
BRANCH  15  21
ATOM     16  C1  UNL     1      -2.927  -0.755   0.312  0.00  0.00    +0.000 A 
ATOM     17  C2  UNL     1      -3.691   0.238  -0.301  0.00  0.00    +0.000 A 
ATOM     18  C3  UNL     1      -3.727   0.331  -1.692  0.00  0.00    +0.000 A 
ATOM     19  C4  UNL     1      -3.007  -0.573  -2.470  0.00  0.00    +0.000 A 
ATOM     20  C5  UNL     1      -2.243  -1.568  -1.860  0.00  0.00    +0.000 A 
ATOM     21  C6  UNL     1      -2.191  -1.663  -0.461  0.00  0.00    +0.000 A 
ENDBRANCH  15  21
ENDBRANCH   1  15
TORSDOF 3
