REMARK  Name = /home/anacleto/Desktop/manuscript_Mpro/naturecomm/supplementary_file_S2/6-chemical-library/molecular_docking/3D_ligand_structure/1735.pdb
REMARK  3 active torsions:
REMARK  status: ('A' for Active; 'I' for Inactive)
REMARK    1  A    between atoms: C6_6  and  C7_7
REMARK    2  A    between atoms: C7_7  and  C8_8
REMARK    3  A    between atoms: N1_10  and  C9_11
REMARK                            x       y       z     vdW  Elec       q    Type
REMARK                         _______ _______ _______ _____ _____    ______ ____
ROOT
ATOM      1  C8  UNL     1      -0.178  -0.833   0.767  0.00  0.00    +0.000 C 
ATOM      2  O1  UNL     1       0.307  -1.916   0.455  0.00  0.00    +0.000 OA
ATOM      3  N1  UNL     1       0.273   0.363   0.256  0.00  0.00    +0.000 N 
ATOM      4  H10 UNL     1      -0.268   1.196   0.466  0.00  0.00    +0.000 HD
ENDROOT
BRANCH   3   5
ATOM      5  C9  UNL     1       1.303   0.433  -0.820  0.00  0.00    +0.000 C 
ATOM      6  C10 UNL     1       2.212   1.718  -0.738  0.00  0.00    +0.000 C 
ATOM      7  O2  UNL     1       2.050   2.914  -0.688  0.00  0.00    +0.000 OA
ATOM      8  N2  UNL     1       3.308   0.942  -0.785  0.00  0.00    +0.000 N 
ATOM      9  C11 UNL     1       2.644  -0.333  -0.581  0.00  0.00    +0.000 C 
ATOM     10  C12 UNL     1       4.643   1.091  -0.886  0.00  0.00    +0.000 C 
ATOM     11  C13 UNL     1       5.430   0.034  -1.135  0.00  0.00    +0.000 C 
ATOM     12  C14 UNL     1       4.951  -1.373  -1.393  0.00  0.00    +0.000 C 
ATOM     13  S1  UNL     1       3.197  -1.451  -1.902  0.00  0.00    +0.000 S 
ENDBRANCH   3   5
BRANCH   1  14
ATOM     14  C7  UNL     1      -1.320  -0.700   1.765  0.00  0.00    +0.000 C 
BRANCH  14  20
ATOM     15  C1  UNL     1      -3.209  -1.271   0.128  0.00  0.00    +0.000 C 
ATOM     16  C2  UNL     1      -4.486  -0.799  -0.511  0.00  0.00    +0.000 C 
ATOM     17  C3  UNL     1      -5.035   0.401  -0.266  0.00  0.00    +0.000 C 
ATOM     18  C4  UNL     1      -4.436   1.402   0.677  0.00  0.00    +0.000 C 
ATOM     19  C5  UNL     1      -3.160   0.934   1.321  0.00  0.00    +0.000 C 
ATOM     20  C6  UNL     1      -2.593  -0.266   1.081  0.00  0.00    +0.000 C 
ENDBRANCH  14  20
ENDBRANCH   1  14
TORSDOF 3
