REMARK  Name = /home/anacleto/Desktop/manuscript_Mpro/naturecomm/supplementary_file_S2/6-chemical-library/molecular_docking/3D_ligand_structure/1746.pdb
REMARK  3 active torsions:
REMARK  status: ('A' for Active; 'I' for Inactive)
REMARK    1  A    between atoms: C6_8  and  C7_10
REMARK    2  A    between atoms: N3_12  and  C8_13
REMARK    3  A    between atoms: C8_13  and  C9_14
REMARK                            x       y       z     vdW  Elec       q    Type
REMARK                         _______ _______ _______ _____ _____    ______ ____
ROOT
ATOM      1  C7  UNL     1      -0.039  -0.925  -1.354  0.00  0.00    +0.000 C 
ATOM      2  O1  UNL     1      -0.572  -0.898  -2.462  0.00  0.00    +0.000 OA
ATOM      3  N3  UNL     1      -0.678  -1.462  -0.252  0.00  0.00    +0.000 N 
ATOM      4  H4  UNL     1      -0.209  -1.343   0.641  0.00  0.00    +0.000 HD
ENDROOT
BRANCH   1  12
ATOM      5  C1  UNL     1       3.950   0.266   1.234  0.00  0.00    +0.000 A 
ATOM      6  N1  UNL     1       5.169   0.842   1.083  0.00  0.00    +0.000 NA
ATOM      7  C2  UNL     1       5.536   1.281  -0.139  0.00  0.00    +0.000 A 
ATOM      8  C3  UNL     1       4.753   1.188  -1.277  0.00  0.00    +0.000 A 
ATOM      9  C4  UNL     1       3.502   0.590  -1.101  0.00  0.00    +0.000 A 
ATOM     10  C5  UNL     1       3.078   0.122   0.145  0.00  0.00    +0.000 A 
ATOM     11  S1  UNL     1       2.265   0.300  -2.264  0.00  0.00    +0.000 S 
ATOM     12  C6  UNL     1       1.292  -0.406  -1.049  0.00  0.00    +0.000 A 
ATOM     13  N2  UNL     1       1.811  -0.448   0.165  0.00  0.00    +0.000 NA
ENDBRANCH   1  12
BRANCH   3  14
ATOM     14  C8  UNL     1      -2.055  -1.883  -0.283  0.00  0.00    +0.000 C 
BRANCH  14  15
ATOM     15  C9  UNL     1      -2.967  -0.785   0.176  0.00  0.00    +0.000 A 
ATOM     16  C10 UNL     1      -3.304  -0.623   1.523  0.00  0.00    +0.000 A 
ATOM     17  C11 UNL     1      -4.138   0.423   1.905  0.00  0.00    +0.000 A 
ATOM     18  C12 UNL     1      -4.605   1.282   0.924  0.00  0.00    +0.000 A 
ATOM     19  N4  UNL     1      -4.295   1.165  -0.384  0.00  0.00    +0.000 NA
ATOM     20  C13 UNL     1      -3.481   0.141  -0.728  0.00  0.00    +0.000 A 
ENDBRANCH  14  15
ENDBRANCH   3  14
TORSDOF 3
