REMARK  Name = /home/anacleto/Desktop/manuscript_Mpro/naturecomm/supplementary_file_S2/6-chemical-library/molecular_docking/3D_ligand_structure/1749.pdb
REMARK  3 active torsions:
REMARK  status: ('A' for Active; 'I' for Inactive)
REMARK    1  A    between atoms: C6_7  and  C7_9
REMARK    2  A    between atoms: C7_9  and  N2_10
REMARK    3  A    between atoms: N3_13  and  C9_14
REMARK                            x       y       z     vdW  Elec       q    Type
REMARK                         _______ _______ _______ _____ _____    ______ ____
ROOT
ATOM      1  N2  UNL     1      -0.696   2.008   0.479  0.00  0.00    +0.000 N 
ATOM      2  C8  UNL     1       0.267   1.676  -0.443  0.00  0.00    +0.000 C 
ATOM      3  O2  UNL     1       0.099   1.682  -1.652  0.00  0.00    +0.000 OA
ATOM      4  N3  UNL     1       1.437   1.325   0.184  0.00  0.00    +0.000 N 
ATOM      5  H11 UNL     1      -0.304   2.487   1.276  0.00  0.00    +0.000 HD
ATOM      6  H12 UNL     1       1.314   0.940   1.109  0.00  0.00    +0.000 HD
ENDROOT
BRANCH   4   7
ATOM      7  C9  UNL     1       2.570   0.819  -0.585  0.00  0.00    +0.000 C 
ATOM      8  C10 UNL     1       3.870   0.966   0.223  0.00  0.00    +0.000 C 
ATOM      9  C11 UNL     1       4.190  -0.294   1.019  0.00  0.00    +0.000 C 
ATOM     10  C12 UNL     1       4.382  -1.509   0.108  0.00  0.00    +0.000 C 
ATOM     11  C13 UNL     1       3.601  -1.417  -1.204  0.00  0.00    +0.000 C 
ATOM     12  C14 UNL     1       2.308  -0.631  -1.036  0.00  0.00    +0.000 C 
ENDBRANCH   4   7
BRANCH   1  13
ATOM     13  C7  UNL     1      -1.951   2.557  -0.008  0.00  0.00    +0.000 C 
BRANCH  13  20
ATOM     14  C1  UNL     1      -4.131  -1.766  -0.058  0.00  0.00    +0.000 C 
ATOM     15  C2  UNL     1      -3.083  -1.641   0.995  0.00  0.00    +0.000 C 
ATOM     16  C3  UNL     1      -4.536  -1.709   1.394  0.00  0.00    +0.000 C 
ATOM     17  C4  UNL     1      -2.375  -0.338   0.797  0.00  0.00    +0.000 C 
ATOM     18  N1  UNL     1      -3.117   0.330  -0.263  0.00  0.00    +0.000 N 
ATOM     19  C5  UNL     1      -4.093  -0.536  -0.910  0.00  0.00    +0.000 C 
ATOM     20  C6  UNL     1      -2.947   1.620  -0.719  0.00  0.00    +0.000 C 
ATOM     21  O1  UNL     1      -3.699   2.086  -1.584  0.00  0.00    +0.000 OA
ENDBRANCH  13  20
ENDBRANCH   1  13
TORSDOF 3
