REMARK  Name = /home/anacleto/Desktop/manuscript_Mpro/naturecomm/supplementary_file_S2/6-chemical-library/molecular_docking/3D_ligand_structure/1773.pdb
REMARK  2 active torsions:
REMARK  status: ('A' for Active; 'I' for Inactive)
REMARK    1  A    between atoms: C7_8  and  C8_10
REMARK    2  A    between atoms: C8_10  and  C9_11
REMARK                            x       y       z     vdW  Elec       q    Type
REMARK                         _______ _______ _______ _____ _____    ______ ____
ROOT
ATOM      1  C8  UNL     1       0.721  -1.451   1.265  0.00  0.00    +0.000 C 
ENDROOT
BRANCH   1   9
ATOM      2  C1  UNL     1      -1.297  -0.520  -0.679  0.00  0.00    +0.000 C 
ATOM      3  C2  UNL     1      -2.562  -0.116  -1.441  0.00  0.00    +0.000 C 
ATOM      4  C3  UNL     1      -3.878  -0.347  -0.694  0.00  0.00    +0.000 C 
ATOM      5  C4  UNL     1      -3.847  -0.173   0.823  0.00  0.00    +0.000 C 
ATOM      6  C5  UNL     1      -3.222   1.126   1.331  0.00  0.00    +0.000 C 
ATOM      7  C6  UNL     1      -1.808   1.421   0.830  0.00  0.00    +0.000 C 
ATOM      8  N1  UNL     1      -1.039   0.206   0.571  0.00  0.00    +0.000 N 
ATOM      9  C7  UNL     1      -0.112  -0.201   1.529  0.00  0.00    +0.000 C 
ATOM     10  O1  UNL     1       0.041   0.413   2.590  0.00  0.00    +0.000 OA
ENDBRANCH   1   9
BRANCH   1  11
ATOM     11  C9  UNL     1       1.788  -1.250   0.245  0.00  0.00    +0.000 A 
ATOM     12  C10 UNL     1       2.022  -2.033  -0.905  0.00  0.00    +0.000 A 
ATOM     13  N2  UNL     1       3.050  -1.608  -1.637  0.00  0.00    +0.000 NA
ATOM     14  N3  UNL     1       3.539  -0.539  -0.957  0.00  0.00    +0.000 N 
ATOM     15  C11 UNL     1       2.789  -0.300   0.200  0.00  0.00    +0.000 A 
ATOM     16  C12 UNL     1       4.632   0.255  -1.309  0.00  0.00    +0.000 A 
ATOM     17  C13 UNL     1       4.998   1.284  -0.528  0.00  0.00    +0.000 A 
ATOM     18  C14 UNL     1       4.237   1.549   0.681  0.00  0.00    +0.000 A 
ATOM     19  C15 UNL     1       3.181   0.791   1.031  0.00  0.00    +0.000 A 
ENDBRANCH   1  11
TORSDOF 2
