REMARK  Name = /home/anacleto/Desktop/manuscript_Mpro/naturecomm/supplementary_file_S2/6-chemical-library/molecular_docking/3D_ligand_structure/178.pdb
REMARK  0 active torsions:
REMARK  status: ('A' for Active; 'I' for Inactive)
REMARK                            x       y       z     vdW  Elec       q    Type
REMARK                         _______ _______ _______ _____ _____    ______ ____
ROOT
ATOM      1  C1  UNL     1       1.415  -1.120  -0.379  0.00  0.00    +0.000 C 
ATOM      2  C2  UNL     1       2.444  -0.168   0.204  0.00  0.00    +0.000 C 
ATOM      3  O1  UNL     1       3.627  -0.480   0.333  0.00  0.00    +0.000 OA
ATOM      4  N1  UNL     1       2.023   1.075   0.586  0.00  0.00    +0.000 N 
ATOM      5  C3  UNL     1       0.791   1.656   0.113  0.00  0.00    +0.000 C 
ATOM      6  C4  UNL     1      -0.322   0.652   0.068  0.00  0.00    +0.000 A 
ATOM      7  C5  UNL     1      -0.020  -0.697  -0.181  0.00  0.00    +0.000 A 
ATOM      8  C6  UNL     1      -1.658   1.048   0.207  0.00  0.00    +0.000 A 
ATOM      9  C7  UNL     1      -2.684   0.107   0.114  0.00  0.00    +0.000 A 
ATOM     10  C8  UNL     1      -2.384  -1.231  -0.132  0.00  0.00    +0.000 A 
ATOM     11  C9  UNL     1      -1.057  -1.633  -0.286  0.00  0.00    +0.000 A 
ATOM     12  H3  UNL     1       2.772   1.688   0.883  0.00  0.00    +0.000 HD
ENDROOT
TORSDOF 0
