REMARK  Name = /home/anacleto/Desktop/manuscript_Mpro/naturecomm/supplementary_file_S2/6-chemical-library/molecular_docking/3D_ligand_structure/1784.pdb
REMARK  2 active torsions:
REMARK  status: ('A' for Active; 'I' for Inactive)
REMARK    1  A    between atoms: C7_8  and  C8_10
REMARK    2  A    between atoms: C8_10  and  N2_11
REMARK                            x       y       z     vdW  Elec       q    Type
REMARK                         _______ _______ _______ _____ _____    ______ ____
ROOT
ATOM      1  C8  UNL     1       0.669  -1.116   0.026  0.00  0.00    +0.000 C 
ENDROOT
BRANCH   1   9
ATOM      2  C1  UNL     1      -5.397   0.908   0.636  0.00  0.00    +0.000 C 
ATOM      3  C2  UNL     1      -4.287   0.439   0.048  0.00  0.00    +0.000 C 
ATOM      4  C3  UNL     1      -3.589  -0.823   0.485  0.00  0.00    +0.000 C 
ATOM      5  C4  UNL     1      -2.104  -0.561   0.765  0.00  0.00    +0.000 C 
ATOM      6  N1  UNL     1      -1.432   0.158  -0.329  0.00  0.00    +0.000 N 
ATOM      7  C5  UNL     1      -2.121   1.368  -0.805  0.00  0.00    +0.000 C 
ATOM      8  C6  UNL     1      -3.605   1.133  -1.105  0.00  0.00    +0.000 C 
ATOM      9  C7  UNL     1      -0.053   0.076  -0.568  0.00  0.00    +0.000 C 
ATOM     10  O1  UNL     1       0.534   0.939  -1.222  0.00  0.00    +0.000 OA
ENDBRANCH   1   9
BRANCH   1  11
ATOM     11  N2  UNL     1       2.031  -1.253  -0.450  0.00  0.00    +0.000 N 
ATOM     12  N3  UNL     1       2.358  -2.302  -1.234  0.00  0.00    +0.000 NA
ATOM     13  N4  UNL     1       3.672  -2.270  -1.417  0.00  0.00    +0.000 NA
ATOM     14  C9  UNL     1       3.139  -0.541  -0.069  0.00  0.00    +0.000 A 
ATOM     15  C10 UNL     1       4.174  -1.208  -0.714  0.00  0.00    +0.000 A 
ATOM     16  C11 UNL     1       3.343   0.583   0.739  0.00  0.00    +0.000 A 
ATOM     17  C12 UNL     1       4.664   1.025   0.878  0.00  0.00    +0.000 A 
ATOM     18  C13 UNL     1       5.722   0.371   0.241  0.00  0.00    +0.000 A 
ATOM     19  C14 UNL     1       5.491  -0.752  -0.564  0.00  0.00    +0.000 A 
ENDBRANCH   1  11
TORSDOF 2
