REMARK  Name = /home/anacleto/Desktop/manuscript_Mpro/naturecomm/supplementary_file_S2/6-chemical-library/molecular_docking/3D_ligand_structure/1787.pdb
REMARK  4 active torsions:
REMARK  status: ('A' for Active; 'I' for Inactive)
REMARK    1  A    between atoms: C2_5  and  C3_6
REMARK    2  A    between atoms: C3_6  and  C4_7
REMARK    3  A    between atoms: N4_9  and  C5_10
REMARK    4  A    between atoms: C5_10  and  C6_11
REMARK                            x       y       z     vdW  Elec       q    Type
REMARK                         _______ _______ _______ _____ _____    ______ ____
ROOT
ATOM      1  C4  UNL     1       2.251  -0.762  -0.818  0.00  0.00    +0.000 C 
ATOM      2  O1  UNL     1       2.789  -0.426  -1.873  0.00  0.00    +0.000 OA
ATOM      3  N4  UNL     1       0.952  -0.446  -0.522  0.00  0.00    +0.000 N 
ATOM      4  H5  UNL     1       0.518  -0.718   0.356  0.00  0.00    +0.000 HD
ENDROOT
BRANCH   1   5
ATOM      5  C3  UNL     1       2.961  -1.582   0.254  0.00  0.00    +0.000 C 
BRANCH   5  10
ATOM      6  N1  UNL     1       5.160  -0.684  -0.609  0.00  0.00    +0.000 N 
ATOM      7  N2  UNL     1       6.414  -0.447  -0.200  0.00  0.00    +0.000 NA
ATOM      8  N3  UNL     1       6.493  -0.805   1.074  0.00  0.00    +0.000 NA
ATOM      9  C1  UNL     1       5.269  -1.270   1.461  0.00  0.00    +0.000 A 
ATOM     10  C2  UNL     1       4.392  -1.203   0.402  0.00  0.00    +0.000 A 
ATOM     11  H1  UNL     1       4.887  -0.456  -1.563  0.00  0.00    +0.000 HD
ENDBRANCH   5  10
ENDBRANCH   1   5
BRANCH   3  12
ATOM     12  C5  UNL     1       0.135   0.332  -1.420  0.00  0.00    +0.000 C 
BRANCH  12  13
ATOM     13  C6  UNL     1      -1.213   0.488  -0.806  0.00  0.00    +0.000 A 
ATOM     14  N5  UNL     1      -1.612   0.011   0.360  0.00  0.00    +0.000 NA
ATOM     15  N6  UNL     1      -2.224   1.180  -1.426  0.00  0.00    +0.000 N 
ATOM     16  C7  UNL     1      -3.329   1.144  -0.615  0.00  0.00    +0.000 A 
ATOM     17  C8  UNL     1      -2.921   0.409   0.492  0.00  0.00    +0.000 A 
ATOM     18  C9  UNL     1      -4.614   1.675  -0.751  0.00  0.00    +0.000 A 
ATOM     19  C10 UNL     1      -5.507   1.435   0.300  0.00  0.00    +0.000 A 
ATOM     20  C11 UNL     1      -5.124   0.699   1.425  0.00  0.00    +0.000 A 
ATOM     21  C12 UNL     1      -3.829   0.178   1.535  0.00  0.00    +0.000 A 
ATOM     22  H8  UNL     1      -2.167   1.638  -2.324  0.00  0.00    +0.000 HD
ENDBRANCH  12  13
ENDBRANCH   3  12
TORSDOF 4
