REMARK  Name = /home/anacleto/Desktop/manuscript_Mpro/naturecomm/supplementary_file_S2/6-chemical-library/molecular_docking/3D_ligand_structure/1790.pdb
REMARK  4 active torsions:
REMARK  status: ('A' for Active; 'I' for Inactive)
REMARK    1  A    between atoms: C4_5  and  C5_6
REMARK    2  A    between atoms: C5_6  and  N1_7
REMARK    3  A    between atoms: C6_8  and  C7_10
REMARK    4  A    between atoms: C7_10  and  N2_11
REMARK                            x       y       z     vdW  Elec       q    Type
REMARK                         _______ _______ _______ _____ _____    ______ ____
ROOT
ATOM      1  N1  UNL     1       1.487   1.457   0.799  0.00  0.00    +0.000 N 
ATOM      2  C6  UNL     1       0.404   1.044   1.542  0.00  0.00    +0.000 C 
ATOM      3  O2  UNL     1       0.485   0.228   2.457  0.00  0.00    +0.000 OA
ATOM      4  H6  UNL     1       1.336   1.971  -0.063  0.00  0.00    +0.000 HD
ENDROOT
BRANCH   1   5
ATOM      5  C5  UNL     1       2.802   0.878   0.965  0.00  0.00    +0.000 C 
BRANCH   5  10
ATOM      6  O1  UNL     1       3.587   1.526  -1.232  0.00  0.00    +0.000 OA
ATOM      7  C1  UNL     1       4.056   0.973  -2.380  0.00  0.00    +0.000 A 
ATOM      8  C2  UNL     1       4.074  -0.400  -2.272  0.00  0.00    +0.000 A 
ATOM      9  C3  UNL     1       3.576  -0.707  -0.985  0.00  0.00    +0.000 A 
ATOM     10  C4  UNL     1       3.311   0.499  -0.373  0.00  0.00    +0.000 A 
ENDBRANCH   5  10
ENDBRANCH   1   5
BRANCH   2  11
ATOM     11  C7  UNL     1      -0.909   1.671   1.146  0.00  0.00    +0.000 C 
BRANCH  11  12
ATOM     12  N2  UNL     1      -1.606   0.822   0.210  0.00  0.00    +0.000 N 
ATOM     13  N3  UNL     1      -1.510   1.074  -1.111  0.00  0.00    +0.000 NA
ATOM     14  N4  UNL     1      -2.236   0.161  -1.743  0.00  0.00    +0.000 NA
ATOM     15  C8  UNL     1      -2.421  -0.243   0.468  0.00  0.00    +0.000 A 
ATOM     16  C9  UNL     1      -2.810  -0.651  -0.802  0.00  0.00    +0.000 A 
ATOM     17  C10 UNL     1      -2.842  -0.877   1.638  0.00  0.00    +0.000 A 
ATOM     18  C11 UNL     1      -3.711  -1.963   1.485  0.00  0.00    +0.000 A 
ATOM     19  C12 UNL     1      -4.122  -2.392   0.221  0.00  0.00    +0.000 A 
ATOM     20  C13 UNL     1      -3.672  -1.747  -0.941  0.00  0.00    +0.000 A 
ENDBRANCH  11  12
ENDBRANCH   2  11
TORSDOF 4
