REMARK  Name = /home/anacleto/Desktop/manuscript_Mpro/naturecomm/supplementary_file_S2/6-chemical-library/molecular_docking/3D_ligand_structure/1795.pdb
REMARK  4 active torsions:
REMARK  status: ('A' for Active; 'I' for Inactive)
REMARK    1  A    between atoms: C4_6  and  C5_7
REMARK    2  A    between atoms: C5_7  and  N3_8
REMARK    3  A    between atoms: N3_8  and  C6_9
REMARK    4  A    between atoms: C6_9  and  C7_10
REMARK                            x       y       z     vdW  Elec       q    Type
REMARK                         _______ _______ _______ _____ _____    ______ ____
ROOT
ATOM      1  C6  UNL     1      -0.094  -0.876  -1.011  0.00  0.00    +0.000 C 
ENDROOT
BRANCH   1   2
ATOM      2  C7  UNL     1       1.106   0.073  -1.276  0.00  0.00    +0.000 C 
ATOM      3  C8  UNL     1       1.934  -0.517  -2.429  0.00  0.00    +0.000 C 
ATOM      4  C9  UNL     1       3.230   0.256  -2.566  0.00  0.00    +0.000 C 
ATOM      5  O1  UNL     1       4.052   0.079  -1.415  0.00  0.00    +0.000 OA
ATOM      6  C10 UNL     1       3.409   0.316  -0.228  0.00  0.00    +0.000 A 
ATOM      7  C11 UNL     1       2.012   0.328  -0.082  0.00  0.00    +0.000 A 
ATOM      8  C12 UNL     1       4.249   0.527   0.868  0.00  0.00    +0.000 A 
ATOM      9  C13 UNL     1       3.711   0.796   2.123  0.00  0.00    +0.000 A 
ATOM     10  C14 UNL     1       2.330   0.856   2.280  0.00  0.00    +0.000 A 
ATOM     11  C15 UNL     1       1.490   0.629   1.187  0.00  0.00    +0.000 A 
ENDBRANCH   1   2
BRANCH   1  12
ATOM     12  N3  UNL     1      -1.218  -0.205  -0.344  0.00  0.00    +0.000 NA
ATOM     13  H6  UNL     1      -1.545   0.570  -0.922  0.00  0.00    +0.000 HD
BRANCH  12  14
ATOM     14  C5  UNL     1      -2.322  -1.132  -0.099  0.00  0.00    +0.000 C 
BRANCH  14  20
ATOM     15  C1  UNL     1      -3.290   0.102   1.878  0.00  0.00    +0.000 A 
ATOM     16  N1  UNL     1      -4.287   0.695   2.566  0.00  0.00    +0.000 NA
ATOM     17  C2  UNL     1      -5.480   0.716   1.955  0.00  0.00    +0.000 A 
ATOM     18  N2  UNL     1      -5.758   0.205   0.746  0.00  0.00    +0.000 NA
ATOM     19  C3  UNL     1      -4.723  -0.377   0.108  0.00  0.00    +0.000 A 
ATOM     20  C4  UNL     1      -3.445  -0.460   0.625  0.00  0.00    +0.000 A 
ENDBRANCH  14  20
ENDBRANCH  12  14
ENDBRANCH   1  12
TORSDOF 4
