REMARK  Name = /home/anacleto/Desktop/manuscript_Mpro/naturecomm/supplementary_file_S2/6-chemical-library/molecular_docking/3D_ligand_structure/1797.pdb
REMARK  2 active torsions:
REMARK  status: ('A' for Active; 'I' for Inactive)
REMARK    1  A    between atoms: C4_6  and  C5_7
REMARK    2  A    between atoms: N3_9  and  C6_10
REMARK                            x       y       z     vdW  Elec       q    Type
REMARK                         _______ _______ _______ _____ _____    ______ ____
ROOT
ATOM      1  C5  UNL     1       1.141   0.568   0.339  0.00  0.00    +0.000 C 
ATOM      2  O1  UNL     1       0.749   1.723   0.470  0.00  0.00    +0.000 OA
ATOM      3  N3  UNL     1       0.351  -0.563   0.204  0.00  0.00    +0.000 N 
ATOM      4  H10 UNL     1       0.887  -1.414   0.043  0.00  0.00    +0.000 HD
ENDROOT
BRANCH   3   5
ATOM      5  C6  UNL     1      -1.051  -0.657   0.176  0.00  0.00    +0.000 A 
ATOM      6  C7  UNL     1      -1.908   0.431   0.351  0.00  0.00    +0.000 A 
ATOM      7  C8  UNL     1      -1.599  -1.925  -0.037  0.00  0.00    +0.000 A 
ATOM      8  C9  UNL     1      -2.984  -2.105  -0.077  0.00  0.00    +0.000 A 
ATOM      9  C10 UNL     1      -3.851  -1.017   0.095  0.00  0.00    +0.000 A 
ATOM     10  C11 UNL     1      -3.306   0.268   0.313  0.00  0.00    +0.000 A 
ATOM     11  C12 UNL     1      -5.246  -1.177   0.058  0.00  0.00    +0.000 A 
ATOM     12  C13 UNL     1      -6.094  -0.083   0.232  0.00  0.00    +0.000 A 
ATOM     13  C14 UNL     1      -5.559   1.184   0.447  0.00  0.00    +0.000 A 
ATOM     14  C15 UNL     1      -4.174   1.358   0.486  0.00  0.00    +0.000 A 
ENDBRANCH   3   5
BRANCH   1  20
ATOM     15  N1  UNL     1       2.893  -0.960  -0.546  0.00  0.00    +0.000 NA
ATOM     16  C1  UNL     1       4.338  -1.257  -0.549  0.00  0.00    +0.000 C 
ATOM     17  C2  UNL     1       5.205  -0.028  -0.900  0.00  0.00    +0.000 C 
ATOM     18  N2  UNL     1       4.963   1.119  -0.011  0.00  0.00    +0.000 NA
ATOM     19  C3  UNL     1       3.518   1.427   0.033  0.00  0.00    +0.000 C 
ATOM     20  C4  UNL     1       2.642   0.199   0.373  0.00  0.00    +0.000 C 
ATOM     21  H1  UNL     1       2.654  -0.637  -1.489  0.00  0.00    +0.000 HD
ATOM     22  H6  UNL     1       5.261   0.864   0.931  0.00  0.00    +0.000 HD
ENDBRANCH   1  20
TORSDOF 2
