REMARK  Name = /home/anacleto/Desktop/manuscript_Mpro/naturecomm/supplementary_file_S2/6-chemical-library/molecular_docking/3D_ligand_structure/1800.pdb
REMARK  3 active torsions:
REMARK  status: ('A' for Active; 'I' for Inactive)
REMARK    1  A    between atoms: C4_5  and  C5_6
REMARK    2  A    between atoms: N1_8  and  C6_9
REMARK    3  A    between atoms: C6_9  and  C7_10
REMARK                            x       y       z     vdW  Elec       q    Type
REMARK                         _______ _______ _______ _____ _____    ______ ____
ROOT
ATOM      1  C6  UNL     1       0.580  -1.113  -1.359  0.00  0.00    +0.000 C 
ENDROOT
BRANCH   1   2
ATOM      2  C7  UNL     1      -0.692  -1.292  -0.564  0.00  0.00    +0.000 A 
ATOM      3  C8  UNL     1      -0.974  -2.567  -0.042  0.00  0.00    +0.000 A 
ATOM      4  C9  UNL     1      -2.120  -2.791   0.714  0.00  0.00    +0.000 A 
ATOM      5  C10 UNL     1      -3.001  -1.745   0.960  0.00  0.00    +0.000 A 
ATOM      6  C11 UNL     1      -2.749  -0.461   0.454  0.00  0.00    +0.000 A 
ATOM      7  C12 UNL     1      -1.574  -0.218  -0.292  0.00  0.00    +0.000 A 
ATOM      8  C13 UNL     1      -3.732   0.639   0.778  0.00  0.00    +0.000 C 
ATOM      9  C14 UNL     1      -3.588   1.863  -0.120  0.00  0.00    +0.000 C 
ATOM     10  C15 UNL     1      -2.127   2.274  -0.207  0.00  0.00    +0.000 C 
ATOM     11  C16 UNL     1      -1.298   1.164  -0.850  0.00  0.00    +0.000 C 
ENDBRANCH   1   2
BRANCH   1  14
ATOM     12  C5  UNL     1       2.876  -0.305  -1.040  0.00  0.00    +0.000 C 
ATOM     13  O2  UNL     1       3.078  -0.349  -2.251  0.00  0.00    +0.000 OA
ATOM     14  N1  UNL     1       1.647  -0.643  -0.511  0.00  0.00    +0.000 N 
ATOM     15  H4  UNL     1       1.522  -0.706   0.488  0.00  0.00    +0.000 HD
BRANCH  12  20
ATOM     16  O1  UNL     1       5.142   0.365  -0.518  0.00  0.00    +0.000 OA
ATOM     17  C1  UNL     1       5.900   0.708   0.552  0.00  0.00    +0.000 A 
ATOM     18  C2  UNL     1       5.152   0.664   1.703  0.00  0.00    +0.000 A 
ATOM     19  C3  UNL     1       3.850   0.268   1.310  0.00  0.00    +0.000 A 
ATOM     20  C4  UNL     1       3.877   0.089  -0.064  0.00  0.00    +0.000 A 
ENDBRANCH  12  20
ENDBRANCH   1  14
TORSDOF 3
