REMARK  Name = /home/anacleto/Desktop/manuscript_Mpro/naturecomm/supplementary_file_S2/6-chemical-library/molecular_docking/3D_ligand_structure/1802.pdb
REMARK  4 active torsions:
REMARK  status: ('A' for Active; 'I' for Inactive)
REMARK    1  A    between atoms: C3_5  and  C4_6
REMARK    2  A    between atoms: C4_6  and  N3_7
REMARK    3  A    between atoms: C5_8  and  C6_10
REMARK    4  A    between atoms: C6_10  and  C7_11
REMARK                            x       y       z     vdW  Elec       q    Type
REMARK                         _______ _______ _______ _____ _____    ______ ____
ROOT
ATOM      1  N3  UNL     1       1.256  -0.323  -1.069  0.00  0.00    +0.000 N 
ATOM      2  C5  UNL     1       0.049  -0.261  -1.729  0.00  0.00    +0.000 C 
ATOM      3  O1  UNL     1      -0.229   0.617  -2.542  0.00  0.00    +0.000 OA
ATOM      4  H6  UNL     1       1.302  -0.876  -0.224  0.00  0.00    +0.000 HD
ENDROOT
BRANCH   1   5
ATOM      5  C4  UNL     1       2.209   0.751  -1.205  0.00  0.00    +0.000 C 
BRANCH   5  10
ATOM      6  C1  UNL     1       3.868   0.411   0.745  0.00  0.00    +0.000 A 
ATOM      7  N1  UNL     1       5.126  -0.115   0.812  0.00  0.00    +0.000 N 
ATOM      8  N2  UNL     1       5.587  -0.549  -0.372  0.00  0.00    +0.000 NA
ATOM      9  C2  UNL     1       4.590  -0.280  -1.218  0.00  0.00    +0.000 A 
ATOM     10  C3  UNL     1       3.481   0.322  -0.579  0.00  0.00    +0.000 A 
ATOM     11  H2  UNL     1       5.727  -0.209   1.625  0.00  0.00    +0.000 HD
ENDBRANCH   5  10
ENDBRANCH   1   5
BRANCH   2  12
ATOM     12  C6  UNL     1      -0.915  -1.380  -1.373  0.00  0.00    +0.000 C 
BRANCH  12  13
ATOM     13  C7  UNL     1      -1.562  -1.149  -0.052  0.00  0.00    +0.000 A 
ATOM     14  C8  UNL     1      -1.396  -1.898   1.131  0.00  0.00    +0.000 A 
ATOM     15  N4  UNL     1      -2.105  -1.431   2.158  0.00  0.00    +0.000 NA
ATOM     16  N5  UNL     1      -2.785  -0.368   1.654  0.00  0.00    +0.000 N 
ATOM     17  C9  UNL     1      -2.465  -0.169   0.306  0.00  0.00    +0.000 A 
ATOM     18  C10 UNL     1      -3.688   0.456   2.330  0.00  0.00    +0.000 A 
ATOM     19  C11 UNL     1      -4.278   1.478   1.689  0.00  0.00    +0.000 A 
ATOM     20  C12 UNL     1      -3.956   1.708   0.290  0.00  0.00    +0.000 A 
ATOM     21  C13 UNL     1      -3.086   0.921  -0.373  0.00  0.00    +0.000 A 
ENDBRANCH  12  13
ENDBRANCH   2  12
TORSDOF 4
