REMARK  Name = /home/anacleto/Desktop/manuscript_Mpro/naturecomm/supplementary_file_S2/6-chemical-library/molecular_docking/3D_ligand_structure/1809.pdb
REMARK  2 active torsions:
REMARK  status: ('A' for Active; 'I' for Inactive)
REMARK    1  A    between atoms: C5_6  and  N2_7
REMARK    2  A    between atoms: C6_8  and  C7_10
REMARK                            x       y       z     vdW  Elec       q    Type
REMARK                         _______ _______ _______ _____ _____    ______ ____
ROOT
ATOM      1  N2  UNL     1       1.366   0.624  -0.020  0.00  0.00    +0.000 N 
ATOM      2  C6  UNL     1       0.250   0.985  -0.739  0.00  0.00    +0.000 C 
ATOM      3  O1  UNL     1       0.280   1.793  -1.662  0.00  0.00    +0.000 OA
ATOM      4  H11 UNL     1       1.308  -0.010   0.767  0.00  0.00    +0.000 HD
ENDROOT
BRANCH   2   5
ATOM      5  C7  UNL     1      -1.039   0.362  -0.329  0.00  0.00    +0.000 A 
ATOM      6  C8  UNL     1      -2.225   1.053  -0.611  0.00  0.00    +0.000 A 
ATOM      7  C9  UNL     1      -1.101  -0.888   0.295  0.00  0.00    +0.000 A 
ATOM      8  C10 UNL     1      -2.338  -1.429   0.656  0.00  0.00    +0.000 A 
ATOM      9  C11 UNL     1      -3.531  -0.737   0.393  0.00  0.00    +0.000 A 
ATOM     10  C12 UNL     1      -3.474   0.520  -0.252  0.00  0.00    +0.000 A 
ATOM     11  C13 UNL     1      -4.780  -1.268   0.752  0.00  0.00    +0.000 A 
ATOM     12  C14 UNL     1      -5.957  -0.570   0.478  0.00  0.00    +0.000 A 
ATOM     13  C15 UNL     1      -5.901   0.667  -0.158  0.00  0.00    +0.000 A 
ATOM     14  C16 UNL     1      -4.667   1.209  -0.521  0.00  0.00    +0.000 A 
ENDBRANCH   2   5
BRANCH   1  20
ATOM     15  C1  UNL     1       3.606   0.994   0.900  0.00  0.00    +0.000 C 
ATOM     16  N1  UNL     1       3.708  -0.394   1.387  0.00  0.00    +0.000 NA
ATOM     17  C2  UNL     1       3.837  -1.382   0.309  0.00  0.00    +0.000 C 
ATOM     18  C3  UNL     1       4.259  -0.795  -1.035  0.00  0.00    +0.000 C 
ATOM     19  C4  UNL     1       3.311   0.310  -1.510  0.00  0.00    +0.000 C 
ATOM     20  C5  UNL     1       2.705   1.112  -0.344  0.00  0.00    +0.000 C 
ATOM     21  H3  UNL     1       4.512  -0.460   2.013  0.00  0.00    +0.000 HD
ENDBRANCH   1  20
TORSDOF 2
