REMARK  Name = /home/anacleto/Desktop/manuscript_Mpro/naturecomm/supplementary_file_S2/6-chemical-library/molecular_docking/3D_ligand_structure/1819.pdb
REMARK  2 active torsions:
REMARK  status: ('A' for Active; 'I' for Inactive)
REMARK    1  A    between atoms: C5_6  and  N2_7
REMARK    2  A    between atoms: C6_8  and  C7_10
REMARK                            x       y       z     vdW  Elec       q    Type
REMARK                         _______ _______ _______ _____ _____    ______ ____
ROOT
ATOM      1  C7  UNL     1      -0.725  -0.084  -1.059  0.00  0.00    +0.000 C 
ATOM      2  C8  UNL     1      -1.490  -0.888  -2.137  0.00  0.00    +0.000 C 
ATOM      3  N3  UNL     1      -2.881  -0.471  -2.399  0.00  0.00    +0.000 NA
ATOM      4  C9  UNL     1      -3.387   0.568  -1.502  0.00  0.00    +0.000 C 
ATOM      5  C10 UNL     1      -2.955   0.357  -0.069  0.00  0.00    +0.000 A 
ATOM      6  C11 UNL     1      -1.605   0.023   0.177  0.00  0.00    +0.000 A 
ATOM      7  C12 UNL     1      -3.845   0.519   0.997  0.00  0.00    +0.000 A 
ATOM      8  C13 UNL     1      -3.406   0.327   2.305  0.00  0.00    +0.000 A 
ATOM      9  C14 UNL     1      -2.079  -0.024   2.553  0.00  0.00    +0.000 A 
ATOM     10  C15 UNL     1      -1.179  -0.176   1.495  0.00  0.00    +0.000 A 
ATOM     11  H9  UNL     1      -2.995  -0.186  -3.369  0.00  0.00    +0.000 HD
ENDROOT
BRANCH   1  13
ATOM     12  N2  UNL     1       1.534   0.227  -0.231  0.00  0.00    +0.000 N 
ATOM     13  C6  UNL     1       0.668  -0.676  -0.836  0.00  0.00    +0.000 C 
ATOM     14  O1  UNL     1       0.965  -1.815  -1.179  0.00  0.00    +0.000 OA
ATOM     15  H5  UNL     1       1.145   1.126   0.031  0.00  0.00    +0.000 HD
BRANCH  12  21
ATOM     16  C1  UNL     1       3.605  -1.154  -0.151  0.00  0.00    +0.000 A 
ATOM     17  N1  UNL     1       4.910  -1.332   0.182  0.00  0.00    +0.000 NA
ATOM     18  C2  UNL     1       5.530  -0.305   0.797  0.00  0.00    +0.000 A 
ATOM     19  C3  UNL     1       4.908   0.894   1.096  0.00  0.00    +0.000 A 
ATOM     20  C4  UNL     1       3.569   1.050   0.742  0.00  0.00    +0.000 A 
ATOM     21  C5  UNL     1       2.887   0.011   0.103  0.00  0.00    +0.000 A 
ENDBRANCH  12  21
ENDBRANCH   1  13
TORSDOF 2
