REMARK  Name = /home/anacleto/Desktop/manuscript_Mpro/naturecomm/supplementary_file_S2/6-chemical-library/molecular_docking/3D_ligand_structure/1827.pdb
REMARK  3 active torsions:
REMARK  status: ('A' for Active; 'I' for Inactive)
REMARK    1  A    between atoms: C4_6  and  N3_10
REMARK    2  A    between atoms: C7_11  and  C8_13
REMARK    3  A    between atoms: C8_13  and  C9_14
REMARK                            x       y       z     vdW  Elec       q    Type
REMARK                         _______ _______ _______ _____ _____    ______ ____
ROOT
ATOM      1  N3  UNL     1      -0.447  -0.444  -0.032  0.00  0.00    +0.000 N 
ATOM      2  C7  UNL     1       0.132  -0.948  -1.183  0.00  0.00    +0.000 C 
ATOM      3  O2  UNL     1      -0.364  -0.933  -2.304  0.00  0.00    +0.000 OA
ATOM      4  H4  UNL     1       0.168  -0.349   0.769  0.00  0.00    +0.000 HD
ENDROOT
BRANCH   1  10
ATOM      5  C1  UNL     1      -4.823   0.336  -1.652  0.00  0.00    +0.000 A 
ATOM      6  N1  UNL     1      -4.154  -0.412  -2.529  0.00  0.00    +0.000 NA
ATOM      7  O1  UNL     1      -2.895  -0.587  -1.972  0.00  0.00    +0.000 OA
ATOM      8  C2  UNL     1      -2.815   0.061  -0.774  0.00  0.00    +0.000 A 
ATOM      9  C3  UNL     1      -4.046   0.655  -0.523  0.00  0.00    +0.000 A 
ATOM     10  C4  UNL     1      -1.732   0.121   0.104  0.00  0.00    +0.000 A 
ATOM     11  C5  UNL     1      -2.039   0.826   1.272  0.00  0.00    +0.000 A 
ATOM     12  N2  UNL     1      -3.220   1.428   1.564  0.00  0.00    +0.000 NA
ATOM     13  C6  UNL     1      -4.230   1.355   0.665  0.00  0.00    +0.000 A 
ENDBRANCH   1  10
BRANCH   2  14
ATOM     14  C8  UNL     1       1.494  -1.593  -0.955  0.00  0.00    +0.000 C 
BRANCH  14  15
ATOM     15  C9  UNL     1       2.442  -0.771  -0.111  0.00  0.00    +0.000 A 
ATOM     16  C10 UNL     1       2.890  -1.247   1.128  0.00  0.00    +0.000 A 
ATOM     17  C11 UNL     1       3.747  -0.474   1.913  0.00  0.00    +0.000 A 
ATOM     18  C12 UNL     1       4.165   0.778   1.466  0.00  0.00    +0.000 A 
ATOM     19  C13 UNL     1       3.732   1.257   0.231  0.00  0.00    +0.000 A 
ATOM     20  C14 UNL     1       2.876   0.486  -0.557  0.00  0.00    +0.000 A 
ENDBRANCH  14  15
ENDBRANCH   2  14
TORSDOF 3
