REMARK  Name = /home/anacleto/Desktop/manuscript_Mpro/naturecomm/supplementary_file_S2/6-chemical-library/molecular_docking/3D_ligand_structure/1835.pdb
REMARK  3 active torsions:
REMARK  status: ('A' for Active; 'I' for Inactive)
REMARK    1  A    between atoms: C5_6  and  N2_7
REMARK    2  A    between atoms: C6_8  and  C7_10
REMARK    3  A    between atoms: C7_10  and  N3_11
REMARK                            x       y       z     vdW  Elec       q    Type
REMARK                         _______ _______ _______ _____ _____    ______ ____
ROOT
ATOM      1  N2  UNL     1       1.186   0.419   0.338  0.00  0.00    +0.000 N 
ATOM      2  C6  UNL     1       0.674   0.472   1.624  0.00  0.00    +0.000 C 
ATOM      3  O1  UNL     1       1.158  -0.096   2.603  0.00  0.00    +0.000 OA
ATOM      4  H5  UNL     1       0.667   0.884  -0.400  0.00  0.00    +0.000 HD
ENDROOT
BRANCH   1  10
ATOM      5  C1  UNL     1       2.633  -0.283  -1.463  0.00  0.00    +0.000 A 
ATOM      6  N1  UNL     1       3.692  -0.916  -2.023  0.00  0.00    +0.000 NA
ATOM      7  C2  UNL     1       4.492  -1.604  -1.183  0.00  0.00    +0.000 A 
ATOM      8  C3  UNL     1       4.278  -1.683   0.182  0.00  0.00    +0.000 A 
ATOM      9  C4  UNL     1       3.179  -1.018   0.728  0.00  0.00    +0.000 A 
ATOM     10  C5  UNL     1       2.324  -0.296  -0.101  0.00  0.00    +0.000 A 
ENDBRANCH   1  10
BRANCH   2  11
ATOM     11  C7  UNL     1      -0.540   1.367   1.824  0.00  0.00    +0.000 C 
BRANCH  11  12
ATOM     12  N3  UNL     1      -1.386   1.514   0.656  0.00  0.00    +0.000 N 
ATOM     13  C8  UNL     1      -1.532   2.661  -0.071  0.00  0.00    +0.000 A 
ATOM     14  N4  UNL     1      -2.294   2.470  -1.122  0.00  0.00    +0.000 NA
ATOM     15  C9  UNL     1      -2.139   0.530   0.064  0.00  0.00    +0.000 A 
ATOM     16  C10 UNL     1      -2.693   1.158  -1.050  0.00  0.00    +0.000 A 
ATOM     17  C11 UNL     1      -2.373  -0.816   0.370  0.00  0.00    +0.000 A 
ATOM     18  C12 UNL     1      -3.206  -1.528  -0.500  0.00  0.00    +0.000 A 
ATOM     19  C13 UNL     1      -3.774  -0.920  -1.622  0.00  0.00    +0.000 A 
ATOM     20  C14 UNL     1      -3.525   0.427  -1.910  0.00  0.00    +0.000 A 
ENDBRANCH  11  12
ENDBRANCH   2  11
TORSDOF 3
