REMARK  Name = /home/anacleto/Desktop/manuscript_Mpro/naturecomm/supplementary_file_S2/6-chemical-library/molecular_docking/3D_ligand_structure/1845.pdb
REMARK  3 active torsions:
REMARK  status: ('A' for Active; 'I' for Inactive)
REMARK    1  A    between atoms: C6_6  and  C7_7
REMARK    2  A    between atoms: C7_7  and  C8_8
REMARK    3  A    between atoms: N1_10  and  C9_11
REMARK                            x       y       z     vdW  Elec       q    Type
REMARK                         _______ _______ _______ _____ _____    ______ ____
ROOT
ATOM      1  C8  UNL     1      -0.276   2.141   0.131  0.00  0.00    +0.000 C 
ATOM      2  O1  UNL     1       0.106   3.154   0.713  0.00  0.00    +0.000 OA
ATOM      3  N1  UNL     1       0.427   0.953   0.061  0.00  0.00    +0.000 N 
ATOM      4  H8  UNL     1      -0.017   0.183  -0.425  0.00  0.00    +0.000 HD
ENDROOT
BRANCH   3   5
ATOM      5  C9  UNL     1       1.675   0.666   0.654  0.00  0.00    +0.000 A 
ATOM      6  C10 UNL     1       2.462   1.568   1.372  0.00  0.00    +0.000 A 
ATOM      7  N2  UNL     1       3.668   1.285   1.936  0.00  0.00    +0.000 NA
ATOM      8  C11 UNL     1       4.180   0.041   1.813  0.00  0.00    +0.000 A 
ATOM      9  C12 UNL     1       3.453  -0.906   1.114  0.00  0.00    +0.000 A 
ATOM     10  C13 UNL     1       2.220  -0.626   0.534  0.00  0.00    +0.000 A 
ATOM     11  N3  UNL     1       3.709  -2.220   0.830  0.00  0.00    +0.000 N 
ATOM     12  N4  UNL     1       2.744  -2.822   0.114  0.00  0.00    +0.000 NA
ATOM     13  C14 UNL     1       1.840  -1.854  -0.061  0.00  0.00    +0.000 A 
ATOM     14  H11 UNL     1       4.521  -2.766   1.096  0.00  0.00    +0.000 HD
ENDBRANCH   3   5
BRANCH   1  15
ATOM     15  C7  UNL     1      -1.586   2.159  -0.651  0.00  0.00    +0.000 C 
BRANCH  15  21
ATOM     16  C1  UNL     1      -2.895   0.283   0.424  0.00  0.00    +0.000 A 
ATOM     17  C2  UNL     1      -3.532  -0.957   0.365  0.00  0.00    +0.000 A 
ATOM     18  C3  UNL     1      -3.599  -1.651  -0.842  0.00  0.00    +0.000 A 
ATOM     19  C4  UNL     1      -3.031  -1.106  -1.992  0.00  0.00    +0.000 A 
ATOM     20  C5  UNL     1      -2.392   0.134  -1.937  0.00  0.00    +0.000 A 
ATOM     21  C6  UNL     1      -2.315   0.837  -0.726  0.00  0.00    +0.000 A 
ENDBRANCH  15  21
ENDBRANCH   1  15
TORSDOF 3
