REMARK  Name = /home/anacleto/Desktop/manuscript_Mpro/naturecomm/supplementary_file_S2/6-chemical-library/molecular_docking/3D_ligand_structure/1854.pdb
REMARK  2 active torsions:
REMARK  status: ('A' for Active; 'I' for Inactive)
REMARK    1  A    between atoms: C10_11  and  C11_13
REMARK    2  A    between atoms: C11_13  and  C12_14
REMARK                            x       y       z     vdW  Elec       q    Type
REMARK                         _______ _______ _______ _____ _____    ______ ____
ROOT
ATOM      1  C1  UNL     1      -3.821  -0.760   0.834  0.00  0.00    +0.000 A 
ATOM      2  C2  UNL     1      -3.652  -2.137   0.726  0.00  0.00    +0.000 A 
ATOM      3  C3  UNL     1      -2.558  -2.642   0.034  0.00  0.00    +0.000 A 
ATOM      4  C4  UNL     1      -1.613  -1.772  -0.519  0.00  0.00    +0.000 A 
ATOM      5  C5  UNL     1      -1.731  -0.383  -0.371  0.00  0.00    +0.000 A 
ATOM      6  C6  UNL     1      -2.885   0.118   0.263  0.00  0.00    +0.000 A 
ATOM      7  N1  UNL     1      -0.764   0.527  -0.900  0.00  0.00    +0.000 N 
ATOM      8  C7  UNL     1      -1.167   1.913  -1.158  0.00  0.00    +0.000 C 
ATOM      9  C8  UNL     1      -2.643   2.220  -0.959  0.00  0.00    +0.000 C 
ATOM     10  C9  UNL     1      -3.121   1.601   0.341  0.00  0.00    +0.000 C 
ATOM     11  C10 UNL     1       0.596   0.269  -1.127  0.00  0.00    +0.000 C 
ATOM     12  O1  UNL     1       1.259   0.990  -1.883  0.00  0.00    +0.000 OA
ENDROOT
BRANCH  11  13
ATOM     13  C11 UNL     1       1.274  -0.863  -0.356  0.00  0.00    +0.000 C 
BRANCH  13  14
ATOM     14  C12 UNL     1       2.646  -0.490   0.168  0.00  0.00    +0.000 A 
ATOM     15  C13 UNL     1       2.791   0.047   1.455  0.00  0.00    +0.000 A 
ATOM     16  C14 UNL     1       4.054   0.396   1.937  0.00  0.00    +0.000 A 
ATOM     17  C15 UNL     1       5.180   0.220   1.136  0.00  0.00    +0.000 A 
ATOM     18  C16 UNL     1       5.045  -0.302  -0.149  0.00  0.00    +0.000 A 
ATOM     19  C17 UNL     1       3.784  -0.653  -0.633  0.00  0.00    +0.000 A 
ENDBRANCH  13  14
ENDBRANCH  11  13
TORSDOF 2
