REMARK  Name = /home/anacleto/Desktop/manuscript_Mpro/naturecomm/supplementary_file_S2/6-chemical-library/molecular_docking/3D_ligand_structure/1855.pdb
REMARK  2 active torsions:
REMARK  status: ('A' for Active; 'I' for Inactive)
REMARK    1  A    between atoms: C10_11  and  C11_13
REMARK    2  A    between atoms: C11_13  and  C12_14
REMARK                            x       y       z     vdW  Elec       q    Type
REMARK                         _______ _______ _______ _____ _____    ______ ____
ROOT
ATOM      1  C1  UNL     1      -4.665  -0.282  -0.859  0.00  0.00    +0.000 A 
ATOM      2  C2  UNL     1      -5.549   0.734  -0.498  0.00  0.00    +0.000 A 
ATOM      3  C3  UNL     1      -5.085   1.843   0.204  0.00  0.00    +0.000 A 
ATOM      4  C4  UNL     1      -3.735   1.940   0.543  0.00  0.00    +0.000 A 
ATOM      5  C5  UNL     1      -2.833   0.926   0.185  0.00  0.00    +0.000 A 
ATOM      6  C6  UNL     1      -3.310  -0.200  -0.510  0.00  0.00    +0.000 A 
ATOM      7  C7  UNL     1      -1.379   1.067   0.574  0.00  0.00    +0.000 C 
ATOM      8  N1  UNL     1      -0.507  -0.002   0.089  0.00  0.00    +0.000 N 
ATOM      9  C8  UNL     1      -1.120  -1.324  -0.031  0.00  0.00    +0.000 C 
ATOM     10  C9  UNL     1      -2.354  -1.284  -0.929  0.00  0.00    +0.000 C 
ATOM     11  C10 UNL     1       0.867   0.218   0.215  0.00  0.00    +0.000 C 
ATOM     12  O1  UNL     1       1.304   1.290   0.637  0.00  0.00    +0.000 OA
ENDROOT
BRANCH  11  13
ATOM     13  C11 UNL     1       1.784  -0.927  -0.204  0.00  0.00    +0.000 C 
BRANCH  13  14
ATOM     14  C12 UNL     1       3.254  -0.575  -0.239  0.00  0.00    +0.000 A 
ATOM     15  C13 UNL     1       3.824  -0.020  -1.394  0.00  0.00    +0.000 A 
ATOM     16  C14 UNL     1       5.181   0.307  -1.426  0.00  0.00    +0.000 A 
ATOM     17  C15 UNL     1       5.979   0.088  -0.304  0.00  0.00    +0.000 A 
ATOM     18  C16 UNL     1       5.420  -0.452   0.852  0.00  0.00    +0.000 A 
ATOM     19  C17 UNL     1       4.063  -0.780   0.887  0.00  0.00    +0.000 A 
ENDBRANCH  13  14
ENDBRANCH  11  13
TORSDOF 2
