REMARK  Name = /home/anacleto/Desktop/manuscript_Mpro/naturecomm/supplementary_file_S2/6-chemical-library/molecular_docking/3D_ligand_structure/1862.pdb
REMARK  3 active torsions:
REMARK  status: ('A' for Active; 'I' for Inactive)
REMARK    1  A    between atoms: C6_6  and  C7_7
REMARK    2  A    between atoms: C7_7  and  C8_8
REMARK    3  A    between atoms: N1_10  and  C9_11
REMARK                            x       y       z     vdW  Elec       q    Type
REMARK                         _______ _______ _______ _____ _____    ______ ____
ROOT
ATOM      1  C8  UNL     1      -0.082   1.248   1.985  0.00  0.00    +0.000 C 
ATOM      2  O1  UNL     1       0.322   2.319   2.431  0.00  0.00    +0.000 OA
ATOM      3  N1  UNL     1       0.433   0.547   0.912  0.00  0.00    +0.000 N 
ATOM      4  H8  UNL     1      -0.002  -0.324   0.645  0.00  0.00    +0.000 HD
ENDROOT
BRANCH   3   5
ATOM      5  C9  UNL     1       1.496   0.952   0.141  0.00  0.00    +0.000 A 
ATOM      6  N2  UNL     1       2.190   2.112   0.334  0.00  0.00    +0.000 NA
ATOM      7  C10 UNL     1       3.122   2.126  -0.593  0.00  0.00    +0.000 A 
ATOM      8  N3  UNL     1       3.069   1.014  -1.391  0.00  0.00    +0.000 N 
ATOM      9  C11 UNL     1       2.011   0.244  -0.926  0.00  0.00    +0.000 A 
ATOM     10  C12 UNL     1       3.863   0.649  -2.477  0.00  0.00    +0.000 A 
ATOM     11  C13 UNL     1       3.604  -0.501  -3.120  0.00  0.00    +0.000 A 
ATOM     12  C14 UNL     1       2.501  -1.331  -2.659  0.00  0.00    +0.000 A 
ATOM     13  C15 UNL     1       1.738  -0.977  -1.604  0.00  0.00    +0.000 A 
ENDBRANCH   3   5
BRANCH   1  14
ATOM     14  C7  UNL     1      -1.223   0.521   2.689  0.00  0.00    +0.000 C 
BRANCH  14  20
ATOM     15  C1  UNL     1      -2.974   0.648   0.869  0.00  0.00    +0.000 A 
ATOM     16  C2  UNL     1      -3.894   0.047   0.008  0.00  0.00    +0.000 A 
ATOM     17  C3  UNL     1      -4.082  -1.334   0.041  0.00  0.00    +0.000 A 
ATOM     18  C4  UNL     1      -3.349  -2.116   0.932  0.00  0.00    +0.000 A 
ATOM     19  C5  UNL     1      -2.428  -1.517   1.795  0.00  0.00    +0.000 A 
ATOM     20  C6  UNL     1      -2.229  -0.130   1.767  0.00  0.00    +0.000 A 
ENDBRANCH  14  20
ENDBRANCH   1  14
TORSDOF 3
