REMARK  Name = /home/anacleto/Desktop/manuscript_Mpro/naturecomm/supplementary_file_S2/6-chemical-library/molecular_docking/3D_ligand_structure/1867.pdb
REMARK  3 active torsions:
REMARK  status: ('A' for Active; 'I' for Inactive)
REMARK    1  A    between atoms: C6_6  and  C7_7
REMARK    2  A    between atoms: C7_7  and  C8_8
REMARK    3  A    between atoms: N1_10  and  C9_11
REMARK                            x       y       z     vdW  Elec       q    Type
REMARK                         _______ _______ _______ _____ _____    ______ ____
ROOT
ATOM      1  C8  UNL     1      -0.524  -1.127  -1.566  0.00  0.00    +0.000 C 
ATOM      2  O1  UNL     1      -0.334  -2.300  -1.883  0.00  0.00    +0.000 OA
ATOM      3  N1  UNL     1       0.290  -0.409  -0.702  0.00  0.00    +0.000 N 
ATOM      4  H8  UNL     1       0.052   0.549  -0.463  0.00  0.00    +0.000 HD
ENDROOT
BRANCH   3   5
ATOM      5  C9  UNL     1       1.402  -0.977  -0.109  0.00  0.00    +0.000 A 
ATOM      6  N2  UNL     1       1.786  -2.284  -0.281  0.00  0.00    +0.000 N 
ATOM      7  N3  UNL     1       2.900  -2.640   0.390  0.00  0.00    +0.000 NA
ATOM      8  C10 UNL     1       3.292  -1.518   1.009  0.00  0.00    +0.000 A 
ATOM      9  C11 UNL     1       2.355  -0.453   0.723  0.00  0.00    +0.000 A 
ATOM     10  C12 UNL     1       4.413  -1.289   1.822  0.00  0.00    +0.000 A 
ATOM     11  C13 UNL     1       4.518   0.041   2.290  0.00  0.00    +0.000 A 
ATOM     12  C14 UNL     1       3.570   1.066   1.978  0.00  0.00    +0.000 A 
ATOM     13  C15 UNL     1       2.428   0.863   1.174  0.00  0.00    +0.000 A 
ATOM     14  H9  UNL     1       1.317  -2.971  -0.868  0.00  0.00    +0.000 HD
ENDBRANCH   3   5
BRANCH   1  15
ATOM     15  C7  UNL     1      -1.652  -0.311  -2.173  0.00  0.00    +0.000 C 
BRANCH  15  21
ATOM     16  C1  UNL     1      -2.604   1.779  -1.113  0.00  0.00    +0.000 A 
ATOM     17  C2  UNL     1      -3.413   2.414  -0.168  0.00  0.00    +0.000 A 
ATOM     18  C3  UNL     1      -4.153   1.658   0.737  0.00  0.00    +0.000 A 
ATOM     19  C4  UNL     1      -4.093   0.266   0.694  0.00  0.00    +0.000 A 
ATOM     20  C5  UNL     1      -3.282  -0.373  -0.246  0.00  0.00    +0.000 A 
ATOM     21  C6  UNL     1      -2.526   0.380  -1.155  0.00  0.00    +0.000 A 
ENDBRANCH  15  21
ENDBRANCH   1  15
TORSDOF 3
