REMARK  Name = /home/anacleto/Desktop/manuscript_Mpro/naturecomm/supplementary_file_S2/6-chemical-library/molecular_docking/3D_ligand_structure/1874.pdb
REMARK  3 active torsions:
REMARK  status: ('A' for Active; 'I' for Inactive)
REMARK    1  A    between atoms: C6_6  and  C7_7
REMARK    2  A    between atoms: N1_9  and  C8_10
REMARK    3  A    between atoms: C8_10  and  C9_11
REMARK                            x       y       z     vdW  Elec       q    Type
REMARK                         _______ _______ _______ _____ _____    ______ ____
ROOT
ATOM      1  C8  UNL     1      -0.993  -0.102   1.988  0.00  0.00    +0.000 C 
ENDROOT
BRANCH   1   2
ATOM      2  C9  UNL     1      -1.967  -0.493   0.907  0.00  0.00    +0.000 A 
ATOM      3  C10 UNL     1      -2.643  -1.727   0.964  0.00  0.00    +0.000 A 
ATOM      4  C11 UNL     1      -3.557  -2.111  -0.018  0.00  0.00    +0.000 A 
ATOM      5  C12 UNL     1      -3.831  -1.274  -1.102  0.00  0.00    +0.000 A 
ATOM      6  C13 UNL     1      -2.256   0.321  -0.207  0.00  0.00    +0.000 A 
ATOM      7  C14 UNL     1      -3.167  -0.037  -1.201  0.00  0.00    +0.000 A 
ATOM      8  N2  UNL     1      -1.746   1.555  -0.559  0.00  0.00    +0.000 N 
ATOM      9  C15 UNL     1      -2.314   1.989  -1.727  0.00  0.00    +0.000 A 
ATOM     10  C16 UNL     1      -3.200   1.025  -2.147  0.00  0.00    +0.000 A 
ATOM     11  H12 UNL     1      -1.022   2.042  -0.036  0.00  0.00    +0.000 HD
ENDBRANCH   1   2
BRANCH   1  14
ATOM     12  C7  UNL     1       1.101   0.743   0.997  0.00  0.00    +0.000 C 
ATOM     13  O1  UNL     1       0.676   1.890   0.892  0.00  0.00    +0.000 OA
ATOM     14  N1  UNL     1       0.375  -0.288   1.554  0.00  0.00    +0.000 N 
ATOM     15  H6  UNL     1       0.658  -1.237   1.355  0.00  0.00    +0.000 HD
BRANCH  12  21
ATOM     16  C1  UNL     1       3.202  -0.661   0.999  0.00  0.00    +0.000 A 
ATOM     17  C2  UNL     1       4.459  -0.958   0.466  0.00  0.00    +0.000 A 
ATOM     18  C3  UNL     1       4.964  -0.207  -0.595  0.00  0.00    +0.000 A 
ATOM     19  C4  UNL     1       4.219   0.847  -1.123  0.00  0.00    +0.000 A 
ATOM     20  C5  UNL     1       2.963   1.149  -0.593  0.00  0.00    +0.000 A 
ATOM     21  C6  UNL     1       2.444   0.388   0.462  0.00  0.00    +0.000 A 
ENDBRANCH  12  21
ENDBRANCH   1  14
TORSDOF 3
