REMARK  Name = /home/anacleto/Desktop/manuscript_Mpro/naturecomm/supplementary_file_S2/6-chemical-library/molecular_docking/3D_ligand_structure/1879.pdb
REMARK  4 active torsions:
REMARK  status: ('A' for Active; 'I' for Inactive)
REMARK    1  A    between atoms: C4_5  and  C5_6
REMARK    2  A    between atoms: C5_6  and  S1_8
REMARK    3  A    between atoms: S1_8  and  C6_9
REMARK    4  A    between atoms: C6_9  and  C7_10
REMARK                            x       y       z     vdW  Elec       q    Type
REMARK                         _______ _______ _______ _____ _____    ______ ____
ROOT
ATOM      1  C6  UNL     1       0.110   0.186   1.053  0.00  0.00    +0.000 C 
ENDROOT
BRANCH   1   2
ATOM      2  C7  UNL     1      -1.306   0.104   0.535  0.00  0.00    +0.000 C 
ATOM      3  C8  UNL     1      -1.902   1.409   0.033  0.00  0.00    +0.000 C 
ATOM      4  S2  UNL     1      -3.730   1.456   0.108  0.00  0.00    +0.000 S 
ATOM      5  C9  UNL     1      -1.993  -1.053   0.604  0.00  0.00    +0.000 C 
ATOM      6  N1  UNL     1      -3.262  -1.144   0.159  0.00  0.00    +0.000 N 
ATOM      7  C10 UNL     1      -3.915  -0.162  -0.675  0.00  0.00    +0.000 C 
ATOM      8  C11 UNL     1      -4.292  -2.004   0.248  0.00  0.00    +0.000 C 
ATOM      9  O3  UNL     1      -4.397  -3.114   0.708  0.00  0.00    +0.000 OA
ATOM     10  C12 UNL     1      -5.225  -0.931  -0.389  0.00  0.00    +0.000 C 
ENDBRANCH   1   2
BRANCH   1  11
ATOM     11  S1  UNL     1       1.263   0.339  -0.336  0.00  0.00    +0.000 S 
BRANCH  11  12
ATOM     12  C5  UNL     1       2.777   0.392   0.568  0.00  0.00    +0.000 C 
ATOM     13  O2  UNL     1       2.780   0.394   1.794  0.00  0.00    +0.000 OA
BRANCH  12  18
ATOM     14  O1  UNL     1       3.905   0.440  -1.617  0.00  0.00    +0.000 OA
ATOM     15  C1  UNL     1       5.176   0.485  -2.090  0.00  0.00    +0.000 A 
ATOM     16  C2  UNL     1       6.075   0.511  -1.052  0.00  0.00    +0.000 A 
ATOM     17  C3  UNL     1       5.304   0.480   0.135  0.00  0.00    +0.000 A 
ATOM     18  C4  UNL     1       3.973   0.436  -0.246  0.00  0.00    +0.000 A 
ENDBRANCH  12  18
ENDBRANCH  11  12
ENDBRANCH   1  11
TORSDOF 4
