REMARK  Name = /home/anacleto/Desktop/manuscript_Mpro/naturecomm/supplementary_file_S2/6-chemical-library/molecular_docking/3D_ligand_structure/1880.pdb
REMARK  3 active torsions:
REMARK  status: ('A' for Active; 'I' for Inactive)
REMARK    1  A    between atoms: C4_5  and  C5_6
REMARK    2  A    between atoms: C5_6  and  C6_7
REMARK    3  A    between atoms: N1_9  and  C7_10
REMARK                            x       y       z     vdW  Elec       q    Type
REMARK                         _______ _______ _______ _____ _____    ______ ____
ROOT
ATOM      1  C6  UNL     1       0.786  -2.280   0.508  0.00  0.00    +0.000 C 
ATOM      2  O1  UNL     1       0.610  -3.187  -0.304  0.00  0.00    +0.000 OA
ATOM      3  N1  UNL     1      -0.218  -1.394   0.836  0.00  0.00    +0.000 N 
ATOM      4  H6  UNL     1       0.038  -0.556   1.350  0.00  0.00    +0.000 HD
ENDROOT
BRANCH   3   5
ATOM      5  C7  UNL     1      -1.533  -1.434   0.134  0.00  0.00    +0.000 C 
ATOM      6  C8  UNL     1      -2.646  -0.511   0.743  0.00  0.00    +0.000 C 
ATOM      7  O2  UNL     1      -3.231  -0.402   1.794  0.00  0.00    +0.000 OA
ATOM      8  N2  UNL     1      -2.640   0.239  -0.375  0.00  0.00    +0.000 N 
ATOM      9  C9  UNL     1      -1.710  -0.561  -1.147  0.00  0.00    +0.000 C 
ATOM     10  C10 UNL     1      -3.118   1.447  -0.741  0.00  0.00    +0.000 C 
ATOM     11  C11 UNL     1      -2.606   2.104  -1.792  0.00  0.00    +0.000 C 
ATOM     12  C12 UNL     1      -1.422   1.650  -2.604  0.00  0.00    +0.000 C 
ATOM     13  S2  UNL     1      -0.339   0.508  -1.678  0.00  0.00    +0.000 S 
ENDBRANCH   3   5
BRANCH   1  14
ATOM     14  C5  UNL     1       2.081  -2.139   1.292  0.00  0.00    +0.000 C 
BRANCH  14  19
ATOM     15  S1  UNL     1       3.362  -0.095  -0.106  0.00  0.00    +0.000 S 
ATOM     16  C1  UNL     1       3.622   1.417   0.648  0.00  0.00    +0.000 A 
ATOM     17  C2  UNL     1       3.156   1.436   1.943  0.00  0.00    +0.000 A 
ATOM     18  C3  UNL     1       2.569   0.193   2.318  0.00  0.00    +0.000 A 
ATOM     19  C4  UNL     1       2.597  -0.731   1.290  0.00  0.00    +0.000 A 
ENDBRANCH  14  19
ENDBRANCH   1  14
TORSDOF 3
