REMARK  Name = /home/anacleto/Desktop/manuscript_Mpro/naturecomm/supplementary_file_S2/6-chemical-library/molecular_docking/3D_ligand_structure/1898.pdb
REMARK  1 active torsions:
REMARK  status: ('A' for Active; 'I' for Inactive)
REMARK    1  A    between atoms: C5_7  and  N2_10
REMARK                            x       y       z     vdW  Elec       q    Type
REMARK                         _______ _______ _______ _____ _____    ______ ____
ROOT
ATOM      1  N2  UNL     1      -0.845  -1.329  -0.519  0.00  0.00    +0.000 NA
ATOM      2  C8  UNL     1      -1.755  -0.419  -0.611  0.00  0.00    +0.000 A 
ATOM      3  N3  UNL     1      -1.588   0.903  -0.341  0.00  0.00    +0.000 N 
ATOM      4  C9  UNL     1      -2.586   1.823  -0.455  0.00  0.00    +0.000 A 
ATOM      5  O1  UNL     1      -2.404   3.010  -0.204  0.00  0.00    +0.000 OA
ATOM      6  N4  UNL     1      -3.794   1.349  -0.865  0.00  0.00    +0.000 N 
ATOM      7  C10 UNL     1      -4.043   0.043  -1.154  0.00  0.00    +0.000 A 
ATOM      8  O2  UNL     1      -5.149  -0.342  -1.519  0.00  0.00    +0.000 OA
ATOM      9  N5  UNL     1      -2.990  -0.808  -1.012  0.00  0.00    +0.000 N 
ATOM     10  H5  UNL     1      -0.692   1.252  -0.036  0.00  0.00    +0.000 HD
ATOM     11  H6  UNL     1      -4.553   2.006  -0.959  0.00  0.00    +0.000 HD
ATOM     12  H7  UNL     1      -3.138  -1.785  -1.218  0.00  0.00    +0.000 HD
ENDROOT
BRANCH   1  19
ATOM     13  N1  UNL     1       4.366   0.020   1.003  0.00  0.00    +0.000 NA
ATOM     14  C1  UNL     1       5.001   0.272  -0.118  0.00  0.00    +0.000 A 
ATOM     15  S1  UNL     1       4.093   0.116  -1.561  0.00  0.00    +0.000 S 
ATOM     16  C2  UNL     1       2.712  -0.333  -0.631  0.00  0.00    +0.000 A 
ATOM     17  C3  UNL     1       3.057  -0.332   0.723  0.00  0.00    +0.000 A 
ATOM     18  C4  UNL     1       1.419  -0.663  -1.068  0.00  0.00    +0.000 A 
ATOM     19  C5  UNL     1       0.451  -0.989  -0.110  0.00  0.00    +0.000 A 
ATOM     20  C6  UNL     1       0.784  -1.012   1.244  0.00  0.00    +0.000 A 
ATOM     21  C7  UNL     1       2.075  -0.681   1.671  0.00  0.00    +0.000 A 
ENDBRANCH   1  19
TORSDOF 1
