REMARK  Name = /home/anacleto/Desktop/manuscript_Mpro/naturecomm/supplementary_file_S2/6-chemical-library/molecular_docking/3D_ligand_structure/1921.pdb
REMARK  4 active torsions:
REMARK  status: ('A' for Active; 'I' for Inactive)
REMARK    1  A    between atoms: C2_5  and  C3_6
REMARK    2  A    between atoms: C3_6  and  N4_7
REMARK    3  A    between atoms: N4_7  and  C4_8
REMARK    4  A    between atoms: C4_8  and  C5_9
REMARK                            x       y       z     vdW  Elec       q    Type
REMARK                         _______ _______ _______ _____ _____    ______ ____
ROOT
ATOM      1  C4  UNL     1       0.353  -0.546  -0.213  0.00  0.00    +0.000 C 
ENDROOT
BRANCH   1   2
ATOM      2  C5  UNL     1      -0.687   0.581   0.014  0.00  0.00    +0.000 C 
ATOM      3  C6  UNL     1      -0.532   1.162   1.429  0.00  0.00    +0.000 C 
ATOM      4  C7  UNL     1      -1.735   2.020   1.763  0.00  0.00    +0.000 C 
ATOM      5  O1  UNL     1      -2.923   1.231   1.816  0.00  0.00    +0.000 OA
ATOM      6  C8  UNL     1      -3.133   0.476   0.693  0.00  0.00    +0.000 A 
ATOM      7  C9  UNL     1      -2.121   0.133  -0.216  0.00  0.00    +0.000 A 
ATOM      8  C10 UNL     1      -4.445   0.038   0.504  0.00  0.00    +0.000 A 
ATOM      9  C11 UNL     1      -4.780  -0.708  -0.622  0.00  0.00    +0.000 A 
ATOM     10  C12 UNL     1      -3.801  -1.014  -1.562  0.00  0.00    +0.000 A 
ATOM     11  C13 UNL     1      -2.484  -0.592  -1.365  0.00  0.00    +0.000 A 
ENDBRANCH   1   2
BRANCH   1  12
ATOM     12  N4  UNL     1       1.729  -0.063  -0.043  0.00  0.00    +0.000 NA
ATOM     13  H5  UNL     1       1.925   0.665  -0.730  0.00  0.00    +0.000 HD
BRANCH  12  14
ATOM     14  C3  UNL     1       2.695  -1.144  -0.188  0.00  0.00    +0.000 C 
BRANCH  14  19
ATOM     15  N1  UNL     1       5.084  -0.842  -0.886  0.00  0.00    +0.000 N 
ATOM     16  N2  UNL     1       6.221  -0.259  -0.481  0.00  0.00    +0.000 NA
ATOM     17  N3  UNL     1       5.968   0.353   0.668  0.00  0.00    +0.000 NA
ATOM     18  C1  UNL     1       4.654   0.146   0.976  0.00  0.00    +0.000 A 
ATOM     19  C2  UNL     1       4.061  -0.613  -0.008  0.00  0.00    +0.000 A 
ATOM     20  H1  UNL     1       5.091  -1.365  -1.753  0.00  0.00    +0.000 HD
ENDBRANCH  14  19
ENDBRANCH  12  14
ENDBRANCH   1  12
TORSDOF 4
