REMARK  Name = /home/anacleto/Desktop/manuscript_Mpro/naturecomm/supplementary_file_S2/6-chemical-library/molecular_docking/3D_ligand_structure/193.pdb
REMARK  0 active torsions:
REMARK  status: ('A' for Active; 'I' for Inactive)
REMARK                            x       y       z     vdW  Elec       q    Type
REMARK                         _______ _______ _______ _____ _____    ______ ____
ROOT
ATOM      1  C1  UNL     1       1.409   1.222  -0.038  0.00  0.00    +0.000 A 
ATOM      2  C2  UNL     1       2.509   0.366  -0.080  0.00  0.00    +0.000 A 
ATOM      3  C3  UNL     1       2.319  -1.017  -0.083  0.00  0.00    +0.000 A 
ATOM      4  C4  UNL     1       1.027  -1.553  -0.044  0.00  0.00    +0.000 A 
ATOM      5  C5  UNL     1      -0.083  -0.704  -0.002  0.00  0.00    +0.000 A 
ATOM      6  C6  UNL     1       0.118   0.686   0.001  0.00  0.00    +0.000 A 
ATOM      7  C7  UNL     1      -1.446  -1.241   0.039  0.00  0.00    +0.000 A 
ATOM      8  C8  UNL     1      -2.482  -0.395   0.078  0.00  0.00    +0.000 A 
ATOM      9  N1  UNL     1      -2.298   0.962   0.081  0.00  0.00    +0.000 N 
ATOM     10  C9  UNL     1      -1.066   1.582   0.045  0.00  0.00    +0.000 A 
ATOM     11  O1  UNL     1      -0.957   2.803   0.050  0.00  0.00    +0.000 OA
ATOM     12  H7  UNL     1      -3.097   1.584   0.112  0.00  0.00    +0.000 HD
ENDROOT
TORSDOF 0
