REMARK  Name = /home/anacleto/Desktop/manuscript_Mpro/naturecomm/supplementary_file_S2/6-chemical-library/molecular_docking/3D_ligand_structure/1933.pdb
REMARK  1 active torsions:
REMARK  status: ('A' for Active; 'I' for Inactive)
REMARK    1  A    between atoms: C6_8  and  N3_10
REMARK                            x       y       z     vdW  Elec       q    Type
REMARK                         _______ _______ _______ _____ _____    ______ ____
ROOT
ATOM      1  N3  UNL     1       0.796  -1.190   0.527  0.00  0.00    +0.000 NA
ATOM      2  C8  UNL     1       1.809  -0.484   0.156  0.00  0.00    +0.000 A 
ATOM      3  N4  UNL     1       3.023  -0.818   0.659  0.00  0.00    +0.000 N 
ATOM      4  C9  UNL     1       4.176  -0.161   0.356  0.00  0.00    +0.000 A 
ATOM      5  O1  UNL     1       5.258  -0.487   0.832  0.00  0.00    +0.000 OA
ATOM      6  N5  UNL     1       4.054   0.884  -0.508  0.00  0.00    +0.000 N 
ATOM      7  C10 UNL     1       2.876   1.287  -1.057  0.00  0.00    +0.000 A 
ATOM      8  O2  UNL     1       2.810   2.239  -1.827  0.00  0.00    +0.000 OA
ATOM      9  N6  UNL     1       1.773   0.572  -0.700  0.00  0.00    +0.000 N 
ATOM     10  H6  UNL     1       3.074  -1.598   1.296  0.00  0.00    +0.000 HD
ATOM     11  H7  UNL     1       4.888   1.394  -0.752  0.00  0.00    +0.000 HD
ATOM     12  H8  UNL     1       0.897   0.867  -1.106  0.00  0.00    +0.000 HD
ENDROOT
BRANCH   1  20
ATOM     13  C1  UNL     1      -3.516   1.032   0.595  0.00  0.00    +0.000 A 
ATOM     14  N1  UNL     1      -4.516   0.888  -0.324  0.00  0.00    +0.000 N 
ATOM     15  N2  UNL     1      -4.231   0.040  -1.331  0.00  0.00    +0.000 NA
ATOM     16  C2  UNL     1      -2.994  -0.408  -1.064  0.00  0.00    +0.000 A 
ATOM     17  C3  UNL     1      -2.520   0.211   0.148  0.00  0.00    +0.000 A 
ATOM     18  C4  UNL     1      -2.189  -1.320  -1.764  0.00  0.00    +0.000 A 
ATOM     19  C5  UNL     1      -0.927  -1.536  -1.163  0.00  0.00    +0.000 A 
ATOM     20  C6  UNL     1      -0.485  -0.887   0.039  0.00  0.00    +0.000 A 
ATOM     21  C7  UNL     1      -1.289   0.020   0.764  0.00  0.00    +0.000 A 
ATOM     22  H2  UNL     1      -5.425   1.341  -0.329  0.00  0.00    +0.000 HD
ENDBRANCH   1  20
TORSDOF 1
