REMARK  Name = /home/anacleto/Desktop/manuscript_Mpro/naturecomm/supplementary_file_S2/6-chemical-library/molecular_docking/3D_ligand_structure/1942.pdb
REMARK  3 active torsions:
REMARK  status: ('A' for Active; 'I' for Inactive)
REMARK    1  A    between atoms: C4_7  and  C6_9
REMARK    2  A    between atoms: N3_11  and  C7_12
REMARK    3  A    between atoms: C7_12  and  C8_13
REMARK                            x       y       z     vdW  Elec       q    Type
REMARK                         _______ _______ _______ _____ _____    ______ ____
ROOT
ATOM      1  C6  UNL     1       0.215   0.132  -1.388  0.00  0.00    +0.000 C 
ATOM      2  O2  UNL     1      -0.149   0.991  -2.188  0.00  0.00    +0.000 OA
ATOM      3  N3  UNL     1      -0.591  -0.940  -1.045  0.00  0.00    +0.000 N 
ATOM      4  H6  UNL     1      -0.342  -1.496  -0.243  0.00  0.00    +0.000 HD
ENDROOT
BRANCH   1  11
ATOM      5  O1  UNL     1       4.435  -0.654   1.155  0.00  0.00    +0.000 OA
ATOM      6  C1  UNL     1       5.299   0.527   1.098  0.00  0.00    +0.000 C 
ATOM      7  C2  UNL     1       4.593   1.598   0.248  0.00  0.00    +0.000 C 
ATOM      8  N1  UNL     1       3.380   0.893  -0.059  0.00  0.00    +0.000 N 
ATOM      9  C3  UNL     1       3.349  -0.343   0.461  0.00  0.00    +0.000 A 
ATOM     10  N2  UNL     1       2.330   1.261  -0.774  0.00  0.00    +0.000 NA
ATOM     11  C4  UNL     1       1.530   0.164  -0.709  0.00  0.00    +0.000 A 
ATOM     12  C5  UNL     1       2.157  -0.881   0.071  0.00  0.00    +0.000 A 
ENDBRANCH   1  11
BRANCH   3  13
ATOM     13  C7  UNL     1      -1.960  -1.025  -1.498  0.00  0.00    +0.000 C 
BRANCH  13  14
ATOM     14  C8  UNL     1      -2.907  -0.595  -0.408  0.00  0.00    +0.000 A 
ATOM     15  C9  UNL     1      -3.555  -1.544   0.396  0.00  0.00    +0.000 A 
ATOM     16  C10 UNL     1      -4.413  -1.135   1.418  0.00  0.00    +0.000 A 
ATOM     17  C11 UNL     1      -4.628   0.222   1.650  0.00  0.00    +0.000 A 
ATOM     18  C12 UNL     1      -3.984   1.174   0.862  0.00  0.00    +0.000 A 
ATOM     19  C13 UNL     1      -3.126   0.768  -0.161  0.00  0.00    +0.000 A 
ENDBRANCH  13  14
ENDBRANCH   3  13
TORSDOF 3
