REMARK  Name = /home/anacleto/Desktop/manuscript_Mpro/naturecomm/supplementary_file_S2/6-chemical-library/molecular_docking/3D_ligand_structure/1943.pdb
REMARK  1 active torsions:
REMARK  status: ('A' for Active; 'I' for Inactive)
REMARK    1  A    between atoms: C8_8  and  C9_9
REMARK                            x       y       z     vdW  Elec       q    Type
REMARK                         _______ _______ _______ _____ _____    ______ ____
ROOT
ATOM      1  C9  UNL     1      -0.018  -0.810  -0.738  0.00  0.00    +0.000 C 
ATOM      2  C10 UNL     1       1.314  -0.663  -0.585  0.00  0.00    +0.000 C 
ATOM      3  C11 UNL     1       2.250  -1.299  -1.605  0.00  0.00    +0.000 C 
ATOM      4  C12 UNL     1       3.461  -1.954  -0.926  0.00  0.00    +0.000 C 
ATOM      5  C13 UNL     1       4.263  -0.985  -0.045  0.00  0.00    +0.000 C 
ATOM      6  C14 UNL     1       3.495   0.305   0.211  0.00  0.00    +0.000 C 
ATOM      7  C15 UNL     1       2.023   0.038   0.560  0.00  0.00    +0.000 C 
ATOM      8  C16 UNL     1       3.976   1.147   1.381  0.00  0.00    +0.000 C 
ATOM      9  C17 UNL     1       2.794   2.078   1.658  0.00  0.00    +0.000 C 
ATOM     10  C18 UNL     1       1.570   1.442   0.980  0.00  0.00    +0.000 C 
ENDROOT
BRANCH   1  18
ATOM     11  C1  UNL     1      -2.984  -0.721  -1.407  0.00  0.00    +0.000 C 
ATOM     12  C2  UNL     1      -4.452  -0.308  -1.557  0.00  0.00    +0.000 C 
ATOM     13  C3  UNL     1      -4.690   1.055  -0.921  0.00  0.00    +0.000 C 
ATOM     14  C4  UNL     1      -4.378   1.031   0.579  0.00  0.00    +0.000 C 
ATOM     15  C5  UNL     1      -3.328   0.018   0.978  0.00  0.00    +0.000 C 
ATOM     16  C6  UNL     1      -3.328  -0.532   2.204  0.00  0.00    +0.000 C 
ATOM     17  C7  UNL     1      -2.377  -0.392  -0.056  0.00  0.00    +0.000 C 
ATOM     18  C8  UNL     1      -1.051  -0.405   0.192  0.00  0.00    +0.000 C 
ENDBRANCH   1  18
TORSDOF 1
