REMARK  Name = /home/anacleto/Desktop/manuscript_Mpro/naturecomm/supplementary_file_S2/6-chemical-library/molecular_docking/3D_ligand_structure/1947.pdb
REMARK  2 active torsions:
REMARK  status: ('A' for Active; 'I' for Inactive)
REMARK    1  A    between atoms: N3_5  and  C3_6
REMARK    2  A    between atoms: C3_6  and  C4_7
REMARK                            x       y       z     vdW  Elec       q    Type
REMARK                         _______ _______ _______ _____ _____    ______ ____
ROOT
ATOM      1  C4  UNL     1       0.775  -1.836   1.232  0.00  0.00    +0.000 C 
ATOM      2  O1  UNL     1       0.487  -2.496   2.236  0.00  0.00    +0.000 OA
ATOM      3  N4  UNL     1      -0.186  -1.128   0.518  0.00  0.00    +0.000 N 
ATOM      4  C5  UNL     1      -1.593  -1.315   0.868  0.00  0.00    +0.000 C 
ATOM      5  C6  UNL     1      -2.362   0.002   0.821  0.00  0.00    +0.000 C 
ATOM      6  C7  UNL     1       0.083  -0.470  -0.764  0.00  0.00    +0.000 C 
ATOM      7  C8  UNL     1      -0.998   0.469  -1.245  0.00  0.00    +0.000 A 
ATOM      8  C9  UNL     1      -2.172   0.690  -0.505  0.00  0.00    +0.000 A 
ATOM      9  C10 UNL     1      -0.824   1.142  -2.465  0.00  0.00    +0.000 A 
ATOM     10  C11 UNL     1      -1.796   2.025  -2.935  0.00  0.00    +0.000 A 
ATOM     11  C12 UNL     1      -2.951   2.249  -2.191  0.00  0.00    +0.000 A 
ATOM     12  C13 UNL     1      -3.137   1.589  -0.977  0.00  0.00    +0.000 A 
ENDROOT
BRANCH   1  13
ATOM     13  C3  UNL     1       2.215  -1.795   0.769  0.00  0.00    +0.000 C 
BRANCH  13  18
ATOM     14  N1  UNL     1       3.495   0.237   0.496  0.00  0.00    +0.000 NA
ATOM     15  N2  UNL     1       4.090   1.146   1.256  0.00  0.00    +0.000 NA
ATOM     16  C1  UNL     1       3.897   0.797   2.563  0.00  0.00    +0.000 A 
ATOM     17  C2  UNL     1       3.159  -0.359   2.624  0.00  0.00    +0.000 A 
ATOM     18  N3  UNL     1       2.915  -0.658   1.317  0.00  0.00    +0.000 N 
ENDBRANCH  13  18
ENDBRANCH   1  13
TORSDOF 2
