REMARK  Name = /home/anacleto/Desktop/manuscript_Mpro/naturecomm/supplementary_file_S2/6-chemical-library/molecular_docking/3D_ligand_structure/1965.pdb
REMARK  3 active torsions:
REMARK  status: ('A' for Active; 'I' for Inactive)
REMARK    1  A    between atoms: C5_6  and  C6_7
REMARK    2  A    between atoms: C6_7  and  N2_8
REMARK    3  A    between atoms: N2_8  and  C7_9
REMARK                            x       y       z     vdW  Elec       q    Type
REMARK                         _______ _______ _______ _____ _____    ______ ____
ROOT
ATOM      1  C7  UNL     1      -0.051  -1.160  -0.468  0.00  0.00    +0.000 A 
ATOM      2  C8  UNL     1      -1.118  -0.847   0.387  0.00  0.00    +0.000 A 
ATOM      3  C9  UNL     1      -0.177  -0.809  -1.816  0.00  0.00    +0.000 A 
ATOM      4  C10 UNL     1      -1.295  -0.108  -2.284  0.00  0.00    +0.000 A 
ATOM      5  C11 UNL     1      -2.336   0.231  -1.415  0.00  0.00    +0.000 A 
ATOM      6  C12 UNL     1      -2.239  -0.133  -0.065  0.00  0.00    +0.000 A 
ATOM      7  C13 UNL     1      -3.524   1.016  -1.918  0.00  0.00    +0.000 C 
ATOM      8  O1  UNL     1      -4.640   1.001  -1.018  0.00  0.00    +0.000 OA
ATOM      9  C14 UNL     1      -4.234   1.315   0.315  0.00  0.00    +0.000 C 
ATOM     10  C15 UNL     1      -3.375   0.184   0.872  0.00  0.00    +0.000 C 
ENDROOT
BRANCH   1  11
ATOM     11  N2  UNL     1       1.020  -1.907   0.037  0.00  0.00    +0.000 N 
ATOM     12  H7  UNL     1       1.023  -1.908   1.055  0.00  0.00    +0.000 HD
BRANCH  11  13
ATOM     13  C6  UNL     1       2.366  -1.715  -0.491  0.00  0.00    +0.000 C 
BRANCH  13  19
ATOM     14  C1  UNL     1       2.948   0.730  -0.297  0.00  0.00    +0.000 A 
ATOM     15  N1  UNL     1       3.539   1.809   0.268  0.00  0.00    +0.000 NA
ATOM     16  C2  UNL     1       4.259   1.589   1.388  0.00  0.00    +0.000 A 
ATOM     17  C3  UNL     1       4.417   0.341   1.968  0.00  0.00    +0.000 A 
ATOM     18  C4  UNL     1       3.802  -0.751   1.362  0.00  0.00    +0.000 A 
ATOM     19  C5  UNL     1       3.054  -0.567   0.194  0.00  0.00    +0.000 A 
ENDBRANCH  13  19
ENDBRANCH  11  13
ENDBRANCH   1  11
TORSDOF 3
