REMARK  Name = /home/anacleto/Desktop/manuscript_Mpro/naturecomm/supplementary_file_S2/6-chemical-library/molecular_docking/3D_ligand_structure/1966.pdb
REMARK  3 active torsions:
REMARK  status: ('A' for Active; 'I' for Inactive)
REMARK    1  A    between atoms: C5_6  and  C6_7
REMARK    2  A    between atoms: C6_7  and  N2_8
REMARK    3  A    between atoms: N2_8  and  C7_9
REMARK                            x       y       z     vdW  Elec       q    Type
REMARK                         _______ _______ _______ _____ _____    ______ ____
ROOT
ATOM      1  C7  UNL     1      -0.162  -0.218   0.534  0.00  0.00    +0.000 A 
ATOM      2  C8  UNL     1      -1.024   0.129  -0.513  0.00  0.00    +0.000 A 
ATOM      3  C9  UNL     1      -0.731  -0.452   1.794  0.00  0.00    +0.000 A 
ATOM      4  C10 UNL     1      -2.099  -0.279   2.022  0.00  0.00    +0.000 A 
ATOM      5  C11 UNL     1      -2.941   0.098   0.975  0.00  0.00    +0.000 A 
ATOM      6  C12 UNL     1      -2.402   0.315  -0.301  0.00  0.00    +0.000 A 
ATOM      7  C13 UNL     1      -4.411   0.322   1.211  0.00  0.00    +0.000 C 
ATOM      8  C14 UNL     1      -5.186   0.260  -0.102  0.00  0.00    +0.000 C 
ATOM      9  O1  UNL     1      -4.592   1.145  -1.054  0.00  0.00    +0.000 OA
ATOM     10  C15 UNL     1      -3.300   0.677  -1.460  0.00  0.00    +0.000 C 
ENDROOT
BRANCH   1  11
ATOM     11  N2  UNL     1       1.203  -0.476   0.363  0.00  0.00    +0.000 N 
ATOM     12  H7  UNL     1       1.717  -0.363   1.234  0.00  0.00    +0.000 HD
BRANCH  11  13
ATOM     13  C6  UNL     1       1.905   0.094  -0.777  0.00  0.00    +0.000 C 
BRANCH  13  19
ATOM     14  C1  UNL     1       3.893  -1.444  -0.905  0.00  0.00    +0.000 A 
ATOM     15  N1  UNL     1       5.204  -1.766  -0.805  0.00  0.00    +0.000 NA
ATOM     16  C2  UNL     1       6.041  -0.783  -0.411  0.00  0.00    +0.000 A 
ATOM     17  C3  UNL     1       5.630   0.505  -0.113  0.00  0.00    +0.000 A 
ATOM     18  C4  UNL     1       4.276   0.809  -0.229  0.00  0.00    +0.000 A 
ATOM     19  C5  UNL     1       3.378  -0.178  -0.643  0.00  0.00    +0.000 A 
ENDBRANCH  13  19
ENDBRANCH  11  13
ENDBRANCH   1  11
TORSDOF 3
