REMARK  Name = /home/anacleto/Desktop/manuscript_Mpro/naturecomm/supplementary_file_S2/6-chemical-library/molecular_docking/3D_ligand_structure/1973.pdb
REMARK  2 active torsions:
REMARK  status: ('A' for Active; 'I' for Inactive)
REMARK    1  A    between atoms: C3_7  and  C6_10
REMARK    2  A    between atoms: N5_12  and  C7_13
REMARK                            x       y       z     vdW  Elec       q    Type
REMARK                         _______ _______ _______ _____ _____    ______ ____
ROOT
ATOM      1  C6  UNL     1       0.167   0.175  -0.870  0.00  0.00    +0.000 C 
ATOM      2  O1  UNL     1      -0.141   0.556  -1.992  0.00  0.00    +0.000 OA
ATOM      3  N5  UNL     1      -0.668  -0.011   0.213  0.00  0.00    +0.000 N 
ATOM      4  H4  UNL     1      -0.234  -0.229   1.100  0.00  0.00    +0.000 HD
ENDROOT
BRANCH   1  11
ATOM      5  N1  UNL     1       5.627  -0.514   0.083  0.00  0.00    +0.000 NA
ATOM      6  N2  UNL     1       6.009   0.603  -0.616  0.00  0.00    +0.000 NA
ATOM      7  N3  UNL     1       4.962   1.230  -1.137  0.00  0.00    +0.000 NA
ATOM      8  N4  UNL     1       3.873   0.516  -0.774  0.00  0.00    +0.000 N 
ATOM      9  C1  UNL     1       4.318  -0.568  -0.014  0.00  0.00    +0.000 A 
ATOM     10  C2  UNL     1       2.529   0.746  -1.041  0.00  0.00    +0.000 A 
ATOM     11  C3  UNL     1       1.602  -0.098  -0.548  0.00  0.00    +0.000 A 
ATOM     12  C4  UNL     1       2.041  -1.262   0.220  0.00  0.00    +0.000 A 
ATOM     13  C5  UNL     1       3.346  -1.481   0.477  0.00  0.00    +0.000 A 
ENDBRANCH   1  11
BRANCH   3  14
ATOM     14  C7  UNL     1      -2.071   0.135   0.245  0.00  0.00    +0.000 A 
ATOM     15  C8  UNL     1      -2.852   0.436  -0.872  0.00  0.00    +0.000 A 
ATOM     16  C9  UNL     1      -4.240   0.559  -0.754  0.00  0.00    +0.000 A 
ATOM     17  C10 UNL     1      -4.860   0.380   0.480  0.00  0.00    +0.000 A 
ATOM     18  C11 UNL     1      -4.091   0.076   1.600  0.00  0.00    +0.000 A 
ATOM     19  C12 UNL     1      -2.704  -0.046   1.483  0.00  0.00    +0.000 A 
ENDBRANCH   3  14
TORSDOF 2
