REMARK  Name = /home/anacleto/Desktop/manuscript_Mpro/naturecomm/supplementary_file_S2/6-chemical-library/molecular_docking/3D_ligand_structure/1980.pdb
REMARK  2 active torsions:
REMARK  status: ('A' for Active; 'I' for Inactive)
REMARK    1  A    between atoms: C5_6  and  C6_7
REMARK    2  A    between atoms: N2_9  and  C7_10
REMARK                            x       y       z     vdW  Elec       q    Type
REMARK                         _______ _______ _______ _____ _____    ______ ____
ROOT
ATOM      1  C6  UNL     1      -1.226   0.360   0.928  0.00  0.00    +0.000 C 
ATOM      2  O1  UNL     1      -1.129   0.950   2.001  0.00  0.00    +0.000 OA
ATOM      3  N2  UNL     1      -0.164   0.083   0.078  0.00  0.00    +0.000 N 
ATOM      4  H5  UNL     1      -0.311  -0.405  -0.789  0.00  0.00    +0.000 HD
ENDROOT
BRANCH   3   5
ATOM      5  C7  UNL     1       1.143   0.461   0.375  0.00  0.00    +0.000 A 
ATOM      6  C8  UNL     1       1.697   1.130   1.452  0.00  0.00    +0.000 A 
ATOM      7  N3  UNL     1       3.055   1.284   1.315  0.00  0.00    +0.000 NA
ATOM      8  N4  UNL     1       2.221   0.195  -0.459  0.00  0.00    +0.000 N 
ATOM      9  C9  UNL     1       3.352   0.719   0.167  0.00  0.00    +0.000 A 
ATOM     10  C10 UNL     1       2.276  -0.457  -1.696  0.00  0.00    +0.000 A 
ATOM     11  C11 UNL     1       3.459  -0.593  -2.320  0.00  0.00    +0.000 A 
ATOM     12  C12 UNL     1       4.655  -0.057  -1.691  0.00  0.00    +0.000 A 
ATOM     13  C13 UNL     1       4.600   0.571  -0.501  0.00  0.00    +0.000 A 
ENDBRANCH   3   5
BRANCH   1  19
ATOM     14  C1  UNL     1      -2.858  -0.771  -0.676  0.00  0.00    +0.000 A 
ATOM     15  N1  UNL     1      -4.095  -1.183  -1.058  0.00  0.00    +0.000 NA
ATOM     16  C2  UNL     1      -5.116  -0.905  -0.219  0.00  0.00    +0.000 A 
ATOM     17  C3  UNL     1      -4.958  -0.236   0.981  0.00  0.00    +0.000 A 
ATOM     18  C4  UNL     1      -3.675   0.173   1.344  0.00  0.00    +0.000 A 
ATOM     19  C5  UNL     1      -2.585  -0.093   0.506  0.00  0.00    +0.000 A 
ENDBRANCH   1  19
TORSDOF 2
