REMARK  Name = /home/anacleto/Desktop/manuscript_Mpro/naturecomm/supplementary_file_S2/6-chemical-library/molecular_docking/3D_ligand_structure/1993.pdb
REMARK  2 active torsions:
REMARK  status: ('A' for Active; 'I' for Inactive)
REMARK    1  A    between atoms: C6_6  and  C7_7
REMARK    2  A    between atoms: C7_7  and  N1_8
REMARK                            x       y       z     vdW  Elec       q    Type
REMARK                         _______ _______ _______ _____ _____    ______ ____
ROOT
ATOM      1  N1  UNL     1      -0.568  -1.290  -0.153  0.00  0.00    +0.000 N 
ATOM      2  C8  UNL     1      -0.837  -2.123   0.922  0.00  0.00    +0.000 C 
ATOM      3  O1  UNL     1      -0.226  -3.093   1.318  0.00  0.00    +0.000 OA
ATOM      4  C9  UNL     1      -2.126  -1.556   1.566  0.00  0.00    +0.000 C 
ATOM      5  O2  UNL     1      -2.719  -1.990   2.527  0.00  0.00    +0.000 OA
ATOM      6  C10 UNL     1      -1.524  -0.263  -0.241  0.00  0.00    +0.000 A 
ATOM      7  C11 UNL     1      -2.480  -0.385   0.767  0.00  0.00    +0.000 A 
ATOM      8  C12 UNL     1      -1.610   0.770  -1.155  0.00  0.00    +0.000 A 
ATOM      9  C13 UNL     1      -2.675   1.674  -1.028  0.00  0.00    +0.000 A 
ATOM     10  C14 UNL     1      -3.630   1.535  -0.004  0.00  0.00    +0.000 A 
ATOM     11  C15 UNL     1      -3.539   0.490   0.915  0.00  0.00    +0.000 A 
ENDROOT
BRANCH   1  12
ATOM     12  C7  UNL     1       0.590  -1.434  -1.005  0.00  0.00    +0.000 C 
BRANCH  12  18
ATOM     13  C1  UNL     1       2.376  -0.659   0.612  0.00  0.00    +0.000 A 
ATOM     14  C2  UNL     1       3.419   0.196   0.971  0.00  0.00    +0.000 A 
ATOM     15  C3  UNL     1       3.822   1.208   0.103  0.00  0.00    +0.000 A 
ATOM     16  C4  UNL     1       3.186   1.363  -1.127  0.00  0.00    +0.000 A 
ATOM     17  C5  UNL     1       2.142   0.509  -1.489  0.00  0.00    +0.000 A 
ATOM     18  C6  UNL     1       1.720  -0.508  -0.620  0.00  0.00    +0.000 A 
ENDBRANCH  12  18
ENDBRANCH   1  12
TORSDOF 2
