REMARK  Name = /home/anacleto/Desktop/manuscript_Mpro/naturecomm/supplementary_file_S2/6-chemical-library/molecular_docking/3D_ligand_structure/1997.pdb
REMARK  1 active torsions:
REMARK  status: ('A' for Active; 'I' for Inactive)
REMARK    1  A    between atoms: C5_6  and  C6_7
REMARK                            x       y       z     vdW  Elec       q    Type
REMARK                         _______ _______ _______ _____ _____    ______ ____
ROOT
ATOM      1  C6  UNL     1      -1.127  -1.207   0.039  0.00  0.00    +0.000 C 
ATOM      2  C7  UNL     1       0.101  -0.678  -0.050  0.00  0.00    +0.000 C 
ATOM      3  C8  UNL     1       0.565   0.726   0.110  0.00  0.00    +0.000 C 
ATOM      4  O1  UNL     1      -0.077   1.718   0.377  0.00  0.00    +0.000 OA
ATOM      5  C9  UNL     1       1.279  -1.528  -0.383  0.00  0.00    +0.000 C 
ATOM      6  O2  UNL     1       1.305  -2.722  -0.594  0.00  0.00    +0.000 OA
ATOM      7  C10 UNL     1       2.425  -0.614  -0.410  0.00  0.00    +0.000 A 
ATOM      8  C11 UNL     1       2.014   0.685  -0.126  0.00  0.00    +0.000 A 
ATOM      9  C12 UNL     1       3.750  -0.916  -0.670  0.00  0.00    +0.000 A 
ATOM     10  C13 UNL     1       4.670   0.136  -0.638  0.00  0.00    +0.000 A 
ATOM     11  C14 UNL     1       4.254   1.452  -0.351  0.00  0.00    +0.000 A 
ATOM     12  C15 UNL     1       2.911   1.738  -0.091  0.00  0.00    +0.000 A 
ENDROOT
BRANCH   1  18
ATOM     13  C1  UNL     1      -2.560   0.312   1.453  0.00  0.00    +0.000 A 
ATOM     14  N1  UNL     1      -3.735   0.899   1.791  0.00  0.00    +0.000 NA
ATOM     15  C2  UNL     1      -4.785   0.665   0.977  0.00  0.00    +0.000 A 
ATOM     16  C3  UNL     1      -4.720  -0.141  -0.147  0.00  0.00    +0.000 A 
ATOM     17  C4  UNL     1      -3.503  -0.743  -0.459  0.00  0.00    +0.000 A 
ATOM     18  C5  UNL     1      -2.382  -0.512   0.344  0.00  0.00    +0.000 A 
ENDBRANCH   1  18
TORSDOF 1
