REMARK  Name = /home/anacleto/Desktop/manuscript_Mpro/naturecomm/supplementary_file_S2/6-chemical-library/molecular_docking/3D_ligand_structure/2001.pdb
REMARK  2 active torsions:
REMARK  status: ('A' for Active; 'I' for Inactive)
REMARK    1  A    between atoms: C9_9  and  N1_11
REMARK    2  A    between atoms: N2_12  and  C11_13
REMARK                            x       y       z     vdW  Elec       q    Type
REMARK                         _______ _______ _______ _____ _____    ______ ____
ROOT
ATOM      1  C1  UNL     1       3.554  -1.648  -0.600  0.00  0.00    +0.000 A 
ATOM      2  C2  UNL     1       4.926  -1.403  -0.670  0.00  0.00    +0.000 A 
ATOM      3  C3  UNL     1       5.430  -0.156  -0.313  0.00  0.00    +0.000 A 
ATOM      4  C4  UNL     1       4.562   0.850   0.116  0.00  0.00    +0.000 A 
ATOM      5  C5  UNL     1       3.179   0.620   0.193  0.00  0.00    +0.000 A 
ATOM      6  C6  UNL     1       2.668  -0.647  -0.171  0.00  0.00    +0.000 A 
ATOM      7  C7  UNL     1       2.295   1.619   0.625  0.00  0.00    +0.000 A 
ATOM      8  C8  UNL     1       0.921   1.371   0.695  0.00  0.00    +0.000 A 
ATOM      9  C9  UNL     1       0.403   0.125   0.325  0.00  0.00    +0.000 A 
ATOM     10  C10 UNL     1       1.284  -0.877  -0.094  0.00  0.00    +0.000 A 
ENDROOT
BRANCH   9  11
ATOM     11  N1  UNL     1      -0.972  -0.161   0.414  0.00  0.00    +0.000 NA
ATOM     12  N2  UNL     1      -1.626   0.579  -0.353  0.00  0.00    +0.000 NA
BRANCH  12  13
ATOM     13  C11 UNL     1      -3.000   0.285  -0.277  0.00  0.00    +0.000 A 
ATOM     14  C12 UNL     1      -3.724   0.427   0.915  0.00  0.00    +0.000 A 
ATOM     15  C13 UNL     1      -5.094   0.157   0.952  0.00  0.00    +0.000 A 
ATOM     16  C14 UNL     1      -5.755  -0.248  -0.206  0.00  0.00    +0.000 A 
ATOM     17  C15 UNL     1      -5.048  -0.380  -1.401  0.00  0.00    +0.000 A 
ATOM     18  C16 UNL     1      -3.678  -0.110  -1.435  0.00  0.00    +0.000 A 
ENDBRANCH  12  13
ENDBRANCH   9  11
TORSDOF 2
