REMARK  Name = /home/anacleto/Desktop/manuscript_Mpro/naturecomm/supplementary_file_S2/6-chemical-library/molecular_docking/3D_ligand_structure/2008.pdb
REMARK  3 active torsions:
REMARK  status: ('A' for Active; 'I' for Inactive)
REMARK    1  A    between atoms: C2_5  and  S2_6
REMARK    2  A    between atoms: S2_6  and  C3_7
REMARK    3  A    between atoms: C3_7  and  C4_9
REMARK                            x       y       z     vdW  Elec       q    Type
REMARK                         _______ _______ _______ _____ _____    ______ ____
ROOT
ATOM      1  C4  UNL     1      -0.090  -0.011   0.941  0.00  0.00    +0.000 A 
ATOM      2  C5  UNL     1      -0.851  -0.985   1.604  0.00  0.00    +0.000 A 
ATOM      3  C6  UNL     1      -2.062  -1.448   1.071  0.00  0.00    +0.000 A 
ATOM      4  C7  UNL     1      -0.525   0.505  -0.292  0.00  0.00    +0.000 A 
ATOM      5  C8  UNL     1      -1.738   0.024  -0.810  0.00  0.00    +0.000 A 
ATOM      6  C9  UNL     1      -2.513  -0.933  -0.157  0.00  0.00    +0.000 A 
ATOM      7  N3  UNL     1      -2.388   0.341  -1.983  0.00  0.00    +0.000 N 
ATOM      8  C10 UNL     1      -3.554  -0.372  -2.083  0.00  0.00    +0.000 A 
ATOM      9  C11 UNL     1      -3.657  -1.170  -0.967  0.00  0.00    +0.000 A 
ATOM     10  H5  UNL     1      -2.049   1.003  -2.668  0.00  0.00    +0.000 HD
ENDROOT
BRANCH   1  11
ATOM     11  C3  UNL     1       1.184   0.417   1.589  0.00  0.00    +0.000 C 
ATOM     12  O1  UNL     1       1.735  -0.287   2.427  0.00  0.00    +0.000 OA
BRANCH  11  13
ATOM     13  S2  UNL     1       1.837   2.000   1.195  0.00  0.00    +0.000 S 
BRANCH  13  18
ATOM     14  S1  UNL     1       4.803   1.513   0.695  0.00  0.00    +0.000 S 
ATOM     15  C1  UNL     1       5.182   0.726  -0.780  0.00  0.00    +0.000 A 
ATOM     16  N1  UNL     1       4.141   0.437  -1.533  0.00  0.00    +0.000 NA
ATOM     17  N2  UNL     1       2.958   0.833  -0.940  0.00  0.00    +0.000 NA
ATOM     18  C2  UNL     1       3.158   1.394   0.234  0.00  0.00    +0.000 A 
ENDBRANCH  13  18
ENDBRANCH  11  13
ENDBRANCH   1  11
TORSDOF 3
