REMARK  Name = /home/anacleto/Desktop/manuscript_Mpro/naturecomm/supplementary_file_S2/6-chemical-library/molecular_docking/3D_ligand_structure/2018.pdb
REMARK  3 active torsions:
REMARK  status: ('A' for Active; 'I' for Inactive)
REMARK    1  A    between atoms: C3_3  and  N1_4
REMARK    2  A    between atoms: N1_4  and  S1_5
REMARK    3  A    between atoms: S1_5  and  N2_8
REMARK                            x       y       z     vdW  Elec       q    Type
REMARK                         _______ _______ _______ _____ _____    ______ ____
ROOT
ATOM      1  N2  UNL     1       0.330  -0.029   0.348  0.00  0.00    +0.000 NA
ATOM      2  C4  UNL     1       0.002  -1.373  -0.184  0.00  0.00    +0.000 C 
ATOM      3  C5  UNL     1      -1.288  -1.380  -1.001  0.00  0.00    +0.000 C 
ATOM      4  C6  UNL     1      -0.749   0.519   1.202  0.00  0.00    +0.000 C 
ATOM      5  C7  UNL     1      -2.159   0.238   0.735  0.00  0.00    +0.000 A 
ATOM      6  C8  UNL     1      -2.421  -0.687  -0.290  0.00  0.00    +0.000 A 
ATOM      7  C9  UNL     1      -3.233   0.884   1.365  0.00  0.00    +0.000 A 
ATOM      8  C10 UNL     1      -4.547   0.632   0.969  0.00  0.00    +0.000 A 
ATOM      9  C11 UNL     1      -4.801  -0.271  -0.060  0.00  0.00    +0.000 A 
ATOM     10  C12 UNL     1      -3.743  -0.925  -0.690  0.00  0.00    +0.000 A 
ENDROOT
BRANCH   1  11
ATOM     11  S1  UNL     1       1.063   1.073  -0.683  0.00  0.00    +0.000 S 
ATOM     12  O1  UNL     1       0.307   1.175  -1.907  0.00  0.00    +0.000 OA
ATOM     13  O2  UNL     1       1.431   2.248   0.071  0.00  0.00    +0.000 OA
BRANCH  11  14
ATOM     14  N1  UNL     1       2.487   0.248  -1.060  0.00  0.00    +0.000 NA
ATOM     15  H6  UNL     1       2.905   0.701  -1.874  0.00  0.00    +0.000 HD
BRANCH  14  18
ATOM     16  C1  UNL     1       4.830  -0.409  -0.215  0.00  0.00    +0.000 C 
ATOM     17  C2  UNL     1       4.600   1.003   0.240  0.00  0.00    +0.000 C 
ATOM     18  C3  UNL     1       3.433   0.077   0.053  0.00  0.00    +0.000 C 
ENDBRANCH  14  18
ENDBRANCH  11  14
ENDBRANCH   1  11
TORSDOF 3
