REMARK  Name = /home/anacleto/Desktop/manuscript_Mpro/naturecomm/supplementary_file_S2/6-chemical-library/molecular_docking/3D_ligand_structure/2021.pdb
REMARK  1 active torsions:
REMARK  status: ('A' for Active; 'I' for Inactive)
REMARK    1  A    between atoms: C4_6  and  C8_10
REMARK                            x       y       z     vdW  Elec       q    Type
REMARK                         _______ _______ _______ _____ _____    ______ ____
ROOT
ATOM      1  C1  UNL     1      -4.405   0.871   0.905  0.00  0.00    +0.000 A 
ATOM      2  N1  UNL     1      -4.044   2.149   0.930  0.00  0.00    +0.000 NA
ATOM      3  S1  UNL     1      -2.549   2.278   0.228  0.00  0.00    +0.000 S 
ATOM      4  C2  UNL     1      -2.341   0.600  -0.104  0.00  0.00    +0.000 A 
ATOM      5  C3  UNL     1      -3.486  -0.072   0.338  0.00  0.00    +0.000 A 
ATOM      6  C4  UNL     1      -1.270  -0.095  -0.689  0.00  0.00    +0.000 A 
ATOM      7  C5  UNL     1      -1.364  -1.484  -0.857  0.00  0.00    +0.000 A 
ATOM      8  C6  UNL     1      -2.495  -2.168  -0.428  0.00  0.00    +0.000 A 
ATOM      9  C7  UNL     1      -3.554  -1.476   0.170  0.00  0.00    +0.000 A 
ENDROOT
BRANCH   6  10
ATOM     10  C8  UNL     1      -0.076   0.624  -1.162  0.00  0.00    +0.000 C 
ATOM     11  O1  UNL     1      -0.210   1.406  -2.099  0.00  0.00    +0.000 OA
ATOM     12  N2  UNL     1       1.136   0.370  -0.537  0.00  0.00    +0.000 N 
ATOM     13  C9  UNL     1       2.340   1.018  -1.057  0.00  0.00    +0.000 C 
ATOM     14  C10 UNL     1       3.620   0.254  -0.676  0.00  0.00    +0.000 C 
ATOM     15  N3  UNL     1       3.797  -0.003   0.764  0.00  0.00    +0.000 NA
ATOM     16  C11 UNL     1       2.530   0.068   1.509  0.00  0.00    +0.000 C 
ATOM     17  C12 UNL     1       1.299  -0.393   0.708  0.00  0.00    +0.000 C 
ATOM     18  H9  UNL     1       4.448   0.676   1.157  0.00  0.00    +0.000 HD
ENDBRANCH   6  10
TORSDOF 1
