REMARK  Name = /home/anacleto/Desktop/manuscript_Mpro/naturecomm/supplementary_file_S2/6-chemical-library/molecular_docking/3D_ligand_structure/2026.pdb
REMARK  2 active torsions:
REMARK  status: ('A' for Active; 'I' for Inactive)
REMARK    1  A    between atoms: C3_5  and  C4_6
REMARK    2  A    between atoms: N2_8  and  C5_9
REMARK                            x       y       z     vdW  Elec       q    Type
REMARK                         _______ _______ _______ _____ _____    ______ ____
ROOT
ATOM      1  C4  UNL     1       1.525   0.094  -1.105  0.00  0.00    +0.000 C 
ATOM      2  O2  UNL     1       0.944   0.506  -2.102  0.00  0.00    +0.000 OA
ATOM      3  N2  UNL     1       0.897  -0.267   0.082  0.00  0.00    +0.000 N 
ATOM      4  H3  UNL     1       1.484  -0.593   0.835  0.00  0.00    +0.000 HD
ENDROOT
BRANCH   3   5
ATOM      5  C5  UNL     1      -0.486  -0.235   0.371  0.00  0.00    +0.000 A 
ATOM      6  C6  UNL     1      -0.868  -0.653   1.651  0.00  0.00    +0.000 A 
ATOM      7  C7  UNL     1      -2.213  -0.661   2.043  0.00  0.00    +0.000 A 
ATOM      8  C8  UNL     1      -1.465   0.185  -0.538  0.00  0.00    +0.000 A 
ATOM      9  C9  UNL     1      -2.815   0.173  -0.134  0.00  0.00    +0.000 A 
ATOM     10  C10 UNL     1      -3.206  -0.242   1.140  0.00  0.00    +0.000 A 
ATOM     11  S1  UNL     1      -4.218   0.628  -1.028  0.00  0.00    +0.000 S 
ATOM     12  C11 UNL     1      -5.193   0.242   0.325  0.00  0.00    +0.000 A 
ATOM     13  N3  UNL     1      -4.567  -0.199   1.391  0.00  0.00    +0.000 NA
ENDBRANCH   3   5
BRANCH   1  18
ATOM     14  N1  UNL     1       3.783   0.260  -2.192  0.00  0.00    +0.000 NA
ATOM     15  C1  UNL     1       5.005  -0.001  -1.794  0.00  0.00    +0.000 A 
ATOM     16  O1  UNL     1       5.104  -0.464  -0.520  0.00  0.00    +0.000 OA
ATOM     17  C2  UNL     1       3.815  -0.494  -0.081  0.00  0.00    +0.000 A 
ATOM     18  C3  UNL     1       2.989  -0.052  -1.096  0.00  0.00    +0.000 A 
ENDBRANCH   1  18
TORSDOF 2
