REMARK  Name = /home/anacleto/Desktop/manuscript_Mpro/naturecomm/supplementary_file_S2/6-chemical-library/molecular_docking/3D_ligand_structure/2041.pdb
REMARK  2 active torsions:
REMARK  status: ('A' for Active; 'I' for Inactive)
REMARK    1  A    between atoms: C3_5  and  C4_6
REMARK    2  A    between atoms: N2_8  and  C5_9
REMARK                            x       y       z     vdW  Elec       q    Type
REMARK                         _______ _______ _______ _____ _____    ______ ____
ROOT
ATOM      1  C4  UNL     1       2.664  -0.981  -0.423  0.00  0.00    +0.000 C 
ATOM      2  O2  UNL     1       3.031  -1.819  -1.239  0.00  0.00    +0.000 OA
ATOM      3  N2  UNL     1       1.368  -0.867   0.030  0.00  0.00    +0.000 N 
ATOM      4  H3  UNL     1       1.177  -0.029   0.573  0.00  0.00    +0.000 HD
ENDROOT
BRANCH   3   5
ATOM      5  C5  UNL     1       0.281  -1.624  -0.568  0.00  0.00    +0.000 C 
ATOM      6  C6  UNL     1      -0.198  -1.025  -1.885  0.00  0.00    +0.000 C 
ATOM      7  O3  UNL     1      -1.209  -0.056  -1.561  0.00  0.00    +0.000 OA
ATOM      8  C7  UNL     1      -0.975  -1.564   0.274  0.00  0.00    +0.000 C 
ATOM      9  C8  UNL     1      -1.686  -0.312  -0.228  0.00  0.00    +0.000 C 
ATOM     10  C9  UNL     1      -3.208  -0.430  -0.236  0.00  0.00    +0.000 C 
ATOM     11  C10 UNL     1      -3.693   1.009  -0.379  0.00  0.00    +0.000 C 
ATOM     12  C11 UNL     1      -2.601   1.883   0.234  0.00  0.00    +0.000 C 
ATOM     13  C12 UNL     1      -1.461   0.940   0.621  0.00  0.00    +0.000 C 
ENDBRANCH   3   5
BRANCH   1  18
ATOM     14  N1  UNL     1       3.143   0.998   1.047  0.00  0.00    +0.000 NA
ATOM     15  C1  UNL     1       4.252   1.660   1.294  0.00  0.00    +0.000 A 
ATOM     16  O1  UNL     1       5.359   1.203   0.646  0.00  0.00    +0.000 OA
ATOM     17  C2  UNL     1       4.901   0.148  -0.083  0.00  0.00    +0.000 A 
ATOM     18  C3  UNL     1       3.552   0.014   0.156  0.00  0.00    +0.000 A 
ENDBRANCH   1  18
TORSDOF 2
