REMARK  Name = /home/anacleto/Desktop/manuscript_Mpro/naturecomm/supplementary_file_S2/6-chemical-library/molecular_docking/3D_ligand_structure/2045.pdb
REMARK  2 active torsions:
REMARK  status: ('A' for Active; 'I' for Inactive)
REMARK    1  A    between atoms: C3_5  and  C4_6
REMARK    2  A    between atoms: N3_8  and  C5_9
REMARK                            x       y       z     vdW  Elec       q    Type
REMARK                         _______ _______ _______ _____ _____    ______ ____
ROOT
ATOM      1  C4  UNL     1       2.385  -0.273   0.594  0.00  0.00    +0.000 C 
ATOM      2  O1  UNL     1       2.112  -0.654   1.729  0.00  0.00    +0.000 OA
ATOM      3  N3  UNL     1       1.467  -0.274  -0.432  0.00  0.00    +0.000 N 
ATOM      4  H4  UNL     1       1.705   0.198  -1.292  0.00  0.00    +0.000 HD
ENDROOT
BRANCH   3   5
ATOM      5  C5  UNL     1       0.075  -0.634  -0.212  0.00  0.00    +0.000 C 
ATOM      6  C6  UNL     1      -0.693   0.528   0.467  0.00  0.00    +0.000 C 
ATOM      7  C7  UNL     1      -0.582  -1.085  -1.530  0.00  0.00    +0.000 C 
ATOM      8  C8  UNL     1      -2.048  -1.517  -1.356  0.00  0.00    +0.000 C 
ATOM      9  C9  UNL     1      -2.685  -0.864  -0.138  0.00  0.00    +0.000 C 
ATOM     10  C10 UNL     1      -2.158   0.542   0.058  0.00  0.00    +0.000 C 
ATOM     11  O2  UNL     1      -4.102  -0.718  -0.239  0.00  0.00    +0.000 OA
ATOM     12  C11 UNL     1      -4.460   0.473   0.497  0.00  0.00    +0.000 C 
ATOM     13  C12 UNL     1      -3.171   1.085   1.035  0.00  0.00    +0.000 C 
ENDBRANCH   3   5
BRANCH   1  18
ATOM     14  N1  UNL     1       4.705   0.333   1.183  0.00  0.00    +0.000 N 
ATOM     15  C1  UNL     1       5.807   0.832   0.555  0.00  0.00    +0.000 A 
ATOM     16  N2  UNL     1       5.575   1.046  -0.719  0.00  0.00    +0.000 NA
ATOM     17  C2  UNL     1       4.271   0.666  -0.916  0.00  0.00    +0.000 A 
ATOM     18  C3  UNL     1       3.693   0.222   0.256  0.00  0.00    +0.000 A 
ATOM     19  H1  UNL     1       4.625   0.082   2.160  0.00  0.00    +0.000 HD
ENDBRANCH   1  18
TORSDOF 2
