REMARK  Name = /home/anacleto/Desktop/manuscript_Mpro/naturecomm/supplementary_file_S2/6-chemical-library/molecular_docking/3D_ligand_structure/2060.pdb
REMARK  1 active torsions:
REMARK  status: ('A' for Active; 'I' for Inactive)
REMARK    1  A    between atoms: C5_7  and  C6_9
REMARK                            x       y       z     vdW  Elec       q    Type
REMARK                         _______ _______ _______ _____ _____    ______ ____
ROOT
ATOM      1  C1  UNL     1      -2.404  -1.317   0.472  0.00  0.00    +0.000 C 
ATOM      2  C2  UNL     1      -3.506  -0.278   0.746  0.00  0.00    +0.000 C 
ATOM      3  N1  UNL     1      -3.659   0.708  -0.340  0.00  0.00    +0.000 NA
ATOM      4  C3  UNL     1      -2.358   1.370  -0.562  0.00  0.00    +0.000 C 
ATOM      5  C4  UNL     1      -1.233   0.373  -0.892  0.00  0.00    +0.000 C 
ATOM      6  N2  UNL     1      -1.128  -0.696   0.110  0.00  0.00    +0.000 N 
ATOM      7  C5  UNL     1       0.025  -1.433   0.337  0.00  0.00    +0.000 C 
ATOM      8  O1  UNL     1      -0.003  -2.588   0.765  0.00  0.00    +0.000 OA
ATOM      9  H5  UNL     1      -3.919   0.210  -1.192  0.00  0.00    +0.000 HD
ENDROOT
BRANCH   7  10
ATOM     10  C6  UNL     1       1.346  -0.811   0.042  0.00  0.00    +0.000 A 
ATOM     11  C7  UNL     1       2.252  -1.548  -0.642  0.00  0.00    +0.000 A 
ATOM     12  C8  UNL     1       3.591  -1.048  -0.923  0.00  0.00    +0.000 A 
ATOM     13  C9  UNL     1       3.940   0.165  -0.463  0.00  0.00    +0.000 A 
ATOM     14  N3  UNL     1       3.007   0.905   0.257  0.00  0.00    +0.000 N 
ATOM     15  C10 UNL     1       1.718   0.473   0.536  0.00  0.00    +0.000 A 
ATOM     16  C11 UNL     1       3.099   2.144   0.824  0.00  0.00    +0.000 A 
ATOM     17  N4  UNL     1       1.961   2.462   1.400  0.00  0.00    +0.000 NA
ATOM     18  N5  UNL     1       1.093   1.406   1.226  0.00  0.00    +0.000 NA
ENDBRANCH   7  10
TORSDOF 1
