REMARK  Name = /home/anacleto/Desktop/manuscript_Mpro/naturecomm/supplementary_file_S2/6-chemical-library/molecular_docking/3D_ligand_structure/2062.pdb
REMARK  2 active torsions:
REMARK  status: ('A' for Active; 'I' for Inactive)
REMARK    1  A    between atoms: C5_6  and  C6_7
REMARK    2  A    between atoms: C6_7  and  N2_8
REMARK                            x       y       z     vdW  Elec       q    Type
REMARK                         _______ _______ _______ _____ _____    ______ ____
ROOT
ATOM      1  N2  UNL     1      -0.008   1.011   0.350  0.00  0.00    +0.000 N 
ATOM      2  C7  UNL     1      -0.238   0.392   1.561  0.00  0.00    +0.000 C 
ATOM      3  O1  UNL     1       0.508   0.357   2.526  0.00  0.00    +0.000 OA
ATOM      4  N3  UNL     1      -1.487  -0.203   1.533  0.00  0.00    +0.000 N 
ATOM      5  C8  UNL     1      -1.065   0.899  -0.524  0.00  0.00    +0.000 C 
ATOM      6  O2  UNL     1      -1.142   1.411  -1.634  0.00  0.00    +0.000 OA
ATOM      7  C9  UNL     1      -2.140   0.024   0.233  0.00  0.00    +0.000 C 
ATOM      8  C10 UNL     1      -3.595   0.530   0.322  0.00  0.00    +0.000 C 
ATOM      9  C11 UNL     1      -4.058  -0.932   0.170  0.00  0.00    +0.000 C 
ATOM     10  C12 UNL     1      -2.682  -1.251  -0.448  0.00  0.00    +0.000 C 
ATOM     11  H7  UNL     1      -1.831  -0.715   2.332  0.00  0.00    +0.000 HD
ENDROOT
BRANCH   1  12
ATOM     12  C6  UNL     1       1.228   1.694   0.038  0.00  0.00    +0.000 C 
BRANCH  12  18
ATOM     13  N1  UNL     1       2.413   0.476  -1.733  0.00  0.00    +0.000 NA
ATOM     14  C1  UNL     1       3.363  -0.398  -2.131  0.00  0.00    +0.000 A 
ATOM     15  C2  UNL     1       4.227  -1.043  -1.265  0.00  0.00    +0.000 A 
ATOM     16  C3  UNL     1       4.110  -0.778   0.094  0.00  0.00    +0.000 A 
ATOM     17  C4  UNL     1       3.140   0.119   0.533  0.00  0.00    +0.000 A 
ATOM     18  C5  UNL     1       2.311   0.733  -0.405  0.00  0.00    +0.000 A 
ENDBRANCH  12  18
ENDBRANCH   1  12
TORSDOF 2
