REMARK  Name = /home/anacleto/Desktop/manuscript_Mpro/naturecomm/supplementary_file_S2/6-chemical-library/molecular_docking/3D_ligand_structure/207.pdb
REMARK  0 active torsions:
REMARK  status: ('A' for Active; 'I' for Inactive)
REMARK                            x       y       z     vdW  Elec       q    Type
REMARK                         _______ _______ _______ _____ _____    ______ ____
ROOT
ATOM      1  N1  UNL     1       1.765   0.484   0.695  0.00  0.00    +0.000 N 
ATOM      2  C1  UNL     1       2.342  -0.700   0.312  0.00  0.00    +0.000 A 
ATOM      3  S1  UNL     1       3.915  -1.151   0.530  0.00  0.00    +0.000 S 
ATOM      4  O1  UNL     1       1.447  -1.559  -0.320  0.00  0.00    +0.000 OA
ATOM      5  C2  UNL     1       0.282  -0.806  -0.291  0.00  0.00    +0.000 A 
ATOM      6  C3  UNL     1       0.453   0.424   0.315  0.00  0.00    +0.000 A 
ATOM      7  C4  UNL     1      -0.940  -1.192  -0.795  0.00  0.00    +0.000 A 
ATOM      8  C5  UNL     1      -2.000  -0.287  -0.669  0.00  0.00    +0.000 A 
ATOM      9  C6  UNL     1      -1.813   0.967  -0.048  0.00  0.00    +0.000 A 
ATOM     10  C7  UNL     1      -0.563   1.338   0.457  0.00  0.00    +0.000 A 
ATOM     11  H1  UNL     1       2.236   1.240   1.166  0.00  0.00    +0.000 HD
ENDROOT
TORSDOF 0
