REMARK  Name = /home/anacleto/Desktop/manuscript_Mpro/naturecomm/supplementary_file_S2/6-chemical-library/molecular_docking/3D_ligand_structure/2070.pdb
REMARK  1 active torsions:
REMARK  status: ('A' for Active; 'I' for Inactive)
REMARK    1  A    between atoms: C4_6  and  C8_10
REMARK                            x       y       z     vdW  Elec       q    Type
REMARK                         _______ _______ _______ _____ _____    ______ ____
ROOT
ATOM      1  C1  UNL     1       4.381   1.441  -0.066  0.00  0.00    +0.000 A 
ATOM      2  N1  UNL     1       3.809   2.319  -0.894  0.00  0.00    +0.000 NA
ATOM      3  N2  UNL     1       2.609   1.765  -1.155  0.00  0.00    +0.000 N 
ATOM      4  C2  UNL     1       2.380   0.594  -0.480  0.00  0.00    +0.000 A 
ATOM      5  C3  UNL     1       3.548   0.338   0.225  0.00  0.00    +0.000 A 
ATOM      6  C4  UNL     1       1.264  -0.252  -0.447  0.00  0.00    +0.000 A 
ATOM      7  C5  UNL     1       1.392  -1.443   0.285  0.00  0.00    +0.000 A 
ATOM      8  C6  UNL     1       2.558  -1.725   1.001  0.00  0.00    +0.000 A 
ATOM      9  C7  UNL     1       3.642  -0.836   0.993  0.00  0.00    +0.000 A 
ATOM     10  H2  UNL     1       1.983   2.219  -1.815  0.00  0.00    +0.000 HD
ENDROOT
BRANCH   6  11
ATOM     11  C8  UNL     1       0.057   0.104  -1.228  0.00  0.00    +0.000 C 
ATOM     12  O1  UNL     1       0.229   0.644  -2.321  0.00  0.00    +0.000 OA
ATOM     13  N3  UNL     1      -1.207  -0.148  -0.708  0.00  0.00    +0.000 N 
ATOM     14  C9  UNL     1      -2.362   0.105  -1.570  0.00  0.00    +0.000 C 
ATOM     15  C10 UNL     1      -3.647  -0.544  -1.028  0.00  0.00    +0.000 C 
ATOM     16  N4  UNL     1      -4.002  -0.170   0.352  0.00  0.00    +0.000 NA
ATOM     17  C11 UNL     1      -2.846   0.330   1.114  0.00  0.00    +0.000 C 
ATOM     18  C12 UNL     1      -1.505  -0.320   0.722  0.00  0.00    +0.000 C 
ATOM     19  H10 UNL     1      -4.724   0.551   0.340  0.00  0.00    +0.000 HD
ENDBRANCH   6  11
TORSDOF 1
