REMARK  Name = /home/anacleto/Desktop/manuscript_Mpro/naturecomm/supplementary_file_S2/6-chemical-library/molecular_docking/3D_ligand_structure/2071.pdb
REMARK  1 active torsions:
REMARK  status: ('A' for Active; 'I' for Inactive)
REMARK    1  A    between atoms: C5_6  and  C8_10
REMARK                            x       y       z     vdW  Elec       q    Type
REMARK                         _______ _______ _______ _____ _____    ______ ____
ROOT
ATOM      1  C1  UNL     1      -4.132  -0.686   1.323  0.00  0.00    +0.000 A 
ATOM      2  C2  UNL     1      -3.529  -1.909   1.130  0.00  0.00    +0.000 A 
ATOM      3  N1  UNL     1      -2.372  -1.702   0.427  0.00  0.00    +0.000 N 
ATOM      4  C3  UNL     1      -2.205  -0.356   0.180  0.00  0.00    +0.000 A 
ATOM      5  C4  UNL     1      -3.313   0.305   0.713  0.00  0.00    +0.000 A 
ATOM      6  C5  UNL     1      -1.178   0.328  -0.476  0.00  0.00    +0.000 A 
ATOM      7  C6  UNL     1      -1.387   1.693  -0.622  0.00  0.00    +0.000 A 
ATOM      8  N2  UNL     1      -2.441   2.378  -0.115  0.00  0.00    +0.000 NA
ATOM      9  C7  UNL     1      -3.402   1.695   0.560  0.00  0.00    +0.000 A 
ATOM     10  H3  UNL     1      -1.735  -2.418   0.096  0.00  0.00    +0.000 HD
ENDROOT
BRANCH   6  11
ATOM     11  C8  UNL     1      -0.011  -0.385  -1.025  0.00  0.00    +0.000 C 
ATOM     12  O1  UNL     1      -0.206  -1.493  -1.524  0.00  0.00    +0.000 OA
ATOM     13  N3  UNL     1       1.254   0.192  -0.933  0.00  0.00    +0.000 N 
ATOM     14  C9  UNL     1       1.629   1.159   0.112  0.00  0.00    +0.000 C 
ATOM     15  C10 UNL     1       3.116   1.051   0.519  0.00  0.00    +0.000 C 
ATOM     16  N4  UNL     1       3.563  -0.338   0.709  0.00  0.00    +0.000 NA
ATOM     17  C11 UNL     1       3.272  -1.167  -0.484  0.00  0.00    +0.000 C 
ATOM     18  C12 UNL     1       2.383  -0.503  -1.553  0.00  0.00    +0.000 C 
ATOM     19  H10 UNL     1       3.047  -0.736   1.495  0.00  0.00    +0.000 HD
ENDBRANCH   6  11
TORSDOF 1
