REMARK  Name = /home/anacleto/Desktop/manuscript_Mpro/naturecomm/supplementary_file_S2/6-chemical-library/molecular_docking/3D_ligand_structure/2073.pdb
REMARK  1 active torsions:
REMARK  status: ('A' for Active; 'I' for Inactive)
REMARK    1  A    between atoms: C5_7  and  C6_9
REMARK                            x       y       z     vdW  Elec       q    Type
REMARK                         _______ _______ _______ _____ _____    ______ ____
ROOT
ATOM      1  C1  UNL     1      -1.696  -1.405  -0.395  0.00  0.00    +0.000 C 
ATOM      2  C2  UNL     1      -2.416  -1.268   0.966  0.00  0.00    +0.000 C 
ATOM      3  N1  UNL     1      -3.702  -0.555   0.860  0.00  0.00    +0.000 NA
ATOM      4  C3  UNL     1      -3.515   0.753   0.199  0.00  0.00    +0.000 C 
ATOM      5  C4  UNL     1      -2.810   0.618  -1.164  0.00  0.00    +0.000 C 
ATOM      6  N2  UNL     1      -1.534  -0.087  -1.027  0.00  0.00    +0.000 N 
ATOM      7  C5  UNL     1      -0.404   0.698  -0.766  0.00  0.00    +0.000 C 
ATOM      8  O1  UNL     1      -0.490   1.904  -0.543  0.00  0.00    +0.000 OA
ATOM      9  H5  UNL     1      -4.080  -0.403   1.795  0.00  0.00    +0.000 HD
ENDROOT
BRANCH   7  10
ATOM     10  C6  UNL     1       0.889   0.035  -0.811  0.00  0.00    +0.000 A 
ATOM     11  C7  UNL     1       1.313  -1.047  -1.611  0.00  0.00    +0.000 A 
ATOM     12  N3  UNL     1       2.580  -1.402  -1.399  0.00  0.00    +0.000 NA
ATOM     13  N4  UNL     1       3.034  -0.513  -0.478  0.00  0.00    +0.000 N 
ATOM     14  C8  UNL     1       2.026   0.382  -0.106  0.00  0.00    +0.000 A 
ATOM     15  C9  UNL     1       4.318  -0.452   0.067  0.00  0.00    +0.000 A 
ATOM     16  C10 UNL     1       4.622   0.490   0.975  0.00  0.00    +0.000 A 
ATOM     17  C11 UNL     1       3.595   1.438   1.370  0.00  0.00    +0.000 A 
ATOM     18  C12 UNL     1       2.353   1.388   0.852  0.00  0.00    +0.000 A 
ENDBRANCH   7  10
TORSDOF 1
