REMARK  Name = /home/anacleto/Desktop/manuscript_Mpro/naturecomm/supplementary_file_S2/6-chemical-library/molecular_docking/3D_ligand_structure/2084.pdb
REMARK  2 active torsions:
REMARK  status: ('A' for Active; 'I' for Inactive)
REMARK    1  A    between atoms: C2_5  and  C4_8
REMARK    2  A    between atoms: C4_8  and  C5_9
REMARK                            x       y       z     vdW  Elec       q    Type
REMARK                         _______ _______ _______ _____ _____    ______ ____
ROOT
ATOM      1  C4  UNL     1      -1.293  -1.323   0.190  0.00  0.00    +0.000 C 
ENDROOT
BRANCH   1   6
ATOM      2  N1  UNL     1      -4.458   0.057   0.195  0.00  0.00    +0.000 N 
ATOM      3  C1  UNL     1      -3.721   1.084   0.677  0.00  0.00    +0.000 C 
ATOM      4  O1  UNL     1      -4.133   2.013   1.347  0.00  0.00    +0.000 OA
ATOM      5  N2  UNL     1      -2.417   0.897   0.292  0.00  0.00    +0.000 N 
ATOM      6  C2  UNL     1      -2.234  -0.321  -0.465  0.00  0.00    +0.000 C 
ATOM      7  C3  UNL     1      -3.671  -0.840  -0.457  0.00  0.00    +0.000 C 
ATOM      8  O2  UNL     1      -4.056  -1.891  -0.948  0.00  0.00    +0.000 OA
ATOM      9  H1  UNL     1      -5.443  -0.054   0.362  0.00  0.00    +0.000 HD
ATOM     10  H2  UNL     1      -1.675   1.531   0.566  0.00  0.00    +0.000 HD
ENDBRANCH   1   6
BRANCH   1  11
ATOM     11  C5  UNL     1       0.125  -0.888   0.089  0.00  0.00    +0.000 A 
ATOM     12  C6  UNL     1       1.201  -1.328  -0.653  0.00  0.00    +0.000 A 
ATOM     13  O3  UNL     1       0.493   0.166   0.873  0.00  0.00    +0.000 OA
ATOM     14  C7  UNL     1       1.811   0.404   0.632  0.00  0.00    +0.000 A 
ATOM     15  C8  UNL     1       2.299  -0.496  -0.309  0.00  0.00    +0.000 A 
ATOM     16  C9  UNL     1       2.577   1.401   1.231  0.00  0.00    +0.000 A 
ATOM     17  C10 UNL     1       3.918   1.476   0.841  0.00  0.00    +0.000 A 
ATOM     18  C11 UNL     1       4.447   0.591  -0.103  0.00  0.00    +0.000 A 
ATOM     19  C12 UNL     1       3.650  -0.404  -0.689  0.00  0.00    +0.000 A 
ENDBRANCH   1  11
TORSDOF 2
