REMARK  Name = /home/anacleto/Desktop/manuscript_Mpro/naturecomm/supplementary_file_S2/6-chemical-library/molecular_docking/3D_ligand_structure/2089.pdb
REMARK  3 active torsions:
REMARK  status: ('A' for Active; 'I' for Inactive)
REMARK    1  A    between atoms: C4_4  and  N1_5
REMARK    2  A    between atoms: C5_6  and  C6_8
REMARK    3  A    between atoms: C6_8  and  C7_9
REMARK                            x       y       z     vdW  Elec       q    Type
REMARK                         _______ _______ _______ _____ _____    ______ ____
ROOT
ATOM      1  C6  UNL     1       0.489  -2.439  -0.468  0.00  0.00    +0.000 C 
ENDROOT
BRANCH   1   2
ATOM      2  C7  UNL     1       1.136  -1.249  -1.092  0.00  0.00    +0.000 A 
ATOM      3  C8  UNL     1       1.187  -0.925  -2.463  0.00  0.00    +0.000 A 
ATOM      4  N2  UNL     1       1.816   0.223  -2.709  0.00  0.00    +0.000 NA
ATOM      5  N3  UNL     1       2.226   0.665  -1.493  0.00  0.00    +0.000 N 
ATOM      6  C9  UNL     1       1.820  -0.216  -0.485  0.00  0.00    +0.000 A 
ATOM      7  C10 UNL     1       2.943   1.829  -1.214  0.00  0.00    +0.000 A 
ATOM      8  C11 UNL     1       3.265   2.136   0.053  0.00  0.00    +0.000 A 
ATOM      9  C12 UNL     1       2.853   1.236   1.117  0.00  0.00    +0.000 A 
ATOM     10  C13 UNL     1       2.163   0.109   0.861  0.00  0.00    +0.000 A 
ENDBRANCH   1   2
BRANCH   1  12
ATOM     11  N1  UNL     1      -1.510  -1.157   0.146  0.00  0.00    +0.000 N 
ATOM     12  C5  UNL     1      -0.566  -2.075   0.565  0.00  0.00    +0.000 C 
ATOM     13  O1  UNL     1      -0.593  -2.600   1.676  0.00  0.00    +0.000 OA
ATOM     14  H8  UNL     1      -1.344  -0.690  -0.739  0.00  0.00    +0.000 HD
BRANCH  11  18
ATOM     15  C1  UNL     1      -3.452   0.448   0.423  0.00  0.00    +0.000 C 
ATOM     16  C2  UNL     1      -2.487   1.500   1.003  0.00  0.00    +0.000 C 
ATOM     17  C3  UNL     1      -2.061   0.443   2.041  0.00  0.00    +0.000 C 
ATOM     18  C4  UNL     1      -2.556  -0.644   1.056  0.00  0.00    +0.000 C 
ENDBRANCH  11  18
ENDBRANCH   1  12
TORSDOF 3
