REMARK  Name = /home/anacleto/Desktop/manuscript_Mpro/naturecomm/supplementary_file_S2/6-chemical-library/molecular_docking/3D_ligand_structure/209.pdb
REMARK  0 active torsions:
REMARK  status: ('A' for Active; 'I' for Inactive)
REMARK                            x       y       z     vdW  Elec       q    Type
REMARK                         _______ _______ _______ _____ _____    ______ ____
ROOT
ATOM      1  O1  UNL     1       2.465   1.722   0.086  0.00  0.00    +0.000 OA
ATOM      2  C1  UNL     1       1.938   0.644  -0.130  0.00  0.00    +0.000 A 
ATOM      3  N1  UNL     1       2.582  -0.498  -0.552  0.00  0.00    +0.000 N 
ATOM      4  S1  UNL     1       1.595  -1.865  -0.776  0.00  0.00    +0.000 S 
ATOM      5  C2  UNL     1       0.168  -0.935  -0.288  0.00  0.00    +0.000 A 
ATOM      6  C3  UNL     1       0.497   0.383   0.027  0.00  0.00    +0.000 A 
ATOM      7  C4  UNL     1      -1.144  -1.370  -0.199  0.00  0.00    +0.000 A 
ATOM      8  C5  UNL     1      -2.124  -0.459   0.212  0.00  0.00    +0.000 A 
ATOM      9  C6  UNL     1      -1.784   0.868   0.528  0.00  0.00    +0.000 A 
ATOM     10  C7  UNL     1      -0.460   1.300   0.437  0.00  0.00    +0.000 A 
ATOM     11  H1  UNL     1       3.581  -0.499  -0.712  0.00  0.00    +0.000 HD
ENDROOT
TORSDOF 0
