REMARK  Name = /home/anacleto/Desktop/manuscript_Mpro/naturecomm/supplementary_file_S2/6-chemical-library/molecular_docking/3D_ligand_structure/2104.pdb
REMARK  2 active torsions:
REMARK  status: ('A' for Active; 'I' for Inactive)
REMARK    1  A    between atoms: C3_5  and  C4_6
REMARK    2  A    between atoms: N2_8  and  C5_9
REMARK                            x       y       z     vdW  Elec       q    Type
REMARK                         _______ _______ _______ _____ _____    ______ ____
ROOT
ATOM      1  C5  UNL     1      -0.399   0.290  -0.211  0.00  0.00    +0.000 A 
ATOM      2  C6  UNL     1      -1.309  -0.648   0.293  0.00  0.00    +0.000 A 
ATOM      3  C7  UNL     1      -0.867   1.381  -0.958  0.00  0.00    +0.000 A 
ATOM      4  C8  UNL     1      -2.231   1.570  -1.221  0.00  0.00    +0.000 A 
ATOM      5  C9  UNL     1      -3.109   0.617  -0.704  0.00  0.00    +0.000 A 
ATOM      6  C10 UNL     1      -2.683  -0.476   0.040  0.00  0.00    +0.000 A 
ATOM      7  N3  UNL     1      -4.473   0.499  -0.771  0.00  0.00    +0.000 N 
ATOM      8  N4  UNL     1      -4.964  -0.579  -0.133  0.00  0.00    +0.000 NA
ATOM      9  C11 UNL     1      -3.872  -1.170   0.359  0.00  0.00    +0.000 A 
ATOM     10  H7  UNL     1      -5.126   1.119  -1.236  0.00  0.00    +0.000 HD
ENDROOT
BRANCH   1  13
ATOM     11  C4  UNL     1       1.704  -0.754   0.676  0.00  0.00    +0.000 C 
ATOM     12  O2  UNL     1       1.255  -1.734   1.256  0.00  0.00    +0.000 OA
ATOM     13  N2  UNL     1       0.991   0.207  -0.013  0.00  0.00    +0.000 N 
ATOM     14  H3  UNL     1       1.570   0.938  -0.419  0.00  0.00    +0.000 HD
BRANCH  11  19
ATOM     15  N1  UNL     1       3.696   0.626   0.003  0.00  0.00    +0.000 NA
ATOM     16  C1  UNL     1       4.984   0.481   0.230  0.00  0.00    +0.000 A 
ATOM     17  O1  UNL     1       5.325  -0.613   0.965  0.00  0.00    +0.000 OA
ATOM     18  C2  UNL     1       4.133  -1.218   1.227  0.00  0.00    +0.000 A 
ATOM     19  C3  UNL     1       3.135  -0.471   0.645  0.00  0.00    +0.000 A 
ENDBRANCH  11  19
ENDBRANCH   1  13
TORSDOF 2
