REMARK  Name = /home/anacleto/Desktop/manuscript_Mpro/naturecomm/supplementary_file_S2/6-chemical-library/molecular_docking/3D_ligand_structure/2119.pdb
REMARK  1 active torsions:
REMARK  status: ('A' for Active; 'I' for Inactive)
REMARK    1  A    between atoms: N2_7  and  C4_8
REMARK                            x       y       z     vdW  Elec       q    Type
REMARK                         _______ _______ _______ _____ _____    ______ ____
ROOT
ATOM      1  C4  UNL     1      -0.270  -0.747  -0.131  0.00  0.00    +0.000 A 
ATOM      2  C5  UNL     1      -0.240  -2.145  -0.197  0.00  0.00    +0.000 A 
ATOM      3  N3  UNL     1       0.857  -2.913  -0.006  0.00  0.00    +0.000 NA
ATOM      4  C6  UNL     1       2.005  -2.257   0.251  0.00  0.00    +0.000 A 
ATOM      5  C7  UNL     1       2.131  -0.870   0.300  0.00  0.00    +0.000 A 
ATOM      6  C8  UNL     1       0.974  -0.078   0.088  0.00  0.00    +0.000 A 
ATOM      7  C9  UNL     1       3.386  -0.278   0.532  0.00  0.00    +0.000 A 
ATOM      8  C10 UNL     1       3.533   1.105   0.528  0.00  0.00    +0.000 A 
ATOM      9  C11 UNL     1       2.431   1.907   0.277  0.00  0.00    +0.000 A 
ATOM     10  C12 UNL     1       1.178   1.326   0.051  0.00  0.00    +0.000 A 
ENDROOT
BRANCH   1  17
ATOM     11  O1  UNL     1      -2.614  -1.487  -1.782  0.00  0.00    +0.000 OA
ATOM     12  C1  UNL     1      -2.572  -0.518  -1.034  0.00  0.00    +0.000 C 
ATOM     13  C2  UNL     1      -3.755   0.408  -0.820  0.00  0.00    +0.000 C 
ATOM     14  N1  UNL     1      -3.209   1.340   0.114  0.00  0.00    +0.000 N 
ATOM     15  C3  UNL     1      -1.940   0.973   0.514  0.00  0.00    +0.000 C 
ATOM     16  O2  UNL     1      -1.402   1.499   1.475  0.00  0.00    +0.000 OA
ATOM     17  N2  UNL     1      -1.515  -0.072  -0.271  0.00  0.00    +0.000 N 
ATOM     18  H3  UNL     1      -3.741   1.993   0.677  0.00  0.00    +0.000 HD
ENDBRANCH   1  17
TORSDOF 1
