REMARK  Name = /home/anacleto/Desktop/manuscript_Mpro/naturecomm/supplementary_file_S2/6-chemical-library/molecular_docking/3D_ligand_structure/2126.pdb
REMARK  3 active torsions:
REMARK  status: ('A' for Active; 'I' for Inactive)
REMARK    1  A    between atoms: C4_7  and  C6_10
REMARK    2  A    between atoms: C6_10  and  N5_11
REMARK    3  A    between atoms: N5_11  and  C7_12
REMARK                            x       y       z     vdW  Elec       q    Type
REMARK                         _______ _______ _______ _____ _____    ______ ____
ROOT
ATOM      1  N1  UNL     1      -5.351  -0.397  -1.112  0.00  0.00    +0.000 NA
ATOM      2  C1  UNL     1      -5.788   0.387  -0.089  0.00  0.00    +0.000 A 
ATOM      3  N2  UNL     1      -4.867   0.753   0.802  0.00  0.00    +0.000 NA
ATOM      4  N3  UNL     1      -3.755   0.161   0.310  0.00  0.00    +0.000 N 
ATOM      5  C2  UNL     1      -4.068  -0.541  -0.861  0.00  0.00    +0.000 A 
ATOM      6  C3  UNL     1      -2.463   0.179   0.817  0.00  0.00    +0.000 A 
ATOM      7  C4  UNL     1      -1.481  -0.477   0.177  0.00  0.00    +0.000 A 
ATOM      8  C5  UNL     1      -1.914  -1.193  -1.064  0.00  0.00    +0.000 A 
ATOM      9  N4  UNL     1      -3.116  -1.233  -1.555  0.00  0.00    +0.000 NA
ENDROOT
BRANCH   7  10
ATOM     10  C6  UNL     1      -0.053  -0.577   0.599  0.00  0.00    +0.000 C 
BRANCH  10  11
ATOM     11  N5  UNL     1       0.749   0.187  -0.341  0.00  0.00    +0.000 N 
ATOM     12  H6  UNL     1       0.369   1.113  -0.532  0.00  0.00    +0.000 HD
BRANCH  11  13
ATOM     13  C7  UNL     1       2.138   0.258  -0.163  0.00  0.00    +0.000 A 
ATOM     14  C8  UNL     1       2.882  -0.674   0.568  0.00  0.00    +0.000 A 
ATOM     15  C9  UNL     1       4.277  -0.585   0.649  0.00  0.00    +0.000 A 
ATOM     16  C10 UNL     1       4.955   0.424  -0.027  0.00  0.00    +0.000 A 
ATOM     17  C11 UNL     1       4.239   1.336  -0.795  0.00  0.00    +0.000 A 
ATOM     18  C12 UNL     1       2.846   1.242  -0.871  0.00  0.00    +0.000 A 
ENDBRANCH  11  13
ENDBRANCH  10  11
ENDBRANCH   7  10
TORSDOF 3
