REMARK  Name = /home/anacleto/Desktop/manuscript_Mpro/naturecomm/supplementary_file_S2/6-chemical-library/molecular_docking/3D_ligand_structure/2145.pdb
REMARK  2 active torsions:
REMARK  status: ('A' for Active; 'I' for Inactive)
REMARK    1  A    between atoms: C6_6  and  C7_7
REMARK    2  A    between atoms: C7_7  and  N1_8
REMARK                            x       y       z     vdW  Elec       q    Type
REMARK                         _______ _______ _______ _____ _____    ______ ____
ROOT
ATOM      1  N1  UNL     1       0.308   0.361  -0.791  0.00  0.00    +0.000 N 
ATOM      2  C8  UNL     1       1.073   1.419  -0.338  0.00  0.00    +0.000 C 
ATOM      3  O1  UNL     1       0.860   2.611  -0.447  0.00  0.00    +0.000 OA
ATOM      4  C9  UNL     1       0.852  -0.933  -0.417  0.00  0.00    +0.000 C 
ATOM      5  C10 UNL     1       2.117  -0.558   0.281  0.00  0.00    +0.000 A 
ATOM      6  C11 UNL     1       2.240   0.831   0.331  0.00  0.00    +0.000 A 
ATOM      7  C12 UNL     1       3.090  -1.365   0.844  0.00  0.00    +0.000 A 
ATOM      8  C13 UNL     1       4.187  -0.746   1.455  0.00  0.00    +0.000 A 
ATOM      9  C14 UNL     1       4.298   0.657   1.498  0.00  0.00    +0.000 A 
ATOM     10  C15 UNL     1       3.312   1.465   0.929  0.00  0.00    +0.000 A 
ENDROOT
BRANCH   1  11
ATOM     11  C7  UNL     1      -0.973   0.507  -1.450  0.00  0.00    +0.000 C 
BRANCH  11  17
ATOM     12  C1  UNL     1      -2.885  -1.006  -0.768  0.00  0.00    +0.000 A 
ATOM     13  C2  UNL     1      -3.943  -1.331   0.082  0.00  0.00    +0.000 A 
ATOM     14  C3  UNL     1      -4.251  -0.506   1.163  0.00  0.00    +0.000 A 
ATOM     15  C4  UNL     1      -3.503   0.646   1.395  0.00  0.00    +0.000 A 
ATOM     16  C5  UNL     1      -2.445   0.974   0.546  0.00  0.00    +0.000 A 
ATOM     17  C6  UNL     1      -2.126   0.152  -0.545  0.00  0.00    +0.000 A 
ENDBRANCH  11  17
ENDBRANCH   1  11
TORSDOF 2
