REMARK  Name = /home/anacleto/Desktop/manuscript_Mpro/naturecomm/supplementary_file_S2/6-chemical-library/molecular_docking/3D_ligand_structure/2147.pdb
REMARK  1 active torsions:
REMARK  status: ('A' for Active; 'I' for Inactive)
REMARK    1  A    between atoms: C9_11  and  C10_12
REMARK                            x       y       z     vdW  Elec       q    Type
REMARK                         _______ _______ _______ _____ _____    ______ ____
ROOT
ATOM      1  C1  UNL     1      -0.945   1.603   0.081  0.00  0.00    +0.000 A 
ATOM      2  C2  UNL     1      -2.059   2.365  -0.273  0.00  0.00    +0.000 A 
ATOM      3  C3  UNL     1      -3.283   1.745  -0.508  0.00  0.00    +0.000 A 
ATOM      4  C4  UNL     1      -3.395   0.362  -0.384  0.00  0.00    +0.000 A 
ATOM      5  C5  UNL     1      -2.277  -0.414  -0.042  0.00  0.00    +0.000 A 
ATOM      6  C6  UNL     1      -1.032   0.205   0.184  0.00  0.00    +0.000 A 
ATOM      7  C7  UNL     1      -2.432  -1.904   0.143  0.00  0.00    +0.000 C 
ATOM      8  C8  UNL     1      -1.143  -2.695   0.066  0.00  0.00    +0.000 C 
ATOM      9  O1  UNL     1      -1.133  -3.922  -0.016  0.00  0.00    +0.000 OA
ATOM     10  N1  UNL     1       0.031  -2.004   0.091  0.00  0.00    +0.000 N 
ATOM     11  C9  UNL     1       0.141  -0.659   0.620  0.00  0.00    +0.000 C 
ATOM     12  H7  UNL     1       0.852  -2.594   0.127  0.00  0.00    +0.000 HD
ENDROOT
BRANCH  11  13
ATOM     13  C10 UNL     1       1.519  -0.111   0.281  0.00  0.00    +0.000 A 
ATOM     14  C11 UNL     1       2.396   0.289   1.302  0.00  0.00    +0.000 A 
ATOM     15  C12 UNL     1       3.661   0.792   0.994  0.00  0.00    +0.000 A 
ATOM     16  C13 UNL     1       4.067   0.900  -0.334  0.00  0.00    +0.000 A 
ATOM     17  C14 UNL     1       3.209   0.505  -1.359  0.00  0.00    +0.000 A 
ATOM     18  C15 UNL     1       1.944   0.002  -1.055  0.00  0.00    +0.000 A 
ENDBRANCH  11  13
TORSDOF 1
