REMARK  Name = /home/anacleto/Desktop/manuscript_Mpro/naturecomm/supplementary_file_S2/6-chemical-library/molecular_docking/3D_ligand_structure/2156.pdb
REMARK  2 active torsions:
REMARK  status: ('A' for Active; 'I' for Inactive)
REMARK    1  A    between atoms: C6_6  and  C7_7
REMARK    2  A    between atoms: C7_7  and  C8_8
REMARK                            x       y       z     vdW  Elec       q    Type
REMARK                         _______ _______ _______ _____ _____    ______ ____
ROOT
ATOM      1  C8  UNL     1      -0.159  -0.039  -0.963  0.00  0.00    +0.000 A 
ATOM      2  C9  UNL     1      -0.450  -1.345  -0.560  0.00  0.00    +0.000 A 
ATOM      3  C10 UNL     1      -1.699  -1.650  -0.021  0.00  0.00    +0.000 A 
ATOM      4  C11 UNL     1      -1.146   0.951  -0.816  0.00  0.00    +0.000 A 
ATOM      5  C12 UNL     1      -2.399   0.674  -0.282  0.00  0.00    +0.000 A 
ATOM      6  C13 UNL     1      -2.675  -0.649   0.120  0.00  0.00    +0.000 A 
ATOM      7  N1  UNL     1      -3.302   1.664  -0.166  0.00  0.00    +0.000 NA
ATOM      8  C14 UNL     1      -4.510   1.362   0.358  0.00  0.00    +0.000 A 
ATOM      9  C15 UNL     1      -4.874   0.098   0.780  0.00  0.00    +0.000 A 
ATOM     10  C16 UNL     1      -3.939  -0.923   0.659  0.00  0.00    +0.000 A 
ENDROOT
BRANCH   1  11
ATOM     11  C7  UNL     1       1.192   0.309  -1.546  0.00  0.00    +0.000 C 
BRANCH  11  17
ATOM     12  C1  UNL     1       2.418   1.109   0.520  0.00  0.00    +0.000 A 
ATOM     13  C2  UNL     1       3.469   1.021   1.433  0.00  0.00    +0.000 A 
ATOM     14  C3  UNL     1       4.445   0.038   1.281  0.00  0.00    +0.000 A 
ATOM     15  C4  UNL     1       4.371  -0.857   0.216  0.00  0.00    +0.000 A 
ATOM     16  C5  UNL     1       3.319  -0.771  -0.699  0.00  0.00    +0.000 A 
ATOM     17  C6  UNL     1       2.331   0.213  -0.556  0.00  0.00    +0.000 A 
ENDBRANCH  11  17
ENDBRANCH   1  11
TORSDOF 2
