REMARK  Name = /home/anacleto/Desktop/manuscript_Mpro/naturecomm/supplementary_file_S2/6-chemical-library/molecular_docking/3D_ligand_structure/216.pdb
REMARK  0 active torsions:
REMARK  status: ('A' for Active; 'I' for Inactive)
REMARK                            x       y       z     vdW  Elec       q    Type
REMARK                         _______ _______ _______ _____ _____    ______ ____
ROOT
ATOM      1  O1  UNL     1      -0.997  -1.212  -0.887  0.00  0.00    +0.000 OA
ATOM      2  C1  UNL     1      -2.161  -0.872  -0.124  0.00  0.00    +0.000 C 
ATOM      3  C2  UNL     1      -2.245   0.631   0.085  0.00  0.00    +0.000 C 
ATOM      4  O2  UNL     1      -1.140   1.095   0.868  0.00  0.00    +0.000 OA
ATOM      5  C3  UNL     1       0.043   0.556   0.429  0.00  0.00    +0.000 A 
ATOM      6  C4  UNL     1       0.111  -0.548  -0.427  0.00  0.00    +0.000 A 
ATOM      7  C5  UNL     1       1.214   1.160   0.884  0.00  0.00    +0.000 A 
ATOM      8  C6  UNL     1       2.454   0.679   0.460  0.00  0.00    +0.000 A 
ATOM      9  C7  UNL     1       2.521  -0.406  -0.416  0.00  0.00    +0.000 A 
ATOM     10  C8  UNL     1       1.349  -1.019  -0.861  0.00  0.00    +0.000 A 
ENDROOT
TORSDOF 0
