REMARK  Name = /home/anacleto/Desktop/manuscript_Mpro/naturecomm/supplementary_file_S2/6-chemical-library/molecular_docking/3D_ligand_structure/2163.pdb
REMARK  1 active torsions:
REMARK  status: ('A' for Active; 'I' for Inactive)
REMARK    1  A    between atoms: C2_5  and  C3_6
REMARK                            x       y       z     vdW  Elec       q    Type
REMARK                         _______ _______ _______ _____ _____    ______ ____
ROOT
ATOM      1  C3  UNL     1       1.275  -1.385  -0.126  0.00  0.00    +0.000 C 
ATOM      2  O1  UNL     1       1.024  -2.555  -0.407  0.00  0.00    +0.000 OA
ATOM      3  N3  UNL     1       0.335  -0.358  -0.317  0.00  0.00    +0.000 N 
ATOM      4  C4  UNL     1       0.117   0.656   0.733  0.00  0.00    +0.000 C 
ATOM      5  C5  UNL     1      -0.885   0.115   1.804  0.00  0.00    +0.000 C 
ATOM      6  N4  UNL     1      -1.495  -1.193   1.502  0.00  0.00    +0.000 NA
ATOM      7  C6  UNL     1      -1.944  -1.280   0.097  0.00  0.00    +0.000 C 
ATOM      8  C7  UNL     1      -0.392   1.947   0.069  0.00  0.00    +0.000 C 
ATOM      9  C8  UNL     1      -1.650   1.717  -0.771  0.00  0.00    +0.000 C 
ATOM     10  C9  UNL     1      -1.491   0.506  -1.693  0.00  0.00    +0.000 C 
ATOM     11  C10 UNL     1      -0.937  -0.727  -0.958  0.00  0.00    +0.000 C 
ATOM     12  H5  UNL     1      -0.775  -1.911   1.622  0.00  0.00    +0.000 HD
ENDROOT
BRANCH   1  17
ATOM     13  N1  UNL     1       3.269  -1.805   1.286  0.00  0.00    +0.000 NA
ATOM     14  N2  UNL     1       4.442  -1.296   1.626  0.00  0.00    +0.000 NA
ATOM     15  S1  UNL     1       4.783   0.137   0.837  0.00  0.00    +0.000 S 
ATOM     16  C1  UNL     1       3.294   0.138  -0.010  0.00  0.00    +0.000 A 
ATOM     17  C2  UNL     1       2.590  -0.994   0.379  0.00  0.00    +0.000 A 
ENDBRANCH   1  17
TORSDOF 1
