REMARK  Name = /home/anacleto/Desktop/manuscript_Mpro/naturecomm/supplementary_file_S2/6-chemical-library/molecular_docking/3D_ligand_structure/2172.pdb
REMARK  2 active torsions:
REMARK  status: ('A' for Active; 'I' for Inactive)
REMARK    1  A    between atoms: C4_9  and  S1_10
REMARK    2  A    between atoms: S1_10  and  C5_11
REMARK                            x       y       z     vdW  Elec       q    Type
REMARK                         _______ _______ _______ _____ _____    ______ ____
ROOT
ATOM      1  N1  UNL     1       0.862  -1.021  -1.556  0.00  0.00    +0.000 NA
ATOM      2  N2  UNL     1       1.376  -2.246  -1.639  0.00  0.00    +0.000 NA
ATOM      3  N3  UNL     1       2.409  -2.308  -0.777  0.00  0.00    +0.000 N 
ATOM      4  C1  UNL     1       2.593  -1.125  -0.130  0.00  0.00    +0.000 A 
ATOM      5  C2  UNL     1       1.590  -0.315  -0.629  0.00  0.00    +0.000 A 
ATOM      6  N4  UNL     1       3.534  -0.813   0.776  0.00  0.00    +0.000 NA
ATOM      7  C3  UNL     1       3.404   0.468   1.177  0.00  0.00    +0.000 A 
ATOM      8  N5  UNL     1       2.490   1.376   0.779  0.00  0.00    +0.000 NA
ATOM      9  C4  UNL     1       1.544   0.982  -0.118  0.00  0.00    +0.000 A 
ATOM     10  H1  UNL     1       2.938  -3.166  -0.688  0.00  0.00    +0.000 HD
ENDROOT
BRANCH   9  11
ATOM     11  S1  UNL     1       0.347   2.147  -0.679  0.00  0.00    +0.000 S 
BRANCH  11  12
ATOM     12  C5  UNL     1      -1.171   1.275  -0.349  0.00  0.00    +0.000 A 
ATOM     13  C6  UNL     1      -2.221   1.372  -1.255  0.00  0.00    +0.000 A 
ATOM     14  C7  UNL     1      -3.407   0.694  -0.983  0.00  0.00    +0.000 A 
ATOM     15  C8  UNL     1      -3.509  -0.054   0.183  0.00  0.00    +0.000 A 
ATOM     16  C9  UNL     1      -2.418  -0.090   1.033  0.00  0.00    +0.000 A 
ATOM     17  N6  UNL     1      -1.257   0.559   0.797  0.00  0.00    +0.000 NA
ENDBRANCH  11  12
ENDBRANCH   9  11
TORSDOF 2
