REMARK  Name = /home/anacleto/Desktop/manuscript_Mpro/naturecomm/supplementary_file_S2/6-chemical-library/molecular_docking/3D_ligand_structure/219.pdb
REMARK  0 active torsions:
REMARK  status: ('A' for Active; 'I' for Inactive)
REMARK                            x       y       z     vdW  Elec       q    Type
REMARK                         _______ _______ _______ _____ _____    ______ ____
ROOT
ATOM      1  C1  UNL     1       2.126   0.589  -0.154  0.00  0.00    +0.000 A 
ATOM      2  N1  UNL     1       2.708  -0.646  -0.165  0.00  0.00    +0.000 NA
ATOM      3  N2  UNL     1       1.745  -1.558  -0.080  0.00  0.00    +0.000 NA
ATOM      4  N3  UNL     1       0.554  -0.917  -0.016  0.00  0.00    +0.000 N 
ATOM      5  C2  UNL     1       0.768   0.443  -0.061  0.00  0.00    +0.000 A 
ATOM      6  C3  UNL     1      -0.730  -1.438   0.081  0.00  0.00    +0.000 A 
ATOM      7  C4  UNL     1      -1.779  -0.605   0.131  0.00  0.00    +0.000 A 
ATOM      8  N4  UNL     1      -1.574   0.758   0.087  0.00  0.00    +0.000 N 
ATOM      9  C5  UNL     1      -0.327   1.362  -0.009  0.00  0.00    +0.000 A 
ATOM     10  O1  UNL     1      -0.215   2.582  -0.044  0.00  0.00    +0.000 OA
ATOM     11  H4  UNL     1      -2.363   1.395   0.125  0.00  0.00    +0.000 HD
ENDROOT
TORSDOF 0
