REMARK  Name = /home/anacleto/Desktop/manuscript_Mpro/naturecomm/supplementary_file_S2/6-chemical-library/molecular_docking/3D_ligand_structure/2204.pdb
REMARK  1 active torsions:
REMARK  status: ('A' for Active; 'I' for Inactive)
REMARK    1  A    between atoms: C9_9  and  C10_10
REMARK                            x       y       z     vdW  Elec       q    Type
REMARK                         _______ _______ _______ _____ _____    ______ ____
ROOT
ATOM      1  C1  UNL     1      -0.827  -1.191   0.848  0.00  0.00    +0.000 A 
ATOM      2  C2  UNL     1      -2.060  -1.838   0.724  0.00  0.00    +0.000 A 
ATOM      3  C3  UNL     1      -3.147  -1.197   0.116  0.00  0.00    +0.000 A 
ATOM      4  C4  UNL     1      -3.019   0.104  -0.370  0.00  0.00    +0.000 A 
ATOM      5  C5  UNL     1      -1.789   0.733  -0.254  0.00  0.00    +0.000 A 
ATOM      6  C6  UNL     1      -0.693   0.091   0.338  0.00  0.00    +0.000 A 
ATOM      7  C7  UNL     1      -1.452   2.135  -0.651  0.00  0.00    +0.000 C 
ATOM      8  C8  UNL     1       0.080   2.081  -0.666  0.00  0.00    +0.000 C 
ATOM      9  C9  UNL     1       0.498   1.016   0.376  0.00  0.00    +0.000 C 
ENDROOT
BRANCH   9  10
ATOM     10  C10 UNL     1       1.887   0.444   0.091  0.00  0.00    +0.000 C 
ATOM     11  C11 UNL     1       1.984  -0.539  -1.081  0.00  0.00    +0.000 C 
ATOM     12  O1  UNL     1       1.689  -0.318  -2.246  0.00  0.00    +0.000 OA
ATOM     13  N1  UNL     1       2.405  -0.389   1.156  0.00  0.00    +0.000 N 
ATOM     14  C12 UNL     1       2.842  -1.606   0.687  0.00  0.00    +0.000 C 
ATOM     15  O2  UNL     1       3.429  -2.439   1.352  0.00  0.00    +0.000 OA
ATOM     16  N2  UNL     1       2.525  -1.702  -0.624  0.00  0.00    +0.000 N 
ATOM     17  H11 UNL     1       2.664  -0.076   2.083  0.00  0.00    +0.000 HD
ATOM     18  H12 UNL     1       2.751  -2.491  -1.203  0.00  0.00    +0.000 HD
ENDBRANCH   9  10
TORSDOF 1
