REMARK  Name = /home/anacleto/Desktop/manuscript_Mpro/naturecomm/supplementary_file_S2/6-chemical-library/molecular_docking/3D_ligand_structure/2213.pdb
REMARK  2 active torsions:
REMARK  status: ('A' for Active; 'I' for Inactive)
REMARK    1  A    between atoms: C4_5  and  C5_7
REMARK    2  A    between atoms: C5_7  and  C6_8
REMARK                            x       y       z     vdW  Elec       q    Type
REMARK                         _______ _______ _______ _____ _____    ______ ____
ROOT
ATOM      1  C6  UNL     1       0.764  -1.084  -0.430  0.00  0.00    +0.000 A 
ATOM      2  C7  UNL     1       1.065  -2.049   0.557  0.00  0.00    +0.000 A 
ATOM      3  N2  UNL     1       2.099  -1.711   1.326  0.00  0.00    +0.000 NA
ATOM      4  N3  UNL     1       2.512  -0.512   0.847  0.00  0.00    +0.000 N 
ATOM      5  C8  UNL     1       1.716  -0.103  -0.230  0.00  0.00    +0.000 A 
ATOM      6  C9  UNL     1       3.575   0.262   1.317  0.00  0.00    +0.000 A 
ATOM      7  C10 UNL     1       3.864   1.437   0.735  0.00  0.00    +0.000 A 
ATOM      8  C11 UNL     1       3.056   1.878  -0.388  0.00  0.00    +0.000 A 
ATOM      9  C12 UNL     1       2.028   1.142  -0.852  0.00  0.00    +0.000 A 
ENDROOT
BRANCH   1  10
ATOM     10  C5  UNL     1      -0.321  -1.141  -1.448  0.00  0.00    +0.000 C 
BRANCH  10  15
ATOM     11  C1  UNL     1      -3.656  -0.444   0.349  0.00  0.00    +0.000 C 
ATOM     12  C2  UNL     1      -3.292   0.974   0.795  0.00  0.00    +0.000 C 
ATOM     13  C3  UNL     1      -2.160   0.975  -0.237  0.00  0.00    +0.000 C 
ATOM     14  N1  UNL     1      -2.436  -0.431  -0.435  0.00  0.00    +0.000 N 
ATOM     15  C4  UNL     1      -1.664  -1.487  -0.830  0.00  0.00    +0.000 C 
ATOM     16  O1  UNL     1      -2.026  -2.656  -0.692  0.00  0.00    +0.000 OA
ENDBRANCH  10  15
ENDBRANCH   1  10
TORSDOF 2
