REMARK  Name = /home/anacleto/Desktop/manuscript_Mpro/naturecomm/supplementary_file_S2/6-chemical-library/molecular_docking/3D_ligand_structure/2228.pdb
REMARK  2 active torsions:
REMARK  status: ('A' for Active; 'I' for Inactive)
REMARK    1  A    between atoms: C3_5  and  C4_6
REMARK    2  A    between atoms: C4_6  and  N3_7
REMARK                            x       y       z     vdW  Elec       q    Type
REMARK                         _______ _______ _______ _____ _____    ______ ____
ROOT
ATOM      1  N3  UNL     1       0.551  -0.863  -0.061  0.00  0.00    +0.000 NA
ATOM      2  C5  UNL     1      -0.364  -1.998   0.140  0.00  0.00    +0.000 C 
ATOM      3  C6  UNL     1      -1.721  -1.730  -0.522  0.00  0.00    +0.000 C 
ATOM      4  C7  UNL     1       0.026   0.328   0.636  0.00  0.00    +0.000 C 
ATOM      5  C8  UNL     1      -1.438   0.611   0.364  0.00  0.00    +0.000 A 
ATOM      6  C9  UNL     1      -2.287  -0.386  -0.145  0.00  0.00    +0.000 A 
ATOM      7  C10 UNL     1      -1.973   1.868   0.683  0.00  0.00    +0.000 A 
ATOM      8  C11 UNL     1      -3.327   2.136   0.476  0.00  0.00    +0.000 A 
ATOM      9  C12 UNL     1      -4.160   1.150  -0.047  0.00  0.00    +0.000 A 
ATOM     10  C13 UNL     1      -3.643  -0.106  -0.360  0.00  0.00    +0.000 A 
ENDROOT
BRANCH   1  11
ATOM     11  C4  UNL     1       1.901  -1.208   0.399  0.00  0.00    +0.000 C 
BRANCH  11  16
ATOM     12  N1  UNL     1       3.747   0.436   0.887  0.00  0.00    +0.000 N 
ATOM     13  C1  UNL     1       4.544   1.288   0.177  0.00  0.00    +0.000 A 
ATOM     14  N2  UNL     1       4.270   1.248  -1.106  0.00  0.00    +0.000 NA
ATOM     15  C2  UNL     1       3.252   0.336  -1.229  0.00  0.00    +0.000 A 
ATOM     16  C3  UNL     1       2.907  -0.189  -0.001  0.00  0.00    +0.000 A 
ATOM     17  H1  UNL     1       3.780   0.296   1.887  0.00  0.00    +0.000 HD
ENDBRANCH  11  16
ENDBRANCH   1  11
TORSDOF 2
