REMARK  Name = /home/anacleto/Desktop/manuscript_Mpro/naturecomm/supplementary_file_S2/6-chemical-library/molecular_docking/3D_ligand_structure/2233.pdb
REMARK  2 active torsions:
REMARK  status: ('A' for Active; 'I' for Inactive)
REMARK    1  A    between atoms: C6_6  and  C7_7
REMARK    2  A    between atoms: C7_7  and  C8_8
REMARK                            x       y       z     vdW  Elec       q    Type
REMARK                         _______ _______ _______ _____ _____    ______ ____
ROOT
ATOM      1  C8  UNL     1      -0.513   0.218   0.934  0.00  0.00    +0.000 A 
ATOM      2  C9  UNL     1      -1.567  -0.711   0.948  0.00  0.00    +0.000 A 
ATOM      3  C10 UNL     1      -0.708   1.482   0.329  0.00  0.00    +0.000 A 
ATOM      4  C11 UNL     1      -1.932   1.821  -0.256  0.00  0.00    +0.000 A 
ATOM      5  C12 UNL     1      -2.940   0.883  -0.222  0.00  0.00    +0.000 A 
ATOM      6  C13 UNL     1      -2.762  -0.348   0.363  0.00  0.00    +0.000 A 
ATOM      7  O1  UNL     1      -4.188   1.038  -0.738  0.00  0.00    +0.000 OA
ATOM      8  C14 UNL     1      -4.775  -0.239  -0.413  0.00  0.00    +0.000 C 
ATOM      9  O2  UNL     1      -3.877  -1.123   0.289  0.00  0.00    +0.000 OA
ENDROOT
BRANCH   1  10
ATOM     10  C7  UNL     1       0.819  -0.131   1.561  0.00  0.00    +0.000 C 
BRANCH  10  16
ATOM     11  C1  UNL     1       3.000   0.639   0.533  0.00  0.00    +0.000 A 
ATOM     12  C2  UNL     1       4.040   0.494  -0.387  0.00  0.00    +0.000 A 
ATOM     13  C3  UNL     1       4.038  -0.573  -1.283  0.00  0.00    +0.000 A 
ATOM     14  C4  UNL     1       2.995  -1.497  -1.261  0.00  0.00    +0.000 A 
ATOM     15  C5  UNL     1       1.954  -1.355  -0.342  0.00  0.00    +0.000 A 
ATOM     16  C6  UNL     1       1.945  -0.285   0.565  0.00  0.00    +0.000 A 
ENDBRANCH  10  16
ENDBRANCH   1  10
TORSDOF 2
