REMARK  Name = /home/anacleto/Desktop/manuscript_Mpro/naturecomm/supplementary_file_S2/6-chemical-library/molecular_docking/3D_ligand_structure/2235.pdb
REMARK  1 active torsions:
REMARK  status: ('A' for Active; 'I' for Inactive)
REMARK    1  A    between atoms: N3_8  and  C6_11
REMARK                            x       y       z     vdW  Elec       q    Type
REMARK                         _______ _______ _______ _____ _____    ______ ____
ROOT
ATOM      1  O1  UNL     1       4.724  -0.221   0.612  0.00  0.00    +0.000 OA
ATOM      2  C1  UNL     1       3.670   0.012   0.033  0.00  0.00    +0.000 A 
ATOM      3  N1  UNL     1       3.617   0.540  -1.241  0.00  0.00    +0.000 N 
ATOM      4  C2  UNL     1       2.434   0.804  -1.898  0.00  0.00    +0.000 A 
ATOM      5  N2  UNL     1       1.247   0.596  -1.417  0.00  0.00    +0.000 NA
ATOM      6  C3  UNL     1       1.249   0.074  -0.157  0.00  0.00    +0.000 A 
ATOM      7  C4  UNL     1       2.370  -0.226   0.585  0.00  0.00    +0.000 A 
ATOM      8  N3  UNL     1       0.154  -0.264   0.640  0.00  0.00    +0.000 N 
ATOM      9  N4  UNL     1       0.577  -0.763   1.850  0.00  0.00    +0.000 NA
ATOM     10  C5  UNL     1       1.909  -0.731   1.796  0.00  0.00    +0.000 A 
ATOM     11  H1  UNL     1       4.506   0.728  -1.680  0.00  0.00    +0.000 HD
ENDROOT
BRANCH   8  12
ATOM     12  C6  UNL     1      -1.245  -0.162   0.371  0.00  0.00    +0.000 A 
ATOM     13  C7  UNL     1      -1.735   0.337  -0.842  0.00  0.00    +0.000 A 
ATOM     14  C8  UNL     1      -3.114   0.420  -1.067  0.00  0.00    +0.000 A 
ATOM     15  C9  UNL     1      -4.014   0.008  -0.086  0.00  0.00    +0.000 A 
ATOM     16  C10 UNL     1      -3.539  -0.490   1.124  0.00  0.00    +0.000 A 
ATOM     17  C11 UNL     1      -2.163  -0.576   1.353  0.00  0.00    +0.000 A 
ENDBRANCH   8  12
TORSDOF 1
