REMARK  Name = /home/anacleto/Desktop/manuscript_Mpro/naturecomm/supplementary_file_S2/6-chemical-library/molecular_docking/3D_ligand_structure/2242.pdb
REMARK  1 active torsions:
REMARK  status: ('A' for Active; 'I' for Inactive)
REMARK    1  A    between atoms: C9_10  and  C10_11
REMARK                            x       y       z     vdW  Elec       q    Type
REMARK                         _______ _______ _______ _____ _____    ______ ____
ROOT
ATOM      1  C1  UNL     1      -1.161  -1.886  -0.210  0.00  0.00    +0.000 A 
ATOM      2  C2  UNL     1      -2.143  -2.490   0.574  0.00  0.00    +0.000 A 
ATOM      3  C3  UNL     1      -3.090  -1.706   1.228  0.00  0.00    +0.000 A 
ATOM      4  C4  UNL     1      -3.056  -0.317   1.100  0.00  0.00    +0.000 A 
ATOM      5  C5  UNL     1      -2.067   0.306   0.324  0.00  0.00    +0.000 A 
ATOM      6  C6  UNL     1      -1.114  -0.489  -0.345  0.00  0.00    +0.000 A 
ATOM      7  C7  UNL     1      -2.089   1.809   0.165  0.00  0.00    +0.000 C 
ATOM      8  N1  UNL     1      -0.818   2.383  -0.287  0.00  0.00    +0.000 NA
ATOM      9  C8  UNL     1      -0.342   1.652  -1.473  0.00  0.00    +0.000 C 
ATOM     10  C9  UNL     1      -0.024   0.160  -1.190  0.00  0.00    +0.000 C 
ATOM     11  H7  UNL     1      -0.130   2.267   0.456  0.00  0.00    +0.000 HD
ENDROOT
BRANCH  10  12
ATOM     12  C10 UNL     1       1.385   0.001  -0.619  0.00  0.00    +0.000 A 
ATOM     13  C11 UNL     1       1.650   0.062   0.759  0.00  0.00    +0.000 A 
ATOM     14  C12 UNL     1       2.955  -0.067   1.241  0.00  0.00    +0.000 A 
ATOM     15  C13 UNL     1       4.013  -0.252   0.354  0.00  0.00    +0.000 A 
ATOM     16  C14 UNL     1       3.768  -0.309  -1.016  0.00  0.00    +0.000 A 
ATOM     17  C15 UNL     1       2.465  -0.182  -1.499  0.00  0.00    +0.000 A 
ENDBRANCH  10  12
TORSDOF 1
