REMARK  Name = /home/anacleto/Desktop/manuscript_Mpro/naturecomm/supplementary_file_S2/6-chemical-library/molecular_docking/3D_ligand_structure/2245.pdb
REMARK  2 active torsions:
REMARK  status: ('A' for Active; 'I' for Inactive)
REMARK    1  A    between atoms: C6_6  and  C7_7
REMARK    2  A    between atoms: C7_7  and  C8_8
REMARK                            x       y       z     vdW  Elec       q    Type
REMARK                         _______ _______ _______ _____ _____    ______ ____
ROOT
ATOM      1  C8  UNL     1      -0.372   0.871  -0.810  0.00  0.00    +0.000 A 
ATOM      2  N1  UNL     1      -1.429   1.660  -0.843  0.00  0.00    +0.000 NA
ATOM      3  N2  UNL     1      -0.685  -0.334  -0.221  0.00  0.00    +0.000 N 
ATOM      4  C9  UNL     1      -2.005  -0.307   0.147  0.00  0.00    +0.000 A 
ATOM      5  C10 UNL     1      -2.445   0.948  -0.253  0.00  0.00    +0.000 A 
ATOM      6  C11 UNL     1      -2.826  -1.244   0.778  0.00  0.00    +0.000 A 
ATOM      7  C12 UNL     1      -4.155  -0.864   1.000  0.00  0.00    +0.000 A 
ATOM      8  C13 UNL     1      -4.627   0.391   0.607  0.00  0.00    +0.000 A 
ATOM      9  C14 UNL     1      -3.780   1.311  -0.023  0.00  0.00    +0.000 A 
ATOM     10  H8  UNL     1      -0.040  -1.096  -0.068  0.00  0.00    +0.000 HD
ENDROOT
BRANCH   1  11
ATOM     11  C7  UNL     1       0.987   1.195  -1.347  0.00  0.00    +0.000 C 
BRANCH  11  17
ATOM     12  C1  UNL     1       2.564   0.750   0.580  0.00  0.00    +0.000 A 
ATOM     13  C2  UNL     1       3.578   0.009   1.188  0.00  0.00    +0.000 A 
ATOM     14  C3  UNL     1       4.148  -1.073   0.521  0.00  0.00    +0.000 A 
ATOM     15  C4  UNL     1       3.705  -1.417  -0.755  0.00  0.00    +0.000 A 
ATOM     16  C5  UNL     1       2.691  -0.679  -1.366  0.00  0.00    +0.000 A 
ATOM     17  C6  UNL     1       2.112   0.413  -0.704  0.00  0.00    +0.000 A 
ENDBRANCH  11  17
ENDBRANCH   1  11
TORSDOF 2
