REMARK  Name = /home/anacleto/Desktop/manuscript_Mpro/naturecomm/supplementary_file_S2/6-chemical-library/molecular_docking/3D_ligand_structure/2246.pdb
REMARK  2 active torsions:
REMARK  status: ('A' for Active; 'I' for Inactive)
REMARK    1  A    between atoms: C6_6  and  C7_7
REMARK    2  A    between atoms: C7_7  and  C8_8
REMARK                            x       y       z     vdW  Elec       q    Type
REMARK                         _______ _______ _______ _____ _____    ______ ____
ROOT
ATOM      1  C8  UNL     1       0.538  -0.993  -0.025  0.00  0.00    +0.000 A 
ATOM      2  C9  UNL     1       0.927  -1.641   1.134  0.00  0.00    +0.000 A 
ATOM      3  N1  UNL     1       2.111  -1.102   1.556  0.00  0.00    +0.000 N 
ATOM      4  C10 UNL     1       2.529  -0.127   0.682  0.00  0.00    +0.000 A 
ATOM      5  C11 UNL     1       1.566  -0.036  -0.323  0.00  0.00    +0.000 A 
ATOM      6  C12 UNL     1       3.678   0.674   0.708  0.00  0.00    +0.000 A 
ATOM      7  C13 UNL     1       3.850   1.596  -0.328  0.00  0.00    +0.000 A 
ATOM      8  C14 UNL     1       2.909   1.710  -1.348  0.00  0.00    +0.000 A 
ATOM      9  C15 UNL     1       1.766   0.902  -1.358  0.00  0.00    +0.000 A 
ATOM     10  H9  UNL     1       2.614  -1.379   2.387  0.00  0.00    +0.000 HD
ENDROOT
BRANCH   1  11
ATOM     11  C7  UNL     1      -0.694  -1.263  -0.829  0.00  0.00    +0.000 C 
BRANCH  11  17
ATOM     12  C1  UNL     1      -2.699  -1.375   0.710  0.00  0.00    +0.000 A 
ATOM     13  C2  UNL     1      -3.765  -0.775   1.384  0.00  0.00    +0.000 A 
ATOM     14  C3  UNL     1      -3.986   0.595   1.261  0.00  0.00    +0.000 A 
ATOM     15  C4  UNL     1      -3.142   1.367   0.466  0.00  0.00    +0.000 A 
ATOM     16  C5  UNL     1      -2.076   0.770  -0.209  0.00  0.00    +0.000 A 
ATOM     17  C6  UNL     1      -1.842  -0.610  -0.096  0.00  0.00    +0.000 A 
ENDBRANCH  11  17
ENDBRANCH   1  11
TORSDOF 2
