REMARK  Name = /home/anacleto/Desktop/manuscript_Mpro/naturecomm/supplementary_file_S2/6-chemical-library/molecular_docking/3D_ligand_structure/2249.pdb
REMARK  1 active torsions:
REMARK  status: ('A' for Active; 'I' for Inactive)
REMARK    1  A    between atoms: C9_10  and  C10_11
REMARK                            x       y       z     vdW  Elec       q    Type
REMARK                         _______ _______ _______ _____ _____    ______ ____
ROOT
ATOM      1  C1  UNL     1      -0.906   1.236  -0.694  0.00  0.00    +0.000 A 
ATOM      2  C2  UNL     1      -2.120   1.824  -1.047  0.00  0.00    +0.000 A 
ATOM      3  C3  UNL     1      -3.303   1.133  -0.826  0.00  0.00    +0.000 A 
ATOM      4  C4  UNL     1      -3.263  -0.139  -0.253  0.00  0.00    +0.000 A 
ATOM      5  C5  UNL     1      -2.068  -0.747   0.107  0.00  0.00    +0.000 A 
ATOM      6  C6  UNL     1      -0.855  -0.056  -0.114  0.00  0.00    +0.000 A 
ATOM      7  N1  UNL     1      -2.121  -1.972   0.655  0.00  0.00    +0.000 NA
ATOM      8  C7  UNL     1      -0.965  -2.565   1.007  0.00  0.00    +0.000 A 
ATOM      9  C8  UNL     1       0.275  -1.985   0.837  0.00  0.00    +0.000 A 
ATOM     10  C9  UNL     1       0.348  -0.710   0.266  0.00  0.00    +0.000 A 
ENDROOT
BRANCH  10  11
ATOM     11  C10 UNL     1       1.670  -0.099   0.081  0.00  0.00    +0.000 A 
ATOM     12  C11 UNL     1       2.305   0.589   1.114  0.00  0.00    +0.000 A 
ATOM     13  C12 UNL     1       3.548   1.140   0.872  0.00  0.00    +0.000 A 
ATOM     14  N2  UNL     1       4.171   1.037  -0.319  0.00  0.00    +0.000 NA
ATOM     15  N3  UNL     1       3.564   0.367  -1.334  0.00  0.00    +0.000 NA
ATOM     16  C13 UNL     1       2.348  -0.183  -1.128  0.00  0.00    +0.000 A 
ENDBRANCH  10  11
TORSDOF 1
