REMARK  Name = /home/anacleto/Desktop/manuscript_Mpro/naturecomm/supplementary_file_S2/6-chemical-library/molecular_docking/3D_ligand_structure/226.pdb
REMARK  0 active torsions:
REMARK  status: ('A' for Active; 'I' for Inactive)
REMARK                            x       y       z     vdW  Elec       q    Type
REMARK                         _______ _______ _______ _____ _____    ______ ____
ROOT
ATOM      1  C1  UNL     1      -0.744  -1.481  -0.171  0.00  0.00    +0.000 C 
ATOM      2  N1  UNL     1      -1.994  -0.743  -0.397  0.00  0.00    +0.000 NA
ATOM      3  C2  UNL     1      -2.061   0.427   0.482  0.00  0.00    +0.000 C 
ATOM      4  C3  UNL     1      -0.958   1.436   0.139  0.00  0.00    +0.000 C 
ATOM      5  C4  UNL     1       0.387   0.778   0.007  0.00  0.00    +0.000 A 
ATOM      6  C5  UNL     1       0.486  -0.607  -0.187  0.00  0.00    +0.000 A 
ATOM      7  C6  UNL     1       1.558   1.526   0.011  0.00  0.00    +0.000 A 
ATOM      8  N2  UNL     1       2.793   0.997  -0.133  0.00  0.00    +0.000 NA
ATOM      9  C7  UNL     1       2.862  -0.340  -0.302  0.00  0.00    +0.000 A 
ATOM     10  C8  UNL     1       1.755  -1.173  -0.333  0.00  0.00    +0.000 A 
ATOM     11  H3  UNL     1      -2.778  -1.363  -0.202  0.00  0.00    +0.000 HD
ENDROOT
TORSDOF 0
