REMARK  Name = /home/anacleto/Desktop/manuscript_Mpro/naturecomm/supplementary_file_S2/6-chemical-library/molecular_docking/3D_ligand_structure/2260.pdb
REMARK  2 active torsions:
REMARK  status: ('A' for Active; 'I' for Inactive)
REMARK    1  A    between atoms: C5_9  and  S1_10
REMARK    2  A    between atoms: S1_10  and  C6_11
REMARK                            x       y       z     vdW  Elec       q    Type
REMARK                         _______ _______ _______ _____ _____    ______ ____
ROOT
ATOM      1  N1  UNL     1      -1.028   1.216   1.417  0.00  0.00    +0.000 NA
ATOM      2  C1  UNL     1      -2.102   1.897   1.109  0.00  0.00    +0.000 A 
ATOM      3  N2  UNL     1      -3.011   1.313   0.240  0.00  0.00    +0.000 NA
ATOM      4  C2  UNL     1      -2.469   0.164  -0.012  0.00  0.00    +0.000 A 
ATOM      5  C3  UNL     1      -1.204   0.045   0.721  0.00  0.00    +0.000 A 
ATOM      6  N3  UNL     1      -2.958  -0.815  -0.825  0.00  0.00    +0.000 NA
ATOM      7  C4  UNL     1      -2.217  -1.874  -0.899  0.00  0.00    +0.000 A 
ATOM      8  N4  UNL     1      -1.034  -2.064  -0.243  0.00  0.00    +0.000 N 
ATOM      9  C5  UNL     1      -0.500  -1.091   0.585  0.00  0.00    +0.000 A 
ATOM     10  H3  UNL     1      -0.495  -2.915  -0.343  0.00  0.00    +0.000 HD
ENDROOT
BRANCH   9  11
ATOM     11  S1  UNL     1       0.996  -1.327   1.462  0.00  0.00    +0.000 S 
BRANCH  11  12
ATOM     12  C6  UNL     1       2.000  -0.295   0.514  0.00  0.00    +0.000 A 
ATOM     13  C7  UNL     1       3.015  -0.524  -0.380  0.00  0.00    +0.000 A 
ATOM     14  N5  UNL     1       3.511   0.667  -0.857  0.00  0.00    +0.000 NA
ATOM     15  C8  UNL     1       2.819   1.602  -0.243  0.00  0.00    +0.000 A 
ATOM     16  N6  UNL     1       1.899   1.064   0.612  0.00  0.00    +0.000 N 
ATOM     17  H6  UNL     1       1.230   1.565   1.184  0.00  0.00    +0.000 HD
ENDBRANCH  11  12
ENDBRANCH   9  11
TORSDOF 2
