REMARK  Name = /home/anacleto/Desktop/manuscript_Mpro/naturecomm/supplementary_file_S2/6-chemical-library/molecular_docking/3D_ligand_structure/2264.pdb
REMARK  1 active torsions:
REMARK  status: ('A' for Active; 'I' for Inactive)
REMARK    1  A    between atoms: C7_8  and  C8_10
REMARK                            x       y       z     vdW  Elec       q    Type
REMARK                         _______ _______ _______ _____ _____    ______ ____
ROOT
ATOM      1  C1  UNL     1       2.768   1.623   0.811  0.00  0.00    +0.000 A 
ATOM      2  C2  UNL     1       4.125   1.328   0.638  0.00  0.00    +0.000 A 
ATOM      3  C3  UNL     1       4.516   0.122   0.066  0.00  0.00    +0.000 A 
ATOM      4  C4  UNL     1       3.565  -0.817  -0.347  0.00  0.00    +0.000 A 
ATOM      5  C5  UNL     1       2.206  -0.509  -0.168  0.00  0.00    +0.000 A 
ATOM      6  C6  UNL     1       1.791   0.692   0.403  0.00  0.00    +0.000 A 
ATOM      7  S1  UNL     1       0.820  -1.442  -0.567  0.00  0.00    +0.000 S 
ATOM      8  C7  UNL     1      -0.214  -0.203   0.038  0.00  0.00    +0.000 A 
ATOM      9  N1  UNL     1       0.421   0.852   0.513  0.00  0.00    +0.000 NA
ENDROOT
BRANCH   8  10
ATOM     10  C8  UNL     1      -1.689  -0.328   0.018  0.00  0.00    +0.000 A 
ATOM     11  C9  UNL     1      -2.463   0.729   0.531  0.00  0.00    +0.000 A 
ATOM     12  C10 UNL     1      -3.860   0.670   0.540  0.00  0.00    +0.000 A 
ATOM     13  C11 UNL     1      -4.512  -0.450   0.035  0.00  0.00    +0.000 A 
ATOM     14  C12 UNL     1      -3.768  -1.509  -0.478  0.00  0.00    +0.000 A 
ATOM     15  C13 UNL     1      -2.370  -1.449  -0.487  0.00  0.00    +0.000 A 
ENDBRANCH   8  10
TORSDOF 1
