REMARK  Name = /home/anacleto/Desktop/manuscript_Mpro/naturecomm/supplementary_file_S2/6-chemical-library/molecular_docking/3D_ligand_structure/2269.pdb
REMARK  3 active torsions:
REMARK  status: ('A' for Active; 'I' for Inactive)
REMARK    1  A    between atoms: C3_3  and  C4_4
REMARK    2  A    between atoms: C4_4  and  O1_5
REMARK    3  A    between atoms: O1_5  and  C5_6
REMARK                            x       y       z     vdW  Elec       q    Type
REMARK                         _______ _______ _______ _____ _____    ______ ____
ROOT
ATOM      1  C5  UNL     1       0.173  -0.540  -1.049  0.00  0.00    +0.000 A 
ATOM      2  C6  UNL     1       0.381  -1.789  -1.643  0.00  0.00    +0.000 A 
ATOM      3  C7  UNL     1      -0.533  -2.824  -1.460  0.00  0.00    +0.000 A 
ATOM      4  C8  UNL     1      -1.670  -2.612  -0.684  0.00  0.00    +0.000 A 
ATOM      5  C9  UNL     1      -1.906  -1.361  -0.095  0.00  0.00    +0.000 A 
ATOM      6  C10 UNL     1      -0.993  -0.311  -0.302  0.00  0.00    +0.000 A 
ATOM      7  C11 UNL     1      -3.157  -1.161   0.716  0.00  0.00    +0.000 C 
ATOM      8  C12 UNL     1      -3.083   0.124   1.523  0.00  0.00    +0.000 C 
ATOM      9  C13 UNL     1      -2.539   1.221   0.629  0.00  0.00    +0.000 C 
ATOM     10  O2  UNL     1      -1.201   0.942   0.215  0.00  0.00    +0.000 OA
ENDROOT
BRANCH   1  11
ATOM     11  O1  UNL     1       1.151   0.380  -1.328  0.00  0.00    +0.000 OA
BRANCH  11  12
ATOM     12  C4  UNL     1       1.513   1.237  -0.244  0.00  0.00    +0.000 C 
BRANCH  12  15
ATOM     13  C1  UNL     1       3.798   2.074   0.710  0.00  0.00    +0.000 C 
ATOM     14  C2  UNL     1       4.074   0.782  -0.010  0.00  0.00    +0.000 C 
ATOM     15  C3  UNL     1       2.936   1.664  -0.457  0.00  0.00    +0.000 C 
ENDBRANCH  12  15
ENDBRANCH  11  12
ENDBRANCH   1  11
TORSDOF 3
