REMARK  Name = /home/anacleto/Desktop/manuscript_Mpro/naturecomm/supplementary_file_S2/6-chemical-library/molecular_docking/3D_ligand_structure/2286.pdb
REMARK  1 active torsions:
REMARK  status: ('A' for Active; 'I' for Inactive)
REMARK    1  A    between atoms: C4_6  and  C6_10
REMARK                            x       y       z     vdW  Elec       q    Type
REMARK                         _______ _______ _______ _____ _____    ______ ____
ROOT
ATOM      1  N1  UNL     1       3.242  -0.419   1.183  0.00  0.00    +0.000 N 
ATOM      2  N2  UNL     1       2.974   0.768   1.793  0.00  0.00    +0.000 NA
ATOM      3  C1  UNL     1       1.927   1.268   1.108  0.00  0.00    +0.000 A 
ATOM      4  C2  UNL     1       1.546   0.418   0.076  0.00  0.00    +0.000 A 
ATOM      5  C3  UNL     1       2.405  -0.639   0.156  0.00  0.00    +0.000 A 
ATOM      6  C4  UNL     1       0.608   0.233  -1.047  0.00  0.00    +0.000 C 
ATOM      7  N3  UNL     1       1.067  -1.081  -1.537  0.00  0.00    +0.000 N 
ATOM      8  C5  UNL     1       2.145  -1.613  -0.834  0.00  0.00    +0.000 C 
ATOM      9  O1  UNL     1       2.709  -2.672  -1.037  0.00  0.00    +0.000 OA
ATOM     10  H1  UNL     1       4.000  -0.997   1.533  0.00  0.00    +0.000 HD
ATOM     11  H4  UNL     1       0.647  -1.575  -2.310  0.00  0.00    +0.000 HD
ENDROOT
BRANCH   6  12
ATOM     12  C6  UNL     1      -0.791   0.232  -0.487  0.00  0.00    +0.000 A 
ATOM     13  C7  UNL     1      -1.580   1.390  -0.612  0.00  0.00    +0.000 A 
ATOM     14  C8  UNL     1      -2.878   1.431  -0.099  0.00  0.00    +0.000 A 
ATOM     15  C9  UNL     1      -3.408   0.319   0.550  0.00  0.00    +0.000 A 
ATOM     16  C10 UNL     1      -2.640  -0.835   0.689  0.00  0.00    +0.000 A 
ATOM     17  C11 UNL     1      -1.342  -0.878   0.176  0.00  0.00    +0.000 A 
ENDBRANCH   6  12
TORSDOF 1
