REMARK  Name = /home/anacleto/Desktop/manuscript_Mpro/naturecomm/supplementary_file_S2/6-chemical-library/molecular_docking/3D_ligand_structure/2290.pdb
REMARK  1 active torsions:
REMARK  status: ('A' for Active; 'I' for Inactive)
REMARK    1  A    between atoms: C6_8  and  C8_10
REMARK                            x       y       z     vdW  Elec       q    Type
REMARK                         _______ _______ _______ _____ _____    ______ ____
ROOT
ATOM      1  O1  UNL     1       3.004  -1.429   1.328  0.00  0.00    +0.000 OA
ATOM      2  C1  UNL     1       4.280  -0.799   1.092  0.00  0.00    +0.000 C 
ATOM      3  O2  UNL     1       4.187   0.416   0.319  0.00  0.00    +0.000 OA
ATOM      4  C2  UNL     1       2.845   0.484   0.111  0.00  0.00    +0.000 A 
ATOM      5  C3  UNL     1       2.171  -0.567   0.685  0.00  0.00    +0.000 A 
ATOM      6  C4  UNL     1       2.186   1.470  -0.586  0.00  0.00    +0.000 A 
ATOM      7  C5  UNL     1       0.794   1.370  -0.694  0.00  0.00    +0.000 A 
ATOM      8  C6  UNL     1       0.079   0.294  -0.109  0.00  0.00    +0.000 A 
ATOM      9  C7  UNL     1       0.799  -0.690   0.594  0.00  0.00    +0.000 A 
ENDROOT
BRANCH   8  10
ATOM     10  C8  UNL     1      -1.386   0.208  -0.235  0.00  0.00    +0.000 A 
ATOM     11  C9  UNL     1      -2.004  -0.953  -0.728  0.00  0.00    +0.000 A 
ATOM     12  C10 UNL     1      -3.394  -1.035  -0.849  0.00  0.00    +0.000 A 
ATOM     13  C11 UNL     1      -4.191   0.044  -0.477  0.00  0.00    +0.000 A 
ATOM     14  C12 UNL     1      -3.599   1.205   0.016  0.00  0.00    +0.000 A 
ATOM     15  C13 UNL     1      -2.209   1.286   0.135  0.00  0.00    +0.000 A 
ENDBRANCH   8  10
TORSDOF 1
