REMARK  Name = /home/anacleto/Desktop/manuscript_Mpro/naturecomm/supplementary_file_S2/6-chemical-library/molecular_docking/3D_ligand_structure/2291.pdb
REMARK  1 active torsions:
REMARK  status: ('A' for Active; 'I' for Inactive)
REMARK    1  A    between atoms: C7_8  and  C9_10
REMARK                            x       y       z     vdW  Elec       q    Type
REMARK                         _______ _______ _______ _____ _____    ______ ____
ROOT
ATOM      1  C1  UNL     1       3.190   0.170  -0.920  0.00  0.00    +0.000 A 
ATOM      2  C2  UNL     1       4.247  -0.125  -0.054  0.00  0.00    +0.000 A 
ATOM      3  C3  UNL     1       4.015  -0.334   1.316  0.00  0.00    +0.000 A 
ATOM      4  C4  UNL     1       2.722  -0.247   1.837  0.00  0.00    +0.000 A 
ATOM      5  C5  UNL     1       1.696   0.058   0.968  0.00  0.00    +0.000 A 
ATOM      6  C6  UNL     1       1.917   0.262  -0.385  0.00  0.00    +0.000 A 
ATOM      7  O1  UNL     1       0.380   0.166   1.336  0.00  0.00    +0.000 OA
ATOM      8  C7  UNL     1      -0.256   0.768   0.173  0.00  0.00    +0.000 C 
ATOM      9  C8  UNL     1       0.622   0.498  -1.063  0.00  0.00    +0.000 C 
ENDROOT
BRANCH   8  10
ATOM     10  C9  UNL     1      -1.671   0.259  -0.006  0.00  0.00    +0.000 A 
ATOM     11  C10 UNL     1      -2.653   1.098  -0.555  0.00  0.00    +0.000 A 
ATOM     12  C11 UNL     1      -3.955   0.635  -0.752  0.00  0.00    +0.000 A 
ATOM     13  C12 UNL     1      -4.290  -0.673  -0.409  0.00  0.00    +0.000 A 
ATOM     14  C13 UNL     1      -3.324  -1.520   0.131  0.00  0.00    +0.000 A 
ATOM     15  C14 UNL     1      -2.021  -1.058   0.329  0.00  0.00    +0.000 A 
ENDBRANCH   8  10
TORSDOF 1
