REMARK  Name = /home/anacleto/Desktop/manuscript_Mpro/naturecomm/supplementary_file_S2/6-chemical-library/molecular_docking/3D_ligand_structure/2293.pdb
REMARK  1 active torsions:
REMARK  status: ('A' for Active; 'I' for Inactive)
REMARK    1  A    between atoms: C5_7  and  C6_10
REMARK                            x       y       z     vdW  Elec       q    Type
REMARK                         _______ _______ _______ _____ _____    ______ ____
ROOT
ATOM      1  C1  UNL     1      -3.715  -0.476  -0.014  0.00  0.00    +0.000 A 
ATOM      2  C2  UNL     1      -3.860   0.193   1.136  0.00  0.00    +0.000 A 
ATOM      3  C3  UNL     1      -2.626   0.699   1.781  0.00  0.00    +0.000 A 
ATOM      4  N1  UNL     1      -1.415   0.566   1.339  0.00  0.00    +0.000 NA
ATOM      5  N2  UNL     1      -1.349  -0.127   0.150  0.00  0.00    +0.000 N 
ATOM      6  C4  UNL     1      -2.421  -0.662  -0.544  0.00  0.00    +0.000 A 
ATOM      7  C5  UNL     1      -0.228  -0.462  -0.594  0.00  0.00    +0.000 A 
ATOM      8  N3  UNL     1      -0.627  -1.164  -1.647  0.00  0.00    +0.000 NA
ATOM      9  N4  UNL     1      -1.995  -1.280  -1.620  0.00  0.00    +0.000 NA
ENDROOT
BRANCH   7  10
ATOM     10  C6  UNL     1       1.172  -0.141  -0.283  0.00  0.00    +0.000 A 
ATOM     11  C7  UNL     1       2.189  -0.923  -0.857  0.00  0.00    +0.000 A 
ATOM     12  C8  UNL     1       3.537  -0.658  -0.601  0.00  0.00    +0.000 A 
ATOM     13  C9  UNL     1       3.892   0.400   0.230  0.00  0.00    +0.000 A 
ATOM     14  C10 UNL     1       2.900   1.193   0.800  0.00  0.00    +0.000 A 
ATOM     15  C11 UNL     1       1.550   0.927   0.543  0.00  0.00    +0.000 A 
ENDBRANCH   7  10
TORSDOF 1
