REMARK  Name = /home/anacleto/Desktop/manuscript_Mpro/naturecomm/supplementary_file_S2/6-chemical-library/molecular_docking/3D_ligand_structure/2297.pdb
REMARK  1 active torsions:
REMARK  status: ('A' for Active; 'I' for Inactive)
REMARK    1  A    between atoms: C7_9  and  C8_10
REMARK                            x       y       z     vdW  Elec       q    Type
REMARK                         _______ _______ _______ _____ _____    ______ ____
ROOT
ATOM      1  C1  UNL     1      -0.890   1.847  -0.709  0.00  0.00    +0.000 A 
ATOM      2  C2  UNL     1      -1.949   2.074  -1.562  0.00  0.00    +0.000 A 
ATOM      3  S1  UNL     1      -3.005   0.731  -1.649  0.00  0.00    +0.000 S 
ATOM      4  C3  UNL     1      -2.056  -0.145  -0.548  0.00  0.00    +0.000 A 
ATOM      5  C4  UNL     1      -0.931   0.538  -0.123  0.00  0.00    +0.000 A 
ATOM      6  C5  UNL     1      -2.403  -1.530  -0.106  0.00  0.00    +0.000 C 
ATOM      7  C6  UNL     1      -1.536  -1.902   1.113  0.00  0.00    +0.000 C 
ATOM      8  N1  UNL     1      -0.121  -1.525   0.942  0.00  0.00    +0.000 NA
ATOM      9  C7  UNL     1       0.048  -0.052   0.879  0.00  0.00    +0.000 C 
ATOM     10  H7  UNL     1       0.216  -1.910   0.061  0.00  0.00    +0.000 HD
ENDROOT
BRANCH   9  11
ATOM     11  C8  UNL     1       1.489   0.264   0.540  0.00  0.00    +0.000 A 
ATOM     12  C9  UNL     1       2.183   0.026  -0.635  0.00  0.00    +0.000 A 
ATOM     13  C10 UNL     1       3.534   0.472  -0.574  0.00  0.00    +0.000 A 
ATOM     14  C11 UNL     1       3.835   1.034   0.645  0.00  0.00    +0.000 A 
ATOM     15  S2  UNL     1       2.496   1.027   1.705  0.00  0.00    +0.000 S 
ENDBRANCH   9  11
TORSDOF 1
