REMARK  Name = /home/anacleto/Desktop/manuscript_Mpro/naturecomm/supplementary_file_S2/6-chemical-library/molecular_docking/3D_ligand_structure/23.pdb
REMARK  0 active torsions:
REMARK  status: ('A' for Active; 'I' for Inactive)
REMARK                            x       y       z     vdW  Elec       q    Type
REMARK                         _______ _______ _______ _____ _____    ______ ____
ROOT
ATOM      1  O1  UNL     1      -1.501  -1.586  -0.145  0.00  0.00    +0.000 OA
ATOM      2  C1  UNL     1      -0.755  -0.621  -0.068  0.00  0.00    +0.000 A 
ATOM      3  N1  UNL     1       0.607  -0.704   0.017  0.00  0.00    +0.000 N 
ATOM      4  C2  UNL     1       1.286   0.470   0.097  0.00  0.00    +0.000 A 
ATOM      5  O2  UNL     1       2.493   0.614   0.178  0.00  0.00    +0.000 OA
ATOM      6  S1  UNL     1       0.111   1.787   0.063  0.00  0.00    +0.000 S 
ATOM      7  N2  UNL     1      -1.173   0.689  -0.053  0.00  0.00    +0.000 N 
ATOM      8  H1  UNL     1       1.082  -1.590   0.020  0.00  0.00    +0.000 HD
ATOM      9  H2  UNL     1      -2.151   0.940  -0.108  0.00  0.00    +0.000 HD
ENDROOT
TORSDOF 0
