REMARK  Name = /home/anacleto/Desktop/manuscript_Mpro/naturecomm/supplementary_file_S2/6-chemical-library/molecular_docking/3D_ligand_structure/2301.pdb
REMARK  1 active torsions:
REMARK  status: ('A' for Active; 'I' for Inactive)
REMARK    1  A    between atoms: C3_5  and  C4_6
REMARK                            x       y       z     vdW  Elec       q    Type
REMARK                         _______ _______ _______ _____ _____    ______ ____
ROOT
ATOM      1  C4  UNL     1       0.425  -0.836  -0.021  0.00  0.00    +0.000 A 
ATOM      2  C5  UNL     1      -0.071  -2.117  -0.140  0.00  0.00    +0.000 A 
ATOM      3  N2  UNL     1      -1.437  -2.121  -0.243  0.00  0.00    +0.000 NA
ATOM      4  N3  UNL     1      -0.681  -0.012  -0.052  0.00  0.00    +0.000 N 
ATOM      5  C6  UNL     1      -1.788  -0.853  -0.190  0.00  0.00    +0.000 A 
ATOM      6  C7  UNL     1      -0.798   1.378   0.027  0.00  0.00    +0.000 A 
ATOM      7  C8  UNL     1      -2.014   1.947  -0.029  0.00  0.00    +0.000 A 
ATOM      8  C9  UNL     1      -3.184   1.097  -0.172  0.00  0.00    +0.000 A 
ATOM      9  C10 UNL     1      -3.073  -0.243  -0.248  0.00  0.00    +0.000 A 
ENDROOT
BRANCH   1  14
ATOM     10  N1  UNL     1       2.295   0.901   0.231  0.00  0.00    +0.000 NA
ATOM     11  C1  UNL     1       3.604   0.979   0.335  0.00  0.00    +0.000 A 
ATOM     12  S1  UNL     1       4.454  -0.508   0.306  0.00  0.00    +0.000 S 
ATOM     13  C2  UNL     1       2.958  -1.331   0.140  0.00  0.00    +0.000 A 
ATOM     14  C3  UNL     1       1.918  -0.423   0.119  0.00  0.00    +0.000 A 
ENDBRANCH   1  14
TORSDOF 1
