REMARK  Name = /home/anacleto/Desktop/manuscript_Mpro/naturecomm/supplementary_file_S2/6-chemical-library/molecular_docking/3D_ligand_structure/2303.pdb
REMARK  1 active torsions:
REMARK  status: ('A' for Active; 'I' for Inactive)
REMARK    1  A    between atoms: C2_5  and  C4_8
REMARK                            x       y       z     vdW  Elec       q    Type
REMARK                         _______ _______ _______ _____ _____    ______ ____
ROOT
ATOM      1  N1  UNL     1      -3.516   0.767   0.327  0.00  0.00    +0.000 N 
ATOM      2  C1  UNL     1      -3.578  -0.581   0.275  0.00  0.00    +0.000 C 
ATOM      3  O1  UNL     1      -4.551  -1.270   0.522  0.00  0.00    +0.000 OA
ATOM      4  N2  UNL     1      -2.357  -1.058  -0.135  0.00  0.00    +0.000 N 
ATOM      5  C2  UNL     1      -1.434   0.004  -0.476  0.00  0.00    +0.000 C 
ATOM      6  C3  UNL     1      -2.317   1.213  -0.134  0.00  0.00    +0.000 C 
ATOM      7  O2  UNL     1      -2.016   2.390  -0.261  0.00  0.00    +0.000 OA
ATOM      8  H1  UNL     1      -4.291   1.358   0.572  0.00  0.00    +0.000 HD
ATOM      9  H2  UNL     1      -2.238  -2.040  -0.345  0.00  0.00    +0.000 HD
ENDROOT
BRANCH   5  10
ATOM     10  C4  UNL     1      -0.156  -0.047   0.364  0.00  0.00    +0.000 C 
ATOM     11  C5  UNL     1       0.911   0.995  -0.067  0.00  0.00    +0.000 C 
ATOM     12  C6  UNL     1       0.616  -1.380   0.194  0.00  0.00    +0.000 C 
ATOM     13  C7  UNL     1       2.025  -0.925  -0.223  0.00  0.00    +0.000 C 
ATOM     14  C8  UNL     1       1.705   0.251  -1.141  0.00  0.00    +0.000 C 
ATOM     15  C9  UNL     1       2.706  -0.230   0.966  0.00  0.00    +0.000 C 
ATOM     16  C10 UNL     1       1.959   1.108   1.057  0.00  0.00    +0.000 C 
ENDBRANCH   5  10
TORSDOF 1
