REMARK  Name = /home/anacleto/Desktop/manuscript_Mpro/naturecomm/supplementary_file_S2/6-chemical-library/molecular_docking/3D_ligand_structure/231.pdb
REMARK  0 active torsions:
REMARK  status: ('A' for Active; 'I' for Inactive)
REMARK                            x       y       z     vdW  Elec       q    Type
REMARK                         _______ _______ _______ _____ _____    ______ ____
ROOT
ATOM      1  N1  UNL     1       1.645  -1.032  -0.251  0.00  0.00    +0.000 N 
ATOM      2  C1  UNL     1       2.438   0.105  -0.040  0.00  0.00    +0.000 A 
ATOM      3  O1  UNL     1       3.654   0.158  -0.060  0.00  0.00    +0.000 OA
ATOM      4  N2  UNL     1       1.557   1.171   0.198  0.00  0.00    +0.000 N 
ATOM      5  C2  UNL     1       0.252   0.694   0.134  0.00  0.00    +0.000 A 
ATOM      6  C3  UNL     1       0.307  -0.670  -0.144  0.00  0.00    +0.000 A 
ATOM      7  C4  UNL     1      -0.937   1.362   0.300  0.00  0.00    +0.000 A 
ATOM      8  C5  UNL     1      -2.106   0.602   0.175  0.00  0.00    +0.000 A 
ATOM      9  C6  UNL     1      -2.050  -0.782  -0.107  0.00  0.00    +0.000 A 
ATOM     10  C7  UNL     1      -0.825  -1.439  -0.271  0.00  0.00    +0.000 A 
ATOM     11  H1  UNL     1       2.018  -1.947  -0.445  0.00  0.00    +0.000 HD
ATOM     12  H2  UNL     1       1.856   2.114   0.382  0.00  0.00    +0.000 HD
ENDROOT
TORSDOF 0
