REMARK  Name = /home/anacleto/Desktop/manuscript_Mpro/naturecomm/supplementary_file_S2/6-chemical-library/molecular_docking/3D_ligand_structure/2314.pdb
REMARK  1 active torsions:
REMARK  status: ('A' for Active; 'I' for Inactive)
REMARK    1  A    between atoms: C3_3  and  N1_4
REMARK                            x       y       z     vdW  Elec       q    Type
REMARK                         _______ _______ _______ _____ _____    ______ ____
ROOT
ATOM      1  N1  UNL     1       1.167  -0.284  -0.223  0.00  0.00    +0.000 N 
ATOM      2  C4  UNL     1       0.381   0.488   0.651  0.00  0.00    +0.000 C 
ATOM      3  O1  UNL     1       0.819   1.202   1.550  0.00  0.00    +0.000 OA
ATOM      4  C5  UNL     1       0.538  -0.858  -1.413  0.00  0.00    +0.000 C 
ATOM      5  C6  UNL     1      -0.792  -1.524  -1.089  0.00  0.00    +0.000 C 
ATOM      6  C7  UNL     1      -1.678  -0.549  -0.370  0.00  0.00    +0.000 A 
ATOM      7  C8  UNL     1      -1.102   0.416   0.471  0.00  0.00    +0.000 A 
ATOM      8  C9  UNL     1      -3.072  -0.623  -0.487  0.00  0.00    +0.000 A 
ATOM      9  C10 UNL     1      -3.883   0.272   0.211  0.00  0.00    +0.000 A 
ATOM     10  C11 UNL     1      -3.311   1.237   1.039  0.00  0.00    +0.000 A 
ATOM     11  C12 UNL     1      -1.924   1.306   1.173  0.00  0.00    +0.000 A 
ENDROOT
BRANCH   1  14
ATOM     12  C1  UNL     1       3.431   0.965  -0.044  0.00  0.00    +0.000 C 
ATOM     13  C2  UNL     1       3.450  -0.084   1.034  0.00  0.00    +0.000 C 
ATOM     14  C3  UNL     1       2.618  -0.291  -0.202  0.00  0.00    +0.000 C 
ENDBRANCH   1  14
TORSDOF 1
