REMARK  Name = /home/anacleto/Desktop/manuscript_Mpro/naturecomm/supplementary_file_S2/6-chemical-library/molecular_docking/3D_ligand_structure/2325.pdb
REMARK  17 active torsions:
REMARK  status: ('A' for Active; 'I' for Inactive)
REMARK    1  A    between atoms: C4_5  and  C5_7
REMARK    2  A    between atoms: N2_9  and  C6_10
REMARK    3  A    between atoms: C6_10  and  C7_11
REMARK    4  A    between atoms: C6_10  and  C11_17
REMARK    5  A    between atoms: C7_11  and  C8_12
REMARK    6  A    between atoms: N5_19  and  C12_20
REMARK    7  A    between atoms: C12_20  and  C13_21
REMARK    8  A    between atoms: N6_23  and  C14_24
REMARK    9  A    between atoms: C14_24  and  C15_25
REMARK   10  A    between atoms: N7_27  and  C16_28
REMARK   11  A    between atoms: C16_28  and  C17_29
REMARK   12  A    between atoms: N8_31  and  C18_32
REMARK   13  A    between atoms: C18_32  and  C19_33
REMARK   14  A    between atoms: N9_35  and  C20_36
REMARK   15  A    between atoms: C20_36  and  C21_37
REMARK   16  A    between atoms: N10_39  and  C22_40
REMARK   17  A    between atoms: C22_40  and  C23_41
REMARK                            x       y       z     vdW  Elec       q    Type
REMARK                         _______ _______ _______ _____ _____    ______ ____
ROOT
ATOM      1  C13 UNL     1       1.613  -3.642   1.748  0.00  0.00    +0.000 C 
ATOM      2  O4  UNL     1       0.967  -3.069   0.870  0.00  0.00    +0.000 OA
ATOM      3  N6  UNL     1       1.343  -4.951   2.102  0.00  0.00    +0.000 N 
ATOM      4  H17 UNL     1       2.013  -5.392   2.719  0.00  0.00    +0.000 HD
ENDROOT
BRANCH   3   5
ATOM      5  C14 UNL     1       0.684  -5.869   1.169  0.00  0.00    +0.000 C 
BRANCH   5   6
ATOM      6  C15 UNL     1      -0.821  -5.707   0.872  0.00  0.00    +0.000 C 
ATOM      7  O5  UNL     1      -1.439  -6.567   0.250  0.00  0.00    +0.000 OA
ATOM      8  N7  UNL     1      -1.388  -4.518   1.266  0.00  0.00    +0.000 N 
ATOM      9  H20 UNL     1      -0.755  -3.791   1.581  0.00  0.00    +0.000 HD
BRANCH   8  10
ATOM     10  C16 UNL     1      -2.676  -4.087   0.739  0.00  0.00    +0.000 C 
BRANCH  10  11
ATOM     11  C17 UNL     1      -2.553  -3.342  -0.603  0.00  0.00    +0.000 C 
ATOM     12  O6  UNL     1      -3.539  -3.012  -1.260  0.00  0.00    +0.000 OA
ATOM     13  N8  UNL     1      -1.279  -2.978  -0.995  0.00  0.00    +0.000 N 
ATOM     14  H23 UNL     1      -0.508  -3.060  -0.332  0.00  0.00    +0.000 HD
BRANCH  13  15
ATOM     15  C18 UNL     1      -1.044  -2.168  -2.176  0.00  0.00    +0.000 C 
BRANCH  15  16
ATOM     16  C19 UNL     1      -1.216  -0.688  -1.826  0.00  0.00    +0.000 C 
ATOM     17  O7  UNL     1      -0.263   0.081  -1.707  0.00  0.00    +0.000 OA
ATOM     18  N9  UNL     1      -2.528  -0.310  -1.653  0.00  0.00    +0.000 N 
ATOM     19  H26 UNL     1      -3.203  -1.065  -1.524  0.00  0.00    +0.000 HD
BRANCH  18  20
ATOM     20  C20 UNL     1      -2.891   0.982  -1.112  0.00  0.00    +0.000 C 
BRANCH  20  21
ATOM     21  C21 UNL     1      -3.572   0.843   0.256  0.00  0.00    +0.000 C 
ATOM     22  O8  UNL     1      -3.711  -0.230   0.840  0.00  0.00    +0.000 OA
ATOM     23  N10 UNL     1      -4.047   2.039   0.750  0.00  0.00    +0.000 N 
ATOM     24  H29 UNL     1      -3.864   2.895   0.244  0.00  0.00    +0.000 HD
BRANCH  23  25
ATOM     25  C22 UNL     1      -4.820   2.110   1.978  0.00  0.00    +0.000 C 
BRANCH  25  26
ATOM     26  C23 UNL     1      -6.321   1.777   1.883  0.00  0.00    +0.000 C 
ATOM     27  O9  UNL     1      -6.902   1.304   2.867  0.00  0.00    +0.000 OA
ATOM     28  N11 UNL     1      -7.035   2.141   0.757  0.00  0.00    +0.000 N 
ATOM     29  C24 UNL     1      -8.450   1.818   0.651  0.00  0.00    +0.000 C 
ATOM     30  C25 UNL     1      -8.814   2.156  -0.787  0.00  0.00    +0.000 C 
ATOM     31  C26 UNL     1      -7.897   3.332  -1.090  0.00  0.00    +0.000 C 
ATOM     32  C27 UNL     1      -6.605   2.949  -0.375  0.00  0.00    +0.000 C 
ENDBRANCH  25  26
ENDBRANCH  23  25
ENDBRANCH  20  21
ENDBRANCH  18  20
ENDBRANCH  15  16
ENDBRANCH  13  15
ENDBRANCH  10  11
ENDBRANCH   8  10
ENDBRANCH   5   6
ENDBRANCH   3   5
BRANCH   1  33
ATOM     33  C12 UNL     1       2.709  -2.971   2.589  0.00  0.00    +0.000 C 
BRANCH  33  36
ATOM     34  C11 UNL     1       3.765  -1.306   1.124  0.00  0.00    +0.000 C 
ATOM     35  O3  UNL     1       4.380  -2.175   0.503  0.00  0.00    +0.000 OA
ATOM     36  N5  UNL     1       2.945  -1.596   2.192  0.00  0.00    +0.000 N 
ATOM     37  H14 UNL     1       2.280  -0.896   2.496  0.00  0.00    +0.000 HD
BRANCH  34  38
ATOM     38  C6  UNL     1       3.864   0.196   0.771  0.00  0.00    +0.000 C 
BRANCH  38  41
ATOM     39  C5  UNL     1       6.183   0.898   0.197  0.00  0.00    +0.000 C 
ATOM     40  O2  UNL     1       6.358   1.420   1.299  0.00  0.00    +0.000 OA
ATOM     41  N2  UNL     1       4.974   0.362  -0.179  0.00  0.00    +0.000 N 
ATOM     42  H7  UNL     1       4.968  -0.290  -0.961  0.00  0.00    +0.000 HD
BRANCH  39  47
ATOM     43  O1  UNL     1      10.175   2.743  -1.376  0.00  0.00    +0.000 OA
ATOM     44  C1  UNL     1       9.113   2.153  -1.471  0.00  0.00    +0.000 C 
ATOM     45  C2  UNL     1       8.258   2.043  -2.705  0.00  0.00    +0.000 C 
ATOM     46  C3  UNL     1       6.909   1.589  -2.144  0.00  0.00    +0.000 C 
ATOM     47  C4  UNL     1       7.274   0.813  -0.886  0.00  0.00    +0.000 C 
ATOM     48  N1  UNL     1       8.506   1.431  -0.470  0.00  0.00    +0.000 N 
ATOM     49  H6  UNL     1       8.894   1.375   0.466  0.00  0.00    +0.000 HD
ENDBRANCH  39  47
ENDBRANCH  38  41
BRANCH  38  50
ATOM     50  C7  UNL     1       2.548   0.712   0.170  0.00  0.00    +0.000 C 
BRANCH  50  51
ATOM     51  C8  UNL     1       2.516   2.192  -0.080  0.00  0.00    +0.000 A 
ATOM     52  C9  UNL     1       1.567   2.960  -0.727  0.00  0.00    +0.000 A 
ATOM     53  N3  UNL     1       1.928   4.282  -0.739  0.00  0.00    +0.000 NA
ATOM     54  C10 UNL     1       3.090   4.330  -0.129  0.00  0.00    +0.000 A 
ATOM     55  N4  UNL     1       3.488   3.093   0.297  0.00  0.00    +0.000 N 
ATOM     56  H13 UNL     1       4.366   2.890   0.751  0.00  0.00    +0.000 HD
ENDBRANCH  50  51
ENDBRANCH  38  50
ENDBRANCH  34  38
ENDBRANCH  33  36
ENDBRANCH   1  33
TORSDOF 17
