REMARK  Name = /home/anacleto/Desktop/manuscript_Mpro/naturecomm/supplementary_file_S2/6-chemical-library/molecular_docking/3D_ligand_structure/2328.pdb
REMARK  17 active torsions:
REMARK  status: ('A' for Active; 'I' for Inactive)
REMARK    1  A    between atoms: C5_6  and  C6_8
REMARK    2  A    between atoms: C6_8  and  N2_9
REMARK    3  A    between atoms: C7_10  and  C8_12
REMARK    4  A    between atoms: C8_12  and  N3_13
REMARK    5  A    between atoms: C9_14  and  C10_16
REMARK    6  A    between atoms: C10_16  and  N4_17
REMARK    7  A    between atoms: C11_18  and  C12_20
REMARK    8  A    between atoms: C12_20  and  C13_21
REMARK    9  A    between atoms: C12_20  and  N5_28
REMARK   10  A    between atoms: C13_21  and  C14_22
REMARK   11  A    between atoms: C20_29  and  C21_31
REMARK   12  A    between atoms: C21_31  and  N6_32
REMARK   13  A    between atoms: C22_33  and  C23_35
REMARK   14  A    between atoms: C23_35  and  N7_36
REMARK   15  A    between atoms: C24_37  and  C25_39
REMARK   16  A    between atoms: C25_39  and  C26_40
REMARK   17  A    between atoms: C26_40  and  C27_41
REMARK                            x       y       z     vdW  Elec       q    Type
REMARK                         _______ _______ _______ _____ _____    ______ ____
ROOT
ATOM      1  C12 UNL     1      -0.248   2.063   1.681  0.00  0.00    +0.000 C 
ENDROOT
BRANCH   1   3
ATOM      2  N4  UNL     1      -2.289   1.857   3.049  0.00  0.00    +0.000 N 
ATOM      3  C11 UNL     1      -1.612   1.384   1.937  0.00  0.00    +0.000 C 
ATOM      4  O4  UNL     1      -2.105   0.529   1.198  0.00  0.00    +0.000 OA
ATOM      5  H17 UNL     1      -2.092   2.813   3.325  0.00  0.00    +0.000 HD
BRANCH   2   6
ATOM      6  C10 UNL     1      -3.632   1.389   3.318  0.00  0.00    +0.000 C 
BRANCH   6   8
ATOM      7  N3  UNL     1      -5.553   1.354   1.815  0.00  0.00    +0.000 N 
ATOM      8  C9  UNL     1      -4.591   2.144   2.403  0.00  0.00    +0.000 C 
ATOM      9  O3  UNL     1      -4.486   3.351   2.198  0.00  0.00    +0.000 OA
ATOM     10  H14 UNL     1      -5.452   0.346   1.841  0.00  0.00    +0.000 HD
BRANCH   7  11
ATOM     11  C8  UNL     1      -6.448   1.900   0.808  0.00  0.00    +0.000 C 
BRANCH  11  13
ATOM     12  N2  UNL     1      -4.863   0.877  -0.785  0.00  0.00    +0.000 N 
ATOM     13  C7  UNL     1      -5.964   1.702  -0.635  0.00  0.00    +0.000 C 
ATOM     14  O2  UNL     1      -6.584   2.169  -1.588  0.00  0.00    +0.000 OA
ATOM     15  H11 UNL     1      -4.201   0.881  -0.014  0.00  0.00    +0.000 HD
BRANCH  12  16
ATOM     16  C6  UNL     1      -4.282   0.708  -2.107  0.00  0.00    +0.000 C 
BRANCH  16  22
ATOM     17  C1  UNL     1      -5.877  -1.832  -1.514  0.00  0.00    +0.000 C 
ATOM     18  C2  UNL     1      -6.907  -2.942  -1.695  0.00  0.00    +0.000 C 
ATOM     19  C3  UNL     1      -6.754  -3.314  -3.159  0.00  0.00    +0.000 C 
ATOM     20  C4  UNL     1      -6.498  -1.972  -3.824  0.00  0.00    +0.000 C 
ATOM     21  N1  UNL     1      -5.799  -1.190  -2.814  0.00  0.00    +0.000 N 
ATOM     22  C5  UNL     1      -5.096  -0.057  -3.171  0.00  0.00    +0.000 C 
ATOM     23  O1  UNL     1      -4.996   0.267  -4.360  0.00  0.00    +0.000 OA
ENDBRANCH  16  22
ENDBRANCH  12  16
ENDBRANCH  11  13
ENDBRANCH   7  11
ENDBRANCH   6   8
ENDBRANCH   2   6
ENDBRANCH   1   3
BRANCH   1  24
ATOM     24  N5  UNL     1       0.372   1.531   0.473  0.00  0.00    +0.000 N 
ATOM     25  C20 UNL     1       1.286   2.260  -0.249  0.00  0.00    +0.000 C 
ATOM     26  O5  UNL     1       1.658   3.383   0.079  0.00  0.00    +0.000 OA
ATOM     27  H26 UNL     1       0.321   0.524   0.312  0.00  0.00    +0.000 HD
BRANCH  25  28
ATOM     28  C21 UNL     1       1.843   1.538  -1.473  0.00  0.00    +0.000 C 
BRANCH  28  29
ATOM     29  N6  UNL     1       2.966   0.703  -1.107  0.00  0.00    +0.000 N 
ATOM     30  C22 UNL     1       2.787  -0.572  -0.622  0.00  0.00    +0.000 C 
ATOM     31  O6  UNL     1       1.673  -1.080  -0.503  0.00  0.00    +0.000 OA
ATOM     32  H29 UNL     1       3.873   1.128  -0.957  0.00  0.00    +0.000 HD
BRANCH  30  33
ATOM     33  C23 UNL     1       4.076  -1.295  -0.222  0.00  0.00    +0.000 C 
BRANCH  33  34
ATOM     34  N7  UNL     1       5.276  -0.545  -0.571  0.00  0.00    +0.000 N 
ATOM     35  C24 UNL     1       6.227  -0.203   0.363  0.00  0.00    +0.000 C 
ATOM     36  O7  UNL     1       6.085  -0.355   1.572  0.00  0.00    +0.000 OA
ATOM     37  H32 UNL     1       5.593  -0.589  -1.544  0.00  0.00    +0.000 HD
BRANCH  35  38
ATOM     38  C25 UNL     1       7.485   0.397  -0.228  0.00  0.00    +0.000 C 
BRANCH  38  39
ATOM     39  C26 UNL     1       8.451  -0.682  -0.702  0.00  0.00    +0.000 C 
BRANCH  39  40
ATOM     40  C27 UNL     1       7.998  -1.447  -1.901  0.00  0.00    +0.000 A 
ATOM     41  C28 UNL     1       8.451  -2.674  -2.342  0.00  0.00    +0.000 A 
ATOM     42  N8  UNL     1       7.734  -2.940  -3.475  0.00  0.00    +0.000 N 
ATOM     43  C29 UNL     1       6.889  -1.888  -3.682  0.00  0.00    +0.000 A 
ATOM     44  N9  UNL     1       7.007  -0.978  -2.739  0.00  0.00    +0.000 NA
ATOM     45  H38 UNL     1       7.828  -3.764  -4.058  0.00  0.00    +0.000 HD
ENDBRANCH  39  40
ENDBRANCH  38  39
ENDBRANCH  35  38
ENDBRANCH  33  34
ENDBRANCH  30  33
ENDBRANCH  28  29
ENDBRANCH  25  28
ENDBRANCH   1  24
BRANCH   1  46
ATOM     46  C13 UNL     1       0.690   2.038   2.907  0.00  0.00    +0.000 C 
BRANCH  46  47
ATOM     47  C14 UNL     1       1.217   0.683   3.322  0.00  0.00    +0.000 A 
ATOM     48  C15 UNL     1       0.400  -0.244   3.984  0.00  0.00    +0.000 A 
ATOM     49  C16 UNL     1       0.905  -1.482   4.387  0.00  0.00    +0.000 A 
ATOM     50  C17 UNL     1       2.240  -1.801   4.145  0.00  0.00    +0.000 A 
ATOM     51  C18 UNL     1       3.065  -0.884   3.503  0.00  0.00    +0.000 A 
ATOM     52  C19 UNL     1       2.557   0.348   3.086  0.00  0.00    +0.000 A 
ENDBRANCH  46  47
ENDBRANCH   1  46
TORSDOF 17
