REMARK  Name = /home/anacleto/Desktop/manuscript_Mpro/naturecomm/supplementary_file_S2/6-chemical-library/molecular_docking/3D_ligand_structure/2331.pdb
REMARK  12 active torsions:
REMARK  status: ('A' for Active; 'I' for Inactive)
REMARK    1  A    between atoms: C4_5  and  C5_7
REMARK    2  A    between atoms: N2_9  and  C6_10
REMARK    3  A    between atoms: C6_10  and  C7_11
REMARK    4  A    between atoms: C6_10  and  C11_17
REMARK    5  A    between atoms: C7_11  and  C8_12
REMARK    6  A    between atoms: N5_19  and  C12_20
REMARK    7  A    between atoms: C12_20  and  C13_21
REMARK    8  A    between atoms: N6_23  and  C14_24
REMARK    9  A    between atoms: C14_24  and  C15_25
REMARK   10  A    between atoms: N7_27  and  C16_28
REMARK   11  A    between atoms: C16_28  and  C17_29
REMARK   12  A    between atoms: C17_29  and  C18_30
REMARK                            x       y       z     vdW  Elec       q    Type
REMARK                         _______ _______ _______ _____ _____    ______ ____
ROOT
ATOM      1  C11 UNL     1      -1.975   0.256   1.754  0.00  0.00    +0.000 C 
ATOM      2  O3  UNL     1      -1.370   0.102   2.813  0.00  0.00    +0.000 OA
ATOM      3  N5  UNL     1      -1.699   1.288   0.885  0.00  0.00    +0.000 N 
ATOM      4  H14 UNL     1      -2.057   1.208  -0.059  0.00  0.00    +0.000 HD
ENDROOT
BRANCH   1   5
ATOM      5  C6  UNL     1      -2.968  -0.795   1.205  0.00  0.00    +0.000 C 
BRANCH   5   8
ATOM      6  C5  UNL     1      -4.846   0.651   0.460  0.00  0.00    +0.000 C 
ATOM      7  O2  UNL     1      -4.903   1.231   1.540  0.00  0.00    +0.000 OA
ATOM      8  N2  UNL     1      -3.873  -0.285   0.161  0.00  0.00    +0.000 N 
ATOM      9  H7  UNL     1      -4.109  -0.956  -0.560  0.00  0.00    +0.000 HD
BRANCH   6  14
ATOM     10  O1  UNL     1      -7.560   3.812  -1.592  0.00  0.00    +0.000 OA
ATOM     11  C1  UNL     1      -6.928   2.773  -1.539  0.00  0.00    +0.000 C 
ATOM     12  C2  UNL     1      -6.310   2.045  -2.702  0.00  0.00    +0.000 C 
ATOM     13  C3  UNL     1      -5.286   1.139  -2.021  0.00  0.00    +0.000 C 
ATOM     14  C4  UNL     1      -5.888   0.864  -0.650  0.00  0.00    +0.000 C 
ATOM     15  N1  UNL     1      -6.681   2.040  -0.403  0.00  0.00    +0.000 N 
ATOM     16  H6  UNL     1      -6.942   2.369   0.521  0.00  0.00    +0.000 HD
ENDBRANCH   6  14
ENDBRANCH   5   8
BRANCH   5  17
ATOM     17  C7  UNL     1      -3.681  -1.538   2.352  0.00  0.00    +0.000 C 
BRANCH  17  18
ATOM     18  C8  UNL     1      -4.498  -2.686   1.852  0.00  0.00    +0.000 A 
ATOM     19  C9  UNL     1      -5.814  -2.775   1.456  0.00  0.00    +0.000 A 
ATOM     20  N3  UNL     1      -6.106  -4.040   1.022  0.00  0.00    +0.000 NA
ATOM     21  C10 UNL     1      -5.008  -4.735   1.205  0.00  0.00    +0.000 A 
ATOM     22  N4  UNL     1      -4.006  -3.960   1.714  0.00  0.00    +0.000 N 
ATOM     23  H13 UNL     1      -3.076  -4.280   1.953  0.00  0.00    +0.000 HD
ENDBRANCH  17  18
ENDBRANCH   5  17
ENDBRANCH   1   5
BRANCH   3  24
ATOM     24  C12 UNL     1      -0.602   2.206   1.106  0.00  0.00    +0.000 C 
BRANCH  24  25
ATOM     25  C13 UNL     1       0.575   1.823   0.205  0.00  0.00    +0.000 C 
ATOM     26  O4  UNL     1       0.435   1.183  -0.838  0.00  0.00    +0.000 OA
ATOM     27  N6  UNL     1       1.790   2.325   0.623  0.00  0.00    +0.000 N 
ATOM     28  H17 UNL     1       1.888   2.493   1.620  0.00  0.00    +0.000 HD
BRANCH  27  29
ATOM     29  C14 UNL     1       3.014   1.931  -0.052  0.00  0.00    +0.000 C 
BRANCH  29  30
ATOM     30  C15 UNL     1       3.632   0.725   0.661  0.00  0.00    +0.000 C 
ATOM     31  O5  UNL     1       3.460   0.512   1.860  0.00  0.00    +0.000 OA
ATOM     32  N7  UNL     1       4.441  -0.054  -0.140  0.00  0.00    +0.000 N 
ATOM     33  H20 UNL     1       4.369   0.050  -1.144  0.00  0.00    +0.000 HD
BRANCH  32  34
ATOM     34  C16 UNL     1       5.053  -1.261   0.383  0.00  0.00    +0.000 C 
BRANCH  34  35
ATOM     35  C17 UNL     1       6.101  -1.857  -0.559  0.00  0.00    +0.000 C 
BRANCH  35  36
ATOM     36  C18 UNL     1       7.280  -0.950  -0.817  0.00  0.00    +0.000 A 
ATOM     37  C19 UNL     1       8.125  -0.558   0.231  0.00  0.00    +0.000 A 
ATOM     38  C20 UNL     1       9.218   0.274  -0.013  0.00  0.00    +0.000 A 
ATOM     39  C21 UNL     1       9.484   0.716  -1.307  0.00  0.00    +0.000 A 
ATOM     40  C22 UNL     1       8.656   0.327  -2.357  0.00  0.00    +0.000 A 
ATOM     41  C23 UNL     1       7.560  -0.501  -2.114  0.00  0.00    +0.000 A 
ENDBRANCH  35  36
ENDBRANCH  34  35
ENDBRANCH  32  34
ENDBRANCH  29  30
ENDBRANCH  27  29
ENDBRANCH  24  25
ENDBRANCH   3  24
TORSDOF 12
