REMARK  Name = /home/anacleto/Desktop/manuscript_Mpro/naturecomm/supplementary_file_S2/6-chemical-library/molecular_docking/3D_ligand_structure/2333.pdb
REMARK  11 active torsions:
REMARK  status: ('A' for Active; 'I' for Inactive)
REMARK    1  A    between atoms: C6_6  and  C7_7
REMARK    2  A    between atoms: C7_7  and  C8_8
REMARK    3  A    between atoms: C8_8  and  C9_9
REMARK    4  A    between atoms: N1_11  and  C10_12
REMARK    5  A    between atoms: C10_12  and  C11_13
REMARK    6  A    between atoms: C10_12  and  C18_20
REMARK    7  A    between atoms: C11_13  and  C12_14
REMARK    8  A    between atoms: N2_22  and  C19_23
REMARK    9  A    between atoms: C19_23  and  C20_24
REMARK   10  A    between atoms: N3_26  and  C21_27
REMARK   11  A    between atoms: C21_27  and  C22_28
REMARK                            x       y       z     vdW  Elec       q    Type
REMARK                         _______ _______ _______ _____ _____    ______ ____
ROOT
ATOM      1  C10 UNL     1       1.587  -0.280  -0.400  0.00  0.00    +0.000 C 
ENDROOT
BRANCH   1   4
ATOM      2  C9  UNL     1       4.051  -0.351  -0.260  0.00  0.00    +0.000 C 
ATOM      3  O1  UNL     1       4.039  -1.307   0.509  0.00  0.00    +0.000 OA
ATOM      4  N1  UNL     1       2.909   0.151  -0.850  0.00  0.00    +0.000 N 
ATOM      5  H10 UNL     1       2.957   1.095  -1.220  0.00  0.00    +0.000 HD
BRANCH   2   6
ATOM      6  C8  UNL     1       5.313   0.357  -0.720  0.00  0.00    +0.000 C 
BRANCH   6   7
ATOM      7  C7  UNL     1       6.549  -0.027   0.089  0.00  0.00    +0.000 C 
BRANCH   7  13
ATOM      8  C1  UNL     1       6.217  -0.021   2.597  0.00  0.00    +0.000 A 
ATOM      9  C2  UNL     1       6.258   0.616   3.838  0.00  0.00    +0.000 A 
ATOM     10  C3  UNL     1       6.694   1.937   3.930  0.00  0.00    +0.000 A 
ATOM     11  C4  UNL     1       7.090   2.621   2.781  0.00  0.00    +0.000 A 
ATOM     12  C5  UNL     1       7.047   1.985   1.539  0.00  0.00    +0.000 A 
ATOM     13  C6  UNL     1       6.609   0.658   1.435  0.00  0.00    +0.000 A 
ENDBRANCH   7  13
ENDBRANCH   6   7
ENDBRANCH   2   6
ENDBRANCH   1   4
BRANCH   1  14
ATOM     14  C18 UNL     1       0.991   0.883   0.416  0.00  0.00    +0.000 C 
ATOM     15  O2  UNL     1       1.301   2.055   0.207  0.00  0.00    +0.000 OA
ATOM     16  N2  UNL     1       0.038   0.516   1.340  0.00  0.00    +0.000 N 
ATOM     17  H19 UNL     1      -0.154  -0.467   1.505  0.00  0.00    +0.000 HD
BRANCH  16  18
ATOM     18  C19 UNL     1      -0.548   1.481   2.267  0.00  0.00    +0.000 C 
BRANCH  18  19
ATOM     19  C20 UNL     1      -1.979   1.889   1.901  0.00  0.00    +0.000 C 
ATOM     20  O3  UNL     1      -2.731   2.428   2.712  0.00  0.00    +0.000 OA
ATOM     21  N3  UNL     1      -2.326   1.670   0.585  0.00  0.00    +0.000 N 
ATOM     22  H22 UNL     1      -1.741   1.000   0.101  0.00  0.00    +0.000 HD
BRANCH  21  23
ATOM     23  C21 UNL     1      -3.720   1.695   0.182  0.00  0.00    +0.000 C 
BRANCH  23  24
ATOM     24  C22 UNL     1      -4.285   0.267   0.259  0.00  0.00    +0.000 C 
ATOM     25  O4  UNL     1      -3.523  -0.705   0.317  0.00  0.00    +0.000 OA
ATOM     26  N4  UNL     1      -5.667   0.125   0.221  0.00  0.00    +0.000 N 
ATOM     27  C23 UNL     1      -6.600   1.245   0.081  0.00  0.00    +0.000 C 
ATOM     28  C24 UNL     1      -7.934   0.808  -0.514  0.00  0.00    +0.000 C 
ATOM     29  C25 UNL     1      -8.602  -0.297   0.302  0.00  0.00    +0.000 C 
ATOM     30  C26 UNL     1      -7.601  -1.172   1.056  0.00  0.00    +0.000 C 
ATOM     31  C27 UNL     1      -6.238  -1.212   0.373  0.00  0.00    +0.000 C 
ENDBRANCH  23  24
ENDBRANCH  21  23
ENDBRANCH  18  19
ENDBRANCH  16  18
ENDBRANCH   1  14
BRANCH   1  32
ATOM     32  C11 UNL     1       0.647  -0.596  -1.574  0.00  0.00    +0.000 C 
BRANCH  32  33
ATOM     33  C12 UNL     1       1.110  -1.704  -2.495  0.00  0.00    +0.000 A 
ATOM     34  C13 UNL     1       1.577  -2.929  -1.997  0.00  0.00    +0.000 A 
ATOM     35  C14 UNL     1       1.973  -3.947  -2.868  0.00  0.00    +0.000 A 
ATOM     36  C15 UNL     1       1.897  -3.759  -4.246  0.00  0.00    +0.000 A 
ATOM     37  C16 UNL     1       1.423  -2.552  -4.755  0.00  0.00    +0.000 A 
ATOM     38  C17 UNL     1       1.027  -1.533  -3.886  0.00  0.00    +0.000 A 
ENDBRANCH  32  33
ENDBRANCH   1  32
TORSDOF 11
