REMARK  Name = /home/anacleto/Desktop/manuscript_Mpro/naturecomm/supplementary_file_S2/6-chemical-library/molecular_docking/3D_ligand_structure/2338.pdb
REMARK  7 active torsions:
REMARK  status: ('A' for Active; 'I' for Inactive)
REMARK    1  A    between atoms: C3_8  and  C4_9
REMARK    2  A    between atoms: N4_11  and  C5_12
REMARK    3  A    between atoms: C5_12  and  C6_13
REMARK    4  A    between atoms: C5_12  and  C11_19
REMARK    5  A    between atoms: N6_21  and  C12_22
REMARK    6  A    between atoms: C12_22  and  C13_23
REMARK    7  A    between atoms: C13_23  and  C14_24
REMARK                            x       y       z     vdW  Elec       q    Type
REMARK                         _______ _______ _______ _____ _____    ______ ____
ROOT
ATOM      1  C5  UNL     1       1.554  -1.027  -1.880  0.00  0.00    +0.000 C 
ENDROOT
BRANCH   1   2
ATOM      2  C6  UNL     1       2.263  -2.344  -1.654  0.00  0.00    +0.000 A 
ATOM      3  C7  UNL     1       1.995  -3.171  -0.556  0.00  0.00    +0.000 A 
ATOM      4  C8  UNL     1       2.709  -4.354  -0.389  0.00  0.00    +0.000 A 
ATOM      5  C9  UNL     1       3.683  -4.669  -1.321  0.00  0.00    +0.000 A 
ATOM      6  N5  UNL     1       3.984  -3.892  -2.381  0.00  0.00    +0.000 NA
ATOM      7  C10 UNL     1       3.267  -2.754  -2.527  0.00  0.00    +0.000 A 
ENDBRANCH   1   2
BRANCH   1  10
ATOM      8  C4  UNL     1       2.219   1.306  -1.407  0.00  0.00    +0.000 C 
ATOM      9  O3  UNL     1       1.799   1.765  -2.456  0.00  0.00    +0.000 OA
ATOM     10  N4  UNL     1       2.160  -0.011  -1.023  0.00  0.00    +0.000 N 
ATOM     11  H3  UNL     1       2.558  -0.304  -0.138  0.00  0.00    +0.000 HD
BRANCH   8  19
ATOM     12  N1  UNL     1       4.095   2.336  -0.280  0.00  0.00    +0.000 NA
ATOM     13  N2  UNL     1       4.573   3.209   0.661  0.00  0.00    +0.000 N 
ATOM     14  C1  UNL     1       3.818   4.054   1.437  0.00  0.00    +0.000 A 
ATOM     15  O1  UNL     1       4.318   4.789   2.281  0.00  0.00    +0.000 OA
ATOM     16  N3  UNL     1       2.471   4.001   1.247  0.00  0.00    +0.000 N 
ATOM     17  C2  UNL     1       1.884   2.984   0.556  0.00  0.00    +0.000 A 
ATOM     18  O2  UNL     1       0.728   2.611   0.695  0.00  0.00    +0.000 OA
ATOM     19  C3  UNL     1       2.799   2.233  -0.370  0.00  0.00    +0.000 A 
ATOM     20  H1  UNL     1       5.584   3.265   0.762  0.00  0.00    +0.000 HD
ATOM     21  H2  UNL     1       1.910   4.506   1.916  0.00  0.00    +0.000 HD
ENDBRANCH   8  19
ENDBRANCH   1  10
BRANCH   1  22
ATOM     22  C11 UNL     1       0.013  -1.153  -1.683  0.00  0.00    +0.000 C 
ATOM     23  O4  UNL     1      -0.672  -1.921  -2.357  0.00  0.00    +0.000 OA
ATOM     24  N6  UNL     1      -0.522  -0.392  -0.654  0.00  0.00    +0.000 N 
ATOM     25  H9  UNL     1       0.009   0.428  -0.383  0.00  0.00    +0.000 HD
BRANCH  24  26
ATOM     26  C12 UNL     1      -1.960  -0.320  -0.463  0.00  0.00    +0.000 C 
BRANCH  26  27
ATOM     27  C13 UNL     1      -2.314   0.230   0.918  0.00  0.00    +0.000 C 
BRANCH  27  28
ATOM     28  C14 UNL     1      -3.804   0.349   1.116  0.00  0.00    +0.000 A 
ATOM     29  C15 UNL     1      -4.559  -0.765   1.506  0.00  0.00    +0.000 A 
ATOM     30  C16 UNL     1      -5.941  -0.659   1.671  0.00  0.00    +0.000 A 
ATOM     31  C17 UNL     1      -6.580   0.559   1.447  0.00  0.00    +0.000 A 
ATOM     32  C18 UNL     1      -5.838   1.671   1.054  0.00  0.00    +0.000 A 
ATOM     33  C19 UNL     1      -4.456   1.567   0.886  0.00  0.00    +0.000 A 
ENDBRANCH  27  28
ENDBRANCH  26  27
ENDBRANCH  24  26
ENDBRANCH   1  22
TORSDOF 7
