REMARK  Name = /home/anacleto/Desktop/manuscript_Mpro/naturecomm/supplementary_file_S2/6-chemical-library/molecular_docking/3D_ligand_structure/2342.pdb
REMARK  7 active torsions:
REMARK  status: ('A' for Active; 'I' for Inactive)
REMARK    1  A    between atoms: C4_8  and  C5_9
REMARK    2  A    between atoms: N3_11  and  C6_12
REMARK    3  A    between atoms: C6_12  and  C7_13
REMARK    4  A    between atoms: C6_12  and  C12_19
REMARK    5  A    between atoms: N5_21  and  C13_22
REMARK    6  A    between atoms: C13_22  and  C14_23
REMARK    7  A    between atoms: C14_23  and  C15_24
REMARK                            x       y       z     vdW  Elec       q    Type
REMARK                         _______ _______ _______ _____ _____    ______ ____
ROOT
ATOM      1  C6  UNL     1      -1.006   1.083   1.202  0.00  0.00    +0.000 C 
ENDROOT
BRANCH   1   2
ATOM      2  C7  UNL     1      -1.411   2.484   1.609  0.00  0.00    +0.000 A 
ATOM      3  C8  UNL     1      -1.362   3.572   0.728  0.00  0.00    +0.000 A 
ATOM      4  C9  UNL     1      -1.790   4.827   1.151  0.00  0.00    +0.000 A 
ATOM      5  C10 UNL     1      -2.272   4.955   2.442  0.00  0.00    +0.000 A 
ATOM      6  N4  UNL     1      -2.354   3.929   3.315  0.00  0.00    +0.000 NA
ATOM      7  C11 UNL     1      -1.918   2.724   2.883  0.00  0.00    +0.000 A 
ENDBRANCH   1   2
BRANCH   1  10
ATOM      8  C5  UNL     1      -2.309  -0.833   0.315  0.00  0.00    +0.000 C 
ATOM      9  O3  UNL     1      -1.577  -1.656   0.862  0.00  0.00    +0.000 OA
ATOM     10  N3  UNL     1      -2.072   0.511   0.369  0.00  0.00    +0.000 N 
ATOM     11  H4  UNL     1      -2.728   1.168  -0.029  0.00  0.00    +0.000 HD
BRANCH   8  19
ATOM     12  N1  UNL     1      -3.955  -2.568  -0.150  0.00  0.00    +0.000 N 
ATOM     13  C1  UNL     1      -5.024  -3.165  -0.749  0.00  0.00    +0.000 A 
ATOM     14  O1  UNL     1      -5.367  -4.310  -0.481  0.00  0.00    +0.000 OA
ATOM     15  N2  UNL     1      -5.684  -2.401  -1.668  0.00  0.00    +0.000 N 
ATOM     16  C2  UNL     1      -5.327  -1.138  -2.038  0.00  0.00    +0.000 A 
ATOM     17  O2  UNL     1      -5.929  -0.494  -2.888  0.00  0.00    +0.000 OA
ATOM     18  C3  UNL     1      -4.152  -0.560  -1.358  0.00  0.00    +0.000 A 
ATOM     19  C4  UNL     1      -3.526  -1.294  -0.431  0.00  0.00    +0.000 A 
ATOM     20  H1  UNL     1      -3.434  -3.120   0.527  0.00  0.00    +0.000 HD
ATOM     21  H2  UNL     1      -6.476  -2.820  -2.130  0.00  0.00    +0.000 HD
ENDBRANCH   8  19
ENDBRANCH   1  10
BRANCH   1  22
ATOM     22  C12 UNL     1       0.398   1.008   0.523  0.00  0.00    +0.000 C 
ATOM     23  O4  UNL     1       1.224   1.918   0.566  0.00  0.00    +0.000 OA
ATOM     24  N5  UNL     1       0.701  -0.220  -0.040  0.00  0.00    +0.000 N 
ATOM     25  H10 UNL     1       0.117  -1.011   0.227  0.00  0.00    +0.000 HD
BRANCH  24  26
ATOM     26  C13 UNL     1       2.012  -0.504  -0.594  0.00  0.00    +0.000 C 
BRANCH  26  27
ATOM     27  C14 UNL     1       3.037  -0.846   0.489  0.00  0.00    +0.000 C 
BRANCH  27  28
ATOM     28  C15 UNL     1       4.387  -1.161  -0.103  0.00  0.00    +0.000 A 
ATOM     29  C16 UNL     1       5.309  -0.135  -0.342  0.00  0.00    +0.000 A 
ATOM     30  C17 UNL     1       6.551  -0.419  -0.912  0.00  0.00    +0.000 A 
ATOM     31  C18 UNL     1       6.879  -1.730  -1.252  0.00  0.00    +0.000 A 
ATOM     32  C19 UNL     1       5.967  -2.758  -1.023  0.00  0.00    +0.000 A 
ATOM     33  C20 UNL     1       4.724  -2.476  -0.452  0.00  0.00    +0.000 A 
ENDBRANCH  27  28
ENDBRANCH  26  27
ENDBRANCH  24  26
ENDBRANCH   1  22
TORSDOF 7
