REMARK  Name = /home/anacleto/Desktop/manuscript_Mpro/naturecomm/supplementary_file_S2/6-chemical-library/molecular_docking/3D_ligand_structure/2346.pdb
REMARK  7 active torsions:
REMARK  status: ('A' for Active; 'I' for Inactive)
REMARK    1  A    between atoms: C3_5  and  C4_6
REMARK    2  A    between atoms: N2_8  and  C5_9
REMARK    3  A    between atoms: C5_9  and  C6_10
REMARK    4  A    between atoms: C5_9  and  C11_16
REMARK    5  A    between atoms: N4_18  and  C12_19
REMARK    6  A    between atoms: C12_19  and  S1_20
REMARK    7  A    between atoms: S1_20  and  C13_23
REMARK                            x       y       z     vdW  Elec       q    Type
REMARK                         _______ _______ _______ _____ _____    ______ ____
ROOT
ATOM      1  C5  UNL     1      -1.957   1.121  -0.075  0.00  0.00    +0.000 C 
ENDROOT
BRANCH   1   2
ATOM      2  C6  UNL     1      -2.124   1.161   1.425  0.00  0.00    +0.000 A 
ATOM      3  C7  UNL     1      -2.890   2.171   2.023  0.00  0.00    +0.000 A 
ATOM      4  C8  UNL     1      -3.059   2.191   3.404  0.00  0.00    +0.000 A 
ATOM      5  C9  UNL     1      -2.464   1.191   4.150  0.00  0.00    +0.000 A 
ATOM      6  N3  UNL     1      -1.733   0.193   3.613  0.00  0.00    +0.000 NA
ATOM      7  C10 UNL     1      -1.582   0.193   2.268  0.00  0.00    +0.000 A 
ENDBRANCH   1   2
BRANCH   1  10
ATOM      8  C4  UNL     1      -3.412   0.487  -1.947  0.00  0.00    +0.000 C 
ATOM      9  O2  UNL     1      -3.183   1.513  -2.579  0.00  0.00    +0.000 OA
ATOM     10  N2  UNL     1      -2.968   0.267  -0.664  0.00  0.00    +0.000 N 
ATOM     11  H3  UNL     1      -3.037  -0.697  -0.347  0.00  0.00    +0.000 HD
BRANCH   8  16
ATOM     12  N1  UNL     1      -4.426  -1.804  -1.790  0.00  0.00    +0.000 NA
ATOM     13  C1  UNL     1      -5.127  -2.516  -2.644  0.00  0.00    +0.000 A 
ATOM     14  O1  UNL     1      -5.364  -1.916  -3.843  0.00  0.00    +0.000 OA
ATOM     15  C2  UNL     1      -4.748  -0.706  -3.731  0.00  0.00    +0.000 A 
ATOM     16  C3  UNL     1      -4.174  -0.629  -2.484  0.00  0.00    +0.000 A 
ENDBRANCH   8  16
ENDBRANCH   1  10
BRANCH   1  17
ATOM     17  C11 UNL     1      -0.547   0.647  -0.512  0.00  0.00    +0.000 C 
ATOM     18  O3  UNL     1      -0.333  -0.456  -1.013  0.00  0.00    +0.000 OA
ATOM     19  N4  UNL     1       0.468   1.562  -0.293  0.00  0.00    +0.000 N 
ATOM     20  H9  UNL     1       0.300   2.301   0.382  0.00  0.00    +0.000 HD
BRANCH  19  21
ATOM     21  C12 UNL     1       1.856   1.137  -0.464  0.00  0.00    +0.000 C 
BRANCH  21  22
ATOM     22  S1  UNL     1       2.638   0.416   0.999  0.00  0.00    +0.000 S 
ATOM     23  O4  UNL     1       2.908   1.502   1.926  0.00  0.00    +0.000 OA
ATOM     24  O5  UNL     1       1.884  -0.745   1.431  0.00  0.00    +0.000 OA
BRANCH  22  25
ATOM     25  C13 UNL     1       4.195  -0.161   0.369  0.00  0.00    +0.000 A 
ATOM     26  C14 UNL     1       4.253  -1.405  -0.267  0.00  0.00    +0.000 A 
ATOM     27  C15 UNL     1       5.473  -1.863  -0.762  0.00  0.00    +0.000 A 
ATOM     28  C16 UNL     1       6.624  -1.087  -0.611  0.00  0.00    +0.000 A 
ATOM     29  C17 UNL     1       6.562   0.146   0.042  0.00  0.00    +0.000 A 
ATOM     30  C18 UNL     1       5.346   0.613   0.540  0.00  0.00    +0.000 A 
ENDBRANCH  22  25
ENDBRANCH  21  22
ENDBRANCH  19  21
ENDBRANCH   1  17
TORSDOF 7
