REMARK  Name = /home/anacleto/Desktop/manuscript_Mpro/naturecomm/supplementary_file_S2/6-chemical-library/molecular_docking/3D_ligand_structure/2353.pdb
REMARK  7 active torsions:
REMARK  status: ('A' for Active; 'I' for Inactive)
REMARK    1  A    between atoms: C3_5  and  C4_6
REMARK    2  A    between atoms: N2_8  and  C5_9
REMARK    3  A    between atoms: C5_9  and  C6_10
REMARK    4  A    between atoms: C5_9  and  C11_16
REMARK    5  A    between atoms: N4_18  and  C12_19
REMARK    6  A    between atoms: C12_19  and  C13_20
REMARK    7  A    between atoms: N5_22  and  C14_23
REMARK                            x       y       z     vdW  Elec       q    Type
REMARK                         _______ _______ _______ _____ _____    ______ ____
ROOT
ATOM      1  C5  UNL     1       1.894  -0.457  -0.760  0.00  0.00    +0.000 C 
ENDROOT
BRANCH   1   2
ATOM      2  C6  UNL     1       2.755  -1.644  -1.122  0.00  0.00    +0.000 A 
ATOM      3  C7  UNL     1       3.085  -2.647  -0.201  0.00  0.00    +0.000 A 
ATOM      4  C8  UNL     1       3.882  -3.717  -0.598  0.00  0.00    +0.000 A 
ATOM      5  C9  UNL     1       4.332  -3.750  -1.907  0.00  0.00    +0.000 A 
ATOM      6  N3  UNL     1       4.047  -2.798  -2.819  0.00  0.00    +0.000 NA
ATOM      7  C10 UNL     1       3.282  -1.762  -2.405  0.00  0.00    +0.000 A 
ENDBRANCH   1   2
BRANCH   1  10
ATOM      8  C4  UNL     1       3.362   1.507  -0.465  0.00  0.00    +0.000 C 
ATOM      9  O2  UNL     1       3.465   1.646  -1.682  0.00  0.00    +0.000 OA
ATOM     10  N2  UNL     1       2.631   0.474   0.079  0.00  0.00    +0.000 N 
ATOM     11  H3  UNL     1       2.436   0.430   1.070  0.00  0.00    +0.000 HD
BRANCH   8  16
ATOM     12  N1  UNL     1       4.679   3.561   0.116  0.00  0.00    +0.000 NA
ATOM     13  C1  UNL     1       5.074   4.086   1.251  0.00  0.00    +0.000 A 
ATOM     14  O1  UNL     1       4.706   3.395   2.363  0.00  0.00    +0.000 OA
ATOM     15  C2  UNL     1       4.011   2.331   1.870  0.00  0.00    +0.000 A 
ATOM     16  C3  UNL     1       3.985   2.420   0.493  0.00  0.00    +0.000 A 
ENDBRANCH   8  16
ENDBRANCH   1  10
BRANCH   1  17
ATOM     17  C11 UNL     1       0.619  -0.877   0.012  0.00  0.00    +0.000 C 
ATOM     18  O3  UNL     1       0.490  -0.672   1.221  0.00  0.00    +0.000 OA
ATOM     19  N4  UNL     1      -0.338  -1.524  -0.742  0.00  0.00    +0.000 N 
ATOM     20  H9  UNL     1      -0.307  -1.385  -1.747  0.00  0.00    +0.000 HD
BRANCH  19  21
ATOM     21  C12 UNL     1      -1.659  -1.774  -0.192  0.00  0.00    +0.000 C 
BRANCH  21  22
ATOM     22  C13 UNL     1      -2.600  -0.623  -0.574  0.00  0.00    +0.000 C 
ATOM     23  O4  UNL     1      -2.390   0.046  -1.583  0.00  0.00    +0.000 OA
ATOM     24  N5  UNL     1      -3.672  -0.502   0.294  0.00  0.00    +0.000 N 
ATOM     25  H12 UNL     1      -3.682  -1.113   1.100  0.00  0.00    +0.000 HD
BRANCH  24  26
ATOM     26  C14 UNL     1      -4.739   0.418   0.217  0.00  0.00    +0.000 A 
ATOM     27  C15 UNL     1      -4.894   1.355  -0.806  0.00  0.00    +0.000 A 
ATOM     28  C16 UNL     1      -5.985   2.231  -0.807  0.00  0.00    +0.000 A 
ATOM     29  C17 UNL     1      -6.930   2.178   0.214  0.00  0.00    +0.000 A 
ATOM     30  C18 UNL     1      -6.786   1.247   1.239  0.00  0.00    +0.000 A 
ATOM     31  C19 UNL     1      -5.696   0.372   1.240  0.00  0.00    +0.000 A 
ENDBRANCH  24  26
ENDBRANCH  21  22
ENDBRANCH  19  21
ENDBRANCH   1  17
TORSDOF 7
