REMARK  Name = /home/anacleto/Desktop/manuscript_Mpro/naturecomm/supplementary_file_S2/6-chemical-library/molecular_docking/3D_ligand_structure/2355.pdb
REMARK  7 active torsions:
REMARK  status: ('A' for Active; 'I' for Inactive)
REMARK    1  A    between atoms: C6_6  and  N1_7
REMARK    2  A    between atoms: N1_7  and  C11_15
REMARK    3  A    between atoms: C7_8  and  C8_10
REMARK    4  A    between atoms: C11_15  and  C12_16
REMARK    5  A    between atoms: N3_18  and  C13_19
REMARK    6  A    between atoms: C13_19  and  C14_20
REMARK    7  A    between atoms: N4_22  and  C15_23
REMARK                            x       y       z     vdW  Elec       q    Type
REMARK                         _______ _______ _______ _____ _____    ______ ____
ROOT
ATOM      1  C11 UNL     1      -1.868  -0.488  -0.722  0.00  0.00    +0.000 C 
ENDROOT
BRANCH   1   2
ATOM      2  C12 UNL     1      -0.721   0.356  -1.296  0.00  0.00    +0.000 C 
ATOM      3  O3  UNL     1      -0.248   0.134  -2.413  0.00  0.00    +0.000 OA
ATOM      4  N3  UNL     1      -0.199   1.322  -0.469  0.00  0.00    +0.000 N 
ATOM      5  H10 UNL     1      -0.365   1.188   0.523  0.00  0.00    +0.000 HD
BRANCH   4   6
ATOM      6  C13 UNL     1       0.990   2.070  -0.835  0.00  0.00    +0.000 C 
BRANCH   6   7
ATOM      7  C14 UNL     1       2.261   1.269  -0.525  0.00  0.00    +0.000 C 
ATOM      8  O4  UNL     1       3.003   1.596   0.397  0.00  0.00    +0.000 OA
ATOM      9  N4  UNL     1       2.421   0.185  -1.372  0.00  0.00    +0.000 N 
ATOM     10  H13 UNL     1       1.664   0.036  -2.040  0.00  0.00    +0.000 HD
BRANCH   9  11
ATOM     11  C15 UNL     1       3.439  -0.785  -1.354  0.00  0.00    +0.000 A 
ATOM     12  C16 UNL     1       3.320  -1.849  -2.257  0.00  0.00    +0.000 A 
ATOM     13  C17 UNL     1       4.279  -2.864  -2.293  0.00  0.00    +0.000 A 
ATOM     14  C18 UNL     1       5.369  -2.823  -1.427  0.00  0.00    +0.000 A 
ATOM     15  C19 UNL     1       5.499  -1.764  -0.531  0.00  0.00    +0.000 A 
ATOM     16  C20 UNL     1       4.539  -0.748  -0.496  0.00  0.00    +0.000 A 
ENDBRANCH   9  11
ENDBRANCH   6   7
ENDBRANCH   4   6
ENDBRANCH   1   2
BRANCH   1  17
ATOM     17  N1  UNL     1      -2.461  -0.010   0.541  0.00  0.00    +0.000 N 
ATOM     18  C7  UNL     1      -2.244  -0.754   1.725  0.00  0.00    +0.000 C 
ATOM     19  O1  UNL     1      -3.080  -0.880   2.619  0.00  0.00    +0.000 OA
BRANCH  17  25
ATOM     20  C1  UNL     1      -3.932   1.657   1.664  0.00  0.00    +0.000 A 
ATOM     21  C2  UNL     1      -4.814   2.745   1.625  0.00  0.00    +0.000 A 
ATOM     22  C3  UNL     1      -5.173   3.312   0.409  0.00  0.00    +0.000 A 
ATOM     23  C4  UNL     1      -4.641   2.795  -0.764  0.00  0.00    +0.000 A 
ATOM     24  C5  UNL     1      -3.761   1.706  -0.721  0.00  0.00    +0.000 A 
ATOM     25  C6  UNL     1      -3.396   1.096   0.494  0.00  0.00    +0.000 A 
ENDBRANCH  17  25
BRANCH  18  26
ATOM     26  C8  UNL     1      -0.931  -1.389   1.887  0.00  0.00    +0.000 A 
ATOM     27  C9  UNL     1      -0.604  -2.313   2.856  0.00  0.00    +0.000 A 
ATOM     28  O2  UNL     1       0.712  -2.636   2.718  0.00  0.00    +0.000 OA
ATOM     29  C10 UNL     1       1.130  -1.870   1.674  0.00  0.00    +0.000 A 
ATOM     30  N2  UNL     1       0.201  -1.108   1.140  0.00  0.00    +0.000 NA
ENDBRANCH  18  26
ENDBRANCH   1  17
TORSDOF 7
