REMARK  Name = /home/anacleto/Desktop/manuscript_Mpro/naturecomm/supplementary_file_S2/6-chemical-library/molecular_docking/3D_ligand_structure/2364.pdb
REMARK  7 active torsions:
REMARK  status: ('A' for Active; 'I' for Inactive)
REMARK    1  A    between atoms: C4_7  and  C5_8
REMARK    2  A    between atoms: N3_10  and  C6_11
REMARK    3  A    between atoms: N3_10  and  C12_17
REMARK    4  A    between atoms: C12_17  and  C13_18
REMARK    5  A    between atoms: N4_20  and  C14_21
REMARK    6  A    between atoms: C14_21  and  C15_22
REMARK    7  A    between atoms: C15_22  and  C16_23
REMARK                            x       y       z     vdW  Elec       q    Type
REMARK                         _______ _______ _______ _____ _____    ______ ____
ROOT
ATOM      1  C5  UNL     1      -3.192   0.314  -1.255  0.00  0.00    +0.000 C 
ATOM      2  O2  UNL     1      -3.888   0.800  -2.142  0.00  0.00    +0.000 OA
ATOM      3  N3  UNL     1      -2.510   0.989  -0.224  0.00  0.00    +0.000 N 
ENDROOT
BRANCH   1  10
ATOM      4  N1  UNL     1      -1.982  -1.800  -1.428  0.00  0.00    +0.000 NA
ATOM      5  N2  UNL     1      -2.004  -3.169  -1.419  0.00  0.00    +0.000 N 
ATOM      6  C1  UNL     1      -3.120  -3.953  -1.258  0.00  0.00    +0.000 A 
ATOM      7  O1  UNL     1      -3.085  -5.177  -1.243  0.00  0.00    +0.000 OA
ATOM      8  C2  UNL     1      -4.397  -3.231  -1.086  0.00  0.00    +0.000 A 
ATOM      9  C3  UNL     1      -4.421  -1.896  -1.089  0.00  0.00    +0.000 A 
ATOM     10  C4  UNL     1      -3.125  -1.204  -1.270  0.00  0.00    +0.000 A 
ATOM     11  H1  UNL     1      -1.118  -3.641  -1.576  0.00  0.00    +0.000 HD
ENDBRANCH   1  10
BRANCH   3  12
ATOM     12  C6  UNL     1      -2.596   2.425  -0.072  0.00  0.00    +0.000 A 
ATOM     13  C7  UNL     1      -3.682   3.159  -0.576  0.00  0.00    +0.000 A 
ATOM     14  C8  UNL     1      -3.774   4.546  -0.403  0.00  0.00    +0.000 A 
ATOM     15  C9  UNL     1      -2.780   5.235   0.279  0.00  0.00    +0.000 A 
ATOM     16  C10 UNL     1      -1.694   4.536   0.788  0.00  0.00    +0.000 A 
ATOM     17  C11 UNL     1      -1.606   3.148   0.616  0.00  0.00    +0.000 A 
ENDBRANCH   3  12
BRANCH   3  18
ATOM     18  C12 UNL     1      -1.653   0.245   0.714  0.00  0.00    +0.000 C 
BRANCH  18  19
ATOM     19  C13 UNL     1      -0.203   0.061   0.236  0.00  0.00    +0.000 C 
ATOM     20  O3  UNL     1       0.334   0.773  -0.606  0.00  0.00    +0.000 OA
ATOM     21  N4  UNL     1       0.480  -0.933   0.917  0.00  0.00    +0.000 N 
ATOM     22  H11 UNL     1      -0.036  -1.588   1.489  0.00  0.00    +0.000 HD
BRANCH  21  23
ATOM     23  C14 UNL     1       1.854  -1.261   0.581  0.00  0.00    +0.000 C 
BRANCH  23  24
ATOM     24  C15 UNL     1       2.851  -0.268   1.184  0.00  0.00    +0.000 C 
BRANCH  24  25
ATOM     25  C16 UNL     1       4.275  -0.644   0.865  0.00  0.00    +0.000 A 
ATOM     26  C17 UNL     1       4.841  -0.280  -0.364  0.00  0.00    +0.000 A 
ATOM     27  C18 UNL     1       6.154  -0.640  -0.672  0.00  0.00    +0.000 A 
ATOM     28  C19 UNL     1       6.911  -1.369   0.244  0.00  0.00    +0.000 A 
ATOM     29  C20 UNL     1       6.356  -1.739   1.467  0.00  0.00    +0.000 A 
ATOM     30  C21 UNL     1       5.043  -1.381   1.777  0.00  0.00    +0.000 A 
ENDBRANCH  24  25
ENDBRANCH  23  24
ENDBRANCH  21  23
ENDBRANCH  18  19
ENDBRANCH   3  18
TORSDOF 7
