REMARK  Name = /home/anacleto/Desktop/manuscript_Mpro/naturecomm/supplementary_file_S2/6-chemical-library/molecular_docking/3D_ligand_structure/2372.pdb
REMARK  7 active torsions:
REMARK  status: ('A' for Active; 'I' for Inactive)
REMARK    1  A    between atoms: C2_6  and  C3_7
REMARK    2  A    between atoms: N4_9  and  C4_10
REMARK    3  A    between atoms: C4_10  and  C5_11
REMARK    4  A    between atoms: C4_10  and  C10_17
REMARK    5  A    between atoms: N6_19  and  C11_20
REMARK    6  A    between atoms: C11_20  and  C12_21
REMARK    7  A    between atoms: C12_21  and  C13_22
REMARK                            x       y       z     vdW  Elec       q    Type
REMARK                         _______ _______ _______ _____ _____    ______ ____
ROOT
ATOM      1  C4  UNL     1      -1.568  -0.446   0.527  0.00  0.00    +0.000 C 
ENDROOT
BRANCH   1   2
ATOM      2  C5  UNL     1      -1.484  -1.769  -0.199  0.00  0.00    +0.000 A 
ATOM      3  C6  UNL     1      -1.344  -1.856  -1.591  0.00  0.00    +0.000 A 
ATOM      4  C7  UNL     1      -1.272  -3.105  -2.202  0.00  0.00    +0.000 A 
ATOM      5  C8  UNL     1      -1.341  -4.233  -1.400  0.00  0.00    +0.000 A 
ATOM      6  N5  UNL     1      -1.482  -4.192  -0.057  0.00  0.00    +0.000 NA
ATOM      7  C9  UNL     1      -1.565  -2.966   0.508  0.00  0.00    +0.000 A 
ENDBRANCH   1   2
BRANCH   1  10
ATOM      8  C3  UNL     1      -3.988  -0.031   0.778  0.00  0.00    +0.000 C 
ATOM      9  O2  UNL     1      -4.176  -0.828   1.686  0.00  0.00    +0.000 OA
ATOM     10  N4  UNL     1      -2.792   0.251   0.183  0.00  0.00    +0.000 N 
ATOM     11  H3  UNL     1      -2.771   0.936  -0.571  0.00  0.00    +0.000 HD
BRANCH   8  17
ATOM     12  N1  UNL     1      -6.435   0.647   0.753  0.00  0.00    +0.000 N 
ATOM     13  N2  UNL     1      -7.219   1.260  -0.237  0.00  0.00    +0.000 N 
ATOM     14  C1  UNL     1      -6.343   1.919  -1.091  0.00  0.00    +0.000 A 
ATOM     15  O1  UNL     1      -6.683   2.799  -1.869  0.00  0.00    +0.000 OA
ATOM     16  N3  UNL     1      -5.058   1.477  -0.862  0.00  0.00    +0.000 NA
ATOM     17  C2  UNL     1      -5.170   0.732   0.208  0.00  0.00    +0.000 A 
ATOM     18  H1  UNL     1      -6.697  -0.298   1.037  0.00  0.00    +0.000 HD
ATOM     19  H2  UNL     1      -8.016   1.815   0.053  0.00  0.00    +0.000 HD
ENDBRANCH   8  17
ENDBRANCH   1  10
BRANCH   1  20
ATOM     20  C10 UNL     1      -0.351   0.453   0.209  0.00  0.00    +0.000 C 
ATOM     21  O3  UNL     1      -0.445   1.471  -0.473  0.00  0.00    +0.000 OA
ATOM     22  N6  UNL     1       0.848   0.008   0.736  0.00  0.00    +0.000 N 
ATOM     23  H9  UNL     1       0.846  -0.772   1.378  0.00  0.00    +0.000 HD
BRANCH  22  24
ATOM     24  C11 UNL     1       2.070   0.776   0.570  0.00  0.00    +0.000 C 
BRANCH  24  25
ATOM     25  C12 UNL     1       3.307  -0.030   0.967  0.00  0.00    +0.000 C 
BRANCH  25  26
ATOM     26  C13 UNL     1       4.583   0.735   0.726  0.00  0.00    +0.000 A 
ATOM     27  C14 UNL     1       5.104   1.586   1.713  0.00  0.00    +0.000 A 
ATOM     28  C15 UNL     1       6.275   2.311   1.478  0.00  0.00    +0.000 A 
ATOM     29  C16 UNL     1       6.934   2.194   0.257  0.00  0.00    +0.000 A 
ATOM     30  C17 UNL     1       6.422   1.354  -0.731  0.00  0.00    +0.000 A 
ATOM     31  C18 UNL     1       5.251   0.629  -0.500  0.00  0.00    +0.000 A 
ENDBRANCH  25  26
ENDBRANCH  24  25
ENDBRANCH  22  24
ENDBRANCH   1  20
TORSDOF 7
