REMARK  Name = /home/anacleto/Desktop/manuscript_Mpro/naturecomm/supplementary_file_S2/6-chemical-library/molecular_docking/3D_ligand_structure/2374.pdb
REMARK  7 active torsions:
REMARK  status: ('A' for Active; 'I' for Inactive)
REMARK    1  A    between atoms: C3_5  and  C4_6
REMARK    2  A    between atoms: N2_8  and  C5_9
REMARK    3  A    between atoms: C5_9  and  C6_10
REMARK    4  A    between atoms: C5_9  and  C11_17
REMARK    5  A    between atoms: N4_19  and  C12_20
REMARK    6  A    between atoms: C12_20  and  C13_21
REMARK    7  A    between atoms: C13_21  and  C14_22
REMARK                            x       y       z     vdW  Elec       q    Type
REMARK                         _______ _______ _______ _____ _____    ______ ____
ROOT
ATOM      1  C5  UNL     1       1.513  -1.019   1.565  0.00  0.00    +0.000 C 
ENDROOT
BRANCH   1   2
ATOM      2  C6  UNL     1       1.854  -2.051   0.524  0.00  0.00    +0.000 A 
ATOM      3  C7  UNL     1       1.937  -1.600  -0.902  0.00  0.00    +0.000 A 
ATOM      4  O3  UNL     1       1.825  -0.413  -1.204  0.00  0.00    +0.000 OA
ATOM      5  N3  UNL     1       2.175  -2.576  -1.839  0.00  0.00    +0.000 N 
ATOM      6  C8  UNL     1       2.373  -3.897  -1.533  0.00  0.00    +0.000 A 
ATOM      7  C9  UNL     1       2.332  -4.305  -0.260  0.00  0.00    +0.000 A 
ATOM      8  C10 UNL     1       2.059  -3.354   0.792  0.00  0.00    +0.000 A 
ATOM      9  H5  UNL     1       2.225  -2.270  -2.804  0.00  0.00    +0.000 HD
ENDBRANCH   1   2
BRANCH   1  12
ATOM     10  C4  UNL     1       2.670   0.937   2.521  0.00  0.00    +0.000 C 
ATOM     11  O2  UNL     1       2.245   0.676   3.642  0.00  0.00    +0.000 OA
ATOM     12  N2  UNL     1       2.424   0.112   1.442  0.00  0.00    +0.000 N 
ATOM     13  H3  UNL     1       2.609   0.447   0.504  0.00  0.00    +0.000 HD
BRANCH  10  18
ATOM     14  N1  UNL     1       3.699   3.133   3.165  0.00  0.00    +0.000 NA
ATOM     15  C1  UNL     1       4.435   4.007   2.520  0.00  0.00    +0.000 A 
ATOM     16  O1  UNL     1       4.712   3.682   1.230  0.00  0.00    +0.000 OA
ATOM     17  C2  UNL     1       4.087   2.484   1.053  0.00  0.00    +0.000 A 
ATOM     18  C3  UNL     1       3.459   2.136   2.232  0.00  0.00    +0.000 A 
ENDBRANCH  10  18
ENDBRANCH   1  12
BRANCH   1  19
ATOM     19  C11 UNL     1       0.017  -0.643   1.387  0.00  0.00    +0.000 C 
ATOM     20  O4  UNL     1      -0.890  -1.369   1.794  0.00  0.00    +0.000 OA
ATOM     21  N4  UNL     1      -0.226   0.483   0.619  0.00  0.00    +0.000 N 
ATOM     22  H9  UNL     1       0.524   0.775   0.001  0.00  0.00    +0.000 HD
BRANCH  21  23
ATOM     23  C12 UNL     1      -1.576   0.856   0.238  0.00  0.00    +0.000 C 
BRANCH  23  24
ATOM     24  C13 UNL     1      -2.103   0.006  -0.921  0.00  0.00    +0.000 C 
BRANCH  24  25
ATOM     25  C14 UNL     1      -3.482   0.439  -1.350  0.00  0.00    +0.000 A 
ATOM     26  C15 UNL     1      -4.614  -0.040  -0.676  0.00  0.00    +0.000 A 
ATOM     27  C16 UNL     1      -5.891   0.373  -1.057  0.00  0.00    +0.000 A 
ATOM     28  C17 UNL     1      -6.048   1.271  -2.111  0.00  0.00    +0.000 A 
ATOM     29  C18 UNL     1      -4.929   1.757  -2.785  0.00  0.00    +0.000 A 
ATOM     30  C19 UNL     1      -3.651   1.345  -2.405  0.00  0.00    +0.000 A 
ENDBRANCH  24  25
ENDBRANCH  23  24
ENDBRANCH  21  23
ENDBRANCH   1  19
TORSDOF 7
