REMARK  Name = /home/anacleto/Desktop/manuscript_Mpro/naturecomm/supplementary_file_S2/6-chemical-library/molecular_docking/3D_ligand_structure/2387.pdb
REMARK  8 active torsions:
REMARK  status: ('A' for Active; 'I' for Inactive)
REMARK    1  A    between atoms: C6_6  and  N1_7
REMARK    2  A    between atoms: N1_7  and  C12_15
REMARK    3  A    between atoms: C7_8  and  C8_10
REMARK    4  A    between atoms: C12_15  and  C13_16
REMARK    5  A    between atoms: N2_18  and  C14_19
REMARK    6  A    between atoms: C14_19  and  C15_20
REMARK    7  A    between atoms: C15_20  and  C16_21
REMARK    8  A    between atoms: C16_21  and  C17_22
REMARK                            x       y       z     vdW  Elec       q    Type
REMARK                         _______ _______ _______ _____ _____    ______ ____
ROOT
ATOM      1  N1  UNL     1      -2.289  -1.015  -0.020  0.00  0.00    +0.000 N 
ATOM      2  C7  UNL     1      -2.092  -0.163  -1.126  0.00  0.00    +0.000 C 
ATOM      3  O1  UNL     1      -1.087  -0.291  -1.833  0.00  0.00    +0.000 OA
ENDROOT
BRANCH   1   9
ATOM      4  C1  UNL     1      -3.697  -1.703   1.876  0.00  0.00    +0.000 A 
ATOM      5  C2  UNL     1      -4.935  -2.081   2.404  0.00  0.00    +0.000 A 
ATOM      6  C3  UNL     1      -6.053  -2.158   1.578  0.00  0.00    +0.000 A 
ATOM      7  C4  UNL     1      -5.933  -1.859   0.224  0.00  0.00    +0.000 A 
ATOM      8  C5  UNL     1      -4.695  -1.478  -0.303  0.00  0.00    +0.000 A 
ATOM      9  C6  UNL     1      -3.561  -1.384   0.517  0.00  0.00    +0.000 A 
ENDBRANCH   1   9
BRANCH   2  10
ATOM     10  C8  UNL     1      -3.037   0.924  -1.344  0.00  0.00    +0.000 A 
ATOM     11  C9  UNL     1      -3.839   1.666  -0.492  0.00  0.00    +0.000 A 
ATOM     12  C10 UNL     1      -4.521   2.618  -1.289  0.00  0.00    +0.000 A 
ATOM     13  C11 UNL     1      -4.084   2.418  -2.576  0.00  0.00    +0.000 A 
ATOM     14  O2  UNL     1      -3.184   1.404  -2.621  0.00  0.00    +0.000 OA
ENDBRANCH   2  10
BRANCH   1  15
ATOM     15  C12 UNL     1      -1.101  -1.725   0.454  0.00  0.00    +0.000 C 
BRANCH  15  16
ATOM     16  C13 UNL     1      -0.246  -0.808   1.336  0.00  0.00    +0.000 C 
ATOM     17  O3  UNL     1      -0.728  -0.018   2.145  0.00  0.00    +0.000 OA
ATOM     18  N2  UNL     1       1.116  -0.974   1.172  0.00  0.00    +0.000 N 
ATOM     19  H11 UNL     1       1.452  -1.730   0.589  0.00  0.00    +0.000 HD
BRANCH  18  20
ATOM     20  C14 UNL     1       2.071  -0.259   1.993  0.00  0.00    +0.000 C 
BRANCH  20  21
ATOM     21  C15 UNL     1       3.421  -0.099   1.301  0.00  0.00    +0.000 C 
BRANCH  21  22
ATOM     22  C16 UNL     1       3.348   0.854   0.103  0.00  0.00    +0.000 C 
BRANCH  22  23
ATOM     23  C17 UNL     1       4.699   1.018  -0.549  0.00  0.00    +0.000 A 
ATOM     24  C18 UNL     1       5.067   0.215  -1.637  0.00  0.00    +0.000 A 
ATOM     25  C19 UNL     1       6.327   0.353  -2.224  0.00  0.00    +0.000 A 
ATOM     26  C20 UNL     1       7.230   1.290  -1.726  0.00  0.00    +0.000 A 
ATOM     27  C21 UNL     1       6.874   2.092  -0.642  0.00  0.00    +0.000 A 
ATOM     28  C22 UNL     1       5.615   1.957  -0.055  0.00  0.00    +0.000 A 
ENDBRANCH  22  23
ENDBRANCH  21  22
ENDBRANCH  20  21
ENDBRANCH  18  20
ENDBRANCH  15  16
ENDBRANCH   1  15
TORSDOF 8
