REMARK  Name = /home/anacleto/Desktop/manuscript_Mpro/naturecomm/supplementary_file_S2/6-chemical-library/molecular_docking/3D_ligand_structure/2398.pdb
REMARK  7 active torsions:
REMARK  status: ('A' for Active; 'I' for Inactive)
REMARK    1  A    between atoms: C6_6  and  C7_7
REMARK    2  A    between atoms: C7_7  and  C8_8
REMARK    3  A    between atoms: C8_8  and  N1_9
REMARK    4  A    between atoms: C9_10  and  C10_12
REMARK    5  A    between atoms: C10_12  and  N2_13
REMARK    6  A    between atoms: N2_13  and  C11_14
REMARK    7  A    between atoms: C17_20  and  C18_22
REMARK                            x       y       z     vdW  Elec       q    Type
REMARK                         _______ _______ _______ _____ _____    ______ ____
ROOT
ATOM      1  N2  UNL     1      -1.633   0.289  -0.161  0.00  0.00    +0.000 N 
ATOM      2  C17 UNL     1      -2.279  -0.130   1.020  0.00  0.00    +0.000 C 
ATOM      3  O2  UNL     1      -2.200   0.415   2.119  0.00  0.00    +0.000 OA
ENDROOT
BRANCH   1   4
ATOM      4  C11 UNL     1      -1.044   1.605  -0.268  0.00  0.00    +0.000 A 
ATOM      5  C12 UNL     1      -0.032   1.885  -1.204  0.00  0.00    +0.000 A 
ATOM      6  C13 UNL     1       0.529   3.163  -1.311  0.00  0.00    +0.000 A 
ATOM      7  C14 UNL     1       0.081   4.197  -0.497  0.00  0.00    +0.000 A 
ATOM      8  C15 UNL     1      -0.926   3.948   0.429  0.00  0.00    +0.000 A 
ATOM      9  C16 UNL     1      -1.479   2.667   0.541  0.00  0.00    +0.000 A 
ENDBRANCH   1   4
BRANCH   2  10
ATOM     10  C18 UNL     1      -3.078  -1.371   0.975  0.00  0.00    +0.000 A 
ATOM     11  C19 UNL     1      -2.550  -2.550   1.509  0.00  0.00    +0.000 A 
ATOM     12  C20 UNL     1      -3.304  -3.723   1.452  0.00  0.00    +0.000 A 
ATOM     13  C21 UNL     1      -4.579  -3.707   0.881  0.00  0.00    +0.000 A 
ATOM     14  C22 UNL     1      -5.112  -2.519   0.374  0.00  0.00    +0.000 A 
ATOM     15  C23 UNL     1      -4.364  -1.343   0.423  0.00  0.00    +0.000 A 
ENDBRANCH   2  10
BRANCH   1  16
ATOM     16  C10 UNL     1      -1.449  -0.654  -1.285  0.00  0.00    +0.000 C 
BRANCH  16  18
ATOM     17  N1  UNL     1       0.613  -1.297  -0.089  0.00  0.00    +0.000 N 
ATOM     18  C9  UNL     1      -0.223  -1.569  -1.147  0.00  0.00    +0.000 C 
ATOM     19  O1  UNL     1       0.001  -2.468  -1.957  0.00  0.00    +0.000 OA
ATOM     20  H10 UNL     1       0.404  -0.493   0.498  0.00  0.00    +0.000 HD
BRANCH  17  21
ATOM     21  C8  UNL     1       1.838  -2.038   0.136  0.00  0.00    +0.000 C 
BRANCH  21  22
ATOM     22  C7  UNL     1       2.774  -1.351   1.134  0.00  0.00    +0.000 C 
BRANCH  22  28
ATOM     23  C1  UNL     1       2.949   1.175   1.133  0.00  0.00    +0.000 A 
ATOM     24  C2  UNL     1       3.491   2.365   0.638  0.00  0.00    +0.000 A 
ATOM     25  C3  UNL     1       4.435   2.333  -0.388  0.00  0.00    +0.000 A 
ATOM     26  C4  UNL     1       4.846   1.110  -0.916  0.00  0.00    +0.000 A 
ATOM     27  C5  UNL     1       4.310  -0.080  -0.418  0.00  0.00    +0.000 A 
ATOM     28  C6  UNL     1       3.355  -0.060   0.610  0.00  0.00    +0.000 A 
ENDBRANCH  22  28
ENDBRANCH  21  22
ENDBRANCH  17  21
ENDBRANCH  16  18
ENDBRANCH   1  16
TORSDOF 7
