REMARK  Name = /home/anacleto/Desktop/manuscript_Mpro/naturecomm/supplementary_file_S2/6-chemical-library/molecular_docking/3D_ligand_structure/2410.pdb
REMARK  7 active torsions:
REMARK  status: ('A' for Active; 'I' for Inactive)
REMARK    1  A    between atoms: C3_5  and  C4_6
REMARK    2  A    between atoms: N2_8  and  C5_9
REMARK    3  A    between atoms: C5_9  and  C6_10
REMARK    4  A    between atoms: C5_9  and  C11_16
REMARK    5  A    between atoms: N4_18  and  C12_19
REMARK    6  A    between atoms: C12_19  and  C13_20
REMARK    7  A    between atoms: C13_20  and  N5_21
REMARK                            x       y       z     vdW  Elec       q    Type
REMARK                         _______ _______ _______ _____ _____    ______ ____
ROOT
ATOM      1  C5  UNL     1       1.950   0.863   0.445  0.00  0.00    +0.000 C 
ENDROOT
BRANCH   1   2
ATOM      2  C6  UNL     1       2.763   1.423  -0.699  0.00  0.00    +0.000 A 
ATOM      3  C7  UNL     1       3.166   2.765  -0.694  0.00  0.00    +0.000 A 
ATOM      4  C8  UNL     1       3.927   3.266  -1.747  0.00  0.00    +0.000 A 
ATOM      5  C9  UNL     1       4.269   2.405  -2.774  0.00  0.00    +0.000 A 
ATOM      6  N3  UNL     1       3.912   1.104  -2.811  0.00  0.00    +0.000 NA
ATOM      7  C10 UNL     1       3.182   0.639  -1.772  0.00  0.00    +0.000 A 
ENDBRANCH   1   2
BRANCH   1  10
ATOM      8  C4  UNL     1       2.466   0.215   2.755  0.00  0.00    +0.000 C 
ATOM      9  O2  UNL     1       1.540   0.863   3.231  0.00  0.00    +0.000 OA
ATOM     10  N2  UNL     1       2.828   0.262   1.429  0.00  0.00    +0.000 N 
ATOM     11  H3  UNL     1       3.452  -0.483   1.132  0.00  0.00    +0.000 HD
BRANCH   8  16
ATOM     12  N1  UNL     1       4.333  -1.444   3.009  0.00  0.00    +0.000 NA
ATOM     13  C1  UNL     1       4.783  -2.109   4.050  0.00  0.00    +0.000 A 
ATOM     14  O1  UNL     1       4.135  -1.862   5.221  0.00  0.00    +0.000 OA
ATOM     15  C2  UNL     1       3.179  -0.952   4.883  0.00  0.00    +0.000 A 
ATOM     16  C3  UNL     1       3.292  -0.692   3.536  0.00  0.00    +0.000 A 
ENDBRANCH   8  16
ENDBRANCH   1  10
BRANCH   1  17
ATOM     17  C11 UNL     1       0.903  -0.180  -0.031  0.00  0.00    +0.000 C 
ATOM     18  O3  UNL     1       1.075  -1.393   0.083  0.00  0.00    +0.000 OA
ATOM     19  N4  UNL     1      -0.217   0.370  -0.630  0.00  0.00    +0.000 N 
ATOM     20  H9  UNL     1      -0.169   1.340  -0.919  0.00  0.00    +0.000 HD
BRANCH  19  21
ATOM     21  C12 UNL     1      -1.221  -0.464  -1.274  0.00  0.00    +0.000 C 
BRANCH  21  22
ATOM     22  C13 UNL     1      -2.637   0.112  -1.089  0.00  0.00    +0.000 C 
BRANCH  22  23
ATOM     23  N5  UNL     1      -3.664  -0.559  -1.905  0.00  0.00    +0.000 NA
ATOM     24  C14 UNL     1      -3.924  -1.958  -1.492  0.00  0.00    +0.000 C 
ATOM     25  C15 UNL     1      -4.707  -2.089  -0.174  0.00  0.00    +0.000 C 
ATOM     26  O4  UNL     1      -5.946  -1.371  -0.231  0.00  0.00    +0.000 OA
ATOM     27  C16 UNL     1      -5.721   0.010  -0.537  0.00  0.00    +0.000 C 
ATOM     28  C17 UNL     1      -4.951   0.173  -1.860  0.00  0.00    +0.000 C 
ENDBRANCH  22  23
ENDBRANCH  21  22
ENDBRANCH  19  21
ENDBRANCH   1  17
TORSDOF 7
