REMARK  Name = /home/anacleto/Desktop/manuscript_Mpro/naturecomm/supplementary_file_S2/6-chemical-library/molecular_docking/3D_ligand_structure/2422.pdb
REMARK  7 active torsions:
REMARK  status: ('A' for Active; 'I' for Inactive)
REMARK    1  A    between atoms: C7_7  and  N1_8
REMARK    2  A    between atoms: N1_8  and  C8_9
REMARK    3  A    between atoms: C8_9  and  C9_10
REMARK    4  A    between atoms: C8_9  and  C14_16
REMARK    5  A    between atoms: N3_18  and  C15_19
REMARK    6  A    between atoms: C15_19  and  C16_20
REMARK    7  A    between atoms: C16_20  and  C17_21
REMARK                            x       y       z     vdW  Elec       q    Type
REMARK                         _______ _______ _______ _____ _____    ______ ____
ROOT
ATOM      1  C8  UNL     1       0.747  -0.828   0.316  0.00  0.00    +0.000 C 
ENDROOT
BRANCH   1   2
ATOM      2  C9  UNL     1       0.520  -2.275  -0.073  0.00  0.00    +0.000 A 
ATOM      3  C10 UNL     1       1.155  -3.306   0.631  0.00  0.00    +0.000 A 
ATOM      4  C11 UNL     1       0.943  -4.632   0.265  0.00  0.00    +0.000 A 
ATOM      5  C12 UNL     1       0.102  -4.890  -0.803  0.00  0.00    +0.000 A 
ATOM      6  N2  UNL     1      -0.519  -3.928  -1.517  0.00  0.00    +0.000 NA
ATOM      7  C13 UNL     1      -0.282  -2.647  -1.150  0.00  0.00    +0.000 A 
ENDBRANCH   1   2
BRANCH   1   8
ATOM      8  C14 UNL     1      -0.521   0.040   0.079  0.00  0.00    +0.000 C 
ATOM      9  O1  UNL     1      -0.644   0.792  -0.888  0.00  0.00    +0.000 OA
ATOM     10  N3  UNL     1      -1.506  -0.117   1.036  0.00  0.00    +0.000 N 
ATOM     11  H20 UNL     1      -1.430  -0.888   1.689  0.00  0.00    +0.000 HD
BRANCH  10  12
ATOM     12  C15 UNL     1      -2.791   0.548   0.915  0.00  0.00    +0.000 C 
BRANCH  12  13
ATOM     13  C16 UNL     1      -3.716  -0.160  -0.078  0.00  0.00    +0.000 C 
BRANCH  13  14
ATOM     14  C17 UNL     1      -5.064   0.512  -0.156  0.00  0.00    +0.000 A 
ATOM     15  C18 UNL     1      -6.136   0.056   0.622  0.00  0.00    +0.000 A 
ATOM     16  C19 UNL     1      -7.375   0.695   0.561  0.00  0.00    +0.000 A 
ATOM     17  C20 UNL     1      -7.553   1.796  -0.275  0.00  0.00    +0.000 A 
ATOM     18  C21 UNL     1      -6.492   2.260  -1.050  0.00  0.00    +0.000 A 
ATOM     19  C22 UNL     1      -5.252   1.622  -0.990  0.00  0.00    +0.000 A 
ENDBRANCH  13  14
ENDBRANCH  12  13
ENDBRANCH  10  12
ENDBRANCH   1   8
BRANCH   1  20
ATOM     20  N1  UNL     1       1.899  -0.284  -0.437  0.00  0.00    +0.000 NA
ATOM     21  H14 UNL     1       1.537  -0.033  -1.363  0.00  0.00    +0.000 HD
BRANCH  20  28
ATOM     22  C1  UNL     1       3.188   1.727  -0.941  0.00  0.00    +0.000 C 
ATOM     23  C2  UNL     1       4.267   2.693  -0.456  0.00  0.00    +0.000 C 
ATOM     24  C3  UNL     1       5.573   2.049   0.035  0.00  0.00    +0.000 C 
ATOM     25  C4  UNL     1       5.623   0.521   0.026  0.00  0.00    +0.000 C 
ATOM     26  C5  UNL     1       4.696  -0.165   1.030  0.00  0.00    +0.000 C 
ATOM     27  C6  UNL     1       3.400   0.569   1.365  0.00  0.00    +0.000 C 
ATOM     28  C7  UNL     1       2.490   0.920   0.176  0.00  0.00    +0.000 C 
ENDBRANCH  20  28
ENDBRANCH   1  20
TORSDOF 7
