REMARK  Name = /home/anacleto/Desktop/manuscript_Mpro/naturecomm/supplementary_file_S2/6-chemical-library/molecular_docking/3D_ligand_structure/2428.pdb
REMARK  7 active torsions:
REMARK  status: ('A' for Active; 'I' for Inactive)
REMARK    1  A    between atoms: C3_5  and  C4_6
REMARK    2  A    between atoms: N2_8  and  C5_9
REMARK    3  A    between atoms: C5_9  and  C6_10
REMARK    4  A    between atoms: C5_9  and  C10_16
REMARK    5  A    between atoms: N5_18  and  C11_19
REMARK    6  A    between atoms: C11_19  and  C12_20
REMARK    7  A    between atoms: C12_20  and  C13_21
REMARK                            x       y       z     vdW  Elec       q    Type
REMARK                         _______ _______ _______ _____ _____    ______ ____
ROOT
ATOM      1  C5  UNL     1      -1.699  -0.084  -0.869  0.00  0.00    +0.000 C 
ENDROOT
BRANCH   1   2
ATOM      2  C6  UNL     1      -2.005   1.356  -1.204  0.00  0.00    +0.000 A 
ATOM      3  C7  UNL     1      -2.527   1.698  -2.453  0.00  0.00    +0.000 A 
ATOM      4  C8  UNL     1      -2.815   3.024  -2.712  0.00  0.00    +0.000 A 
ATOM      5  N3  UNL     1      -2.609   4.000  -1.806  0.00  0.00    +0.000 NA
ATOM      6  N4  UNL     1      -2.120   3.679  -0.580  0.00  0.00    +0.000 NA
ATOM      7  C9  UNL     1      -1.839   2.390  -0.292  0.00  0.00    +0.000 A 
ENDBRANCH   1   2
BRANCH   1  10
ATOM      8  C4  UNL     1      -3.761  -1.435  -1.057  0.00  0.00    +0.000 C 
ATOM      9  O2  UNL     1      -3.648  -1.489  -2.280  0.00  0.00    +0.000 OA
ATOM     10  N2  UNL     1      -2.865  -0.728  -0.286  0.00  0.00    +0.000 N 
ATOM     11  H3  UNL     1      -2.875  -0.798   0.724  0.00  0.00    +0.000 HD
BRANCH   8  16
ATOM     12  N1  UNL     1      -5.757  -2.948  -0.946  0.00  0.00    +0.000 NA
ATOM     13  C1  UNL     1      -6.533  -3.344   0.034  0.00  0.00    +0.000 A 
ATOM     14  O1  UNL     1      -6.209  -2.851   1.259  0.00  0.00    +0.000 OA
ATOM     15  C2  UNL     1      -5.122  -2.065   1.017  0.00  0.00    +0.000 A 
ATOM     16  C3  UNL     1      -4.832  -2.116  -0.331  0.00  0.00    +0.000 A 
ENDBRANCH   8  16
ENDBRANCH   1  10
BRANCH   1  17
ATOM     17  C10 UNL     1      -0.529  -0.241   0.131  0.00  0.00    +0.000 C 
ATOM     18  O3  UNL     1      -0.724  -0.528   1.312  0.00  0.00    +0.000 OA
ATOM     19  N5  UNL     1       0.723   0.012  -0.393  0.00  0.00    +0.000 N 
ATOM     20  H8  UNL     1       0.824   0.024  -1.402  0.00  0.00    +0.000 HD
BRANCH  19  21
ATOM     21  C11 UNL     1       1.922  -0.194   0.402  0.00  0.00    +0.000 C 
BRANCH  21  22
ATOM     22  C12 UNL     1       3.112   0.584  -0.159  0.00  0.00    +0.000 C 
BRANCH  22  23
ATOM     23  C13 UNL     1       4.364   0.353   0.647  0.00  0.00    +0.000 A 
ATOM     24  C14 UNL     1       5.245  -0.684   0.312  0.00  0.00    +0.000 A 
ATOM     25  C15 UNL     1       6.394  -0.908   1.072  0.00  0.00    +0.000 A 
ATOM     26  C16 UNL     1       6.670  -0.102   2.175  0.00  0.00    +0.000 A 
ATOM     27  C17 UNL     1       5.798   0.928   2.519  0.00  0.00    +0.000 A 
ATOM     28  C18 UNL     1       4.649   1.154   1.761  0.00  0.00    +0.000 A 
ENDBRANCH  22  23
ENDBRANCH  21  22
ENDBRANCH  19  21
ENDBRANCH   1  17
TORSDOF 7
