REMARK  Name = /home/anacleto/Desktop/manuscript_Mpro/naturecomm/supplementary_file_S2/6-chemical-library/molecular_docking/3D_ligand_structure/2431.pdb
REMARK  7 active torsions:
REMARK  status: ('A' for Active; 'I' for Inactive)
REMARK    1  A    between atoms: C2_5  and  C3_6
REMARK    2  A    between atoms: N4_8  and  C4_9
REMARK    3  A    between atoms: C4_9  and  C5_10
REMARK    4  A    between atoms: C4_9  and  C10_16
REMARK    5  A    between atoms: N6_18  and  C11_19
REMARK    6  A    between atoms: C11_19  and  C12_20
REMARK    7  A    between atoms: C12_20  and  C13_21
REMARK                            x       y       z     vdW  Elec       q    Type
REMARK                         _______ _______ _______ _____ _____    ______ ____
ROOT
ATOM      1  C4  UNL     1      -1.843  -0.907  -0.064  0.00  0.00    +0.000 C 
ENDROOT
BRANCH   1   2
ATOM      2  C5  UNL     1      -2.344  -1.892   0.966  0.00  0.00    +0.000 A 
ATOM      3  C6  UNL     1      -3.129  -2.985   0.579  0.00  0.00    +0.000 A 
ATOM      4  C7  UNL     1      -3.603  -3.877   1.537  0.00  0.00    +0.000 A 
ATOM      5  C8  UNL     1      -3.283  -3.643   2.863  0.00  0.00    +0.000 A 
ATOM      6  N5  UNL     1      -2.542  -2.596   3.280  0.00  0.00    +0.000 NA
ATOM      7  C9  UNL     1      -2.098  -1.741   2.330  0.00  0.00    +0.000 A 
ENDBRANCH   1   2
BRANCH   1  10
ATOM      8  C3  UNL     1      -2.875   0.873  -1.402  0.00  0.00    +0.000 C 
ATOM      9  O1  UNL     1      -2.365   0.485  -2.449  0.00  0.00    +0.000 OA
ATOM     10  N4  UNL     1      -2.792   0.178  -0.217  0.00  0.00    +0.000 N 
ATOM     11  H3  UNL     1      -3.054   0.715   0.605  0.00  0.00    +0.000 HD
BRANCH   8  16
ATOM     12  N1  UNL     1      -4.158   2.576  -0.143  0.00  0.00    +0.000 NA
ATOM     13  N2  UNL     1      -4.710   3.736  -0.541  0.00  0.00    +0.000 N 
ATOM     14  N3  UNL     1      -4.594   4.083  -1.832  0.00  0.00    +0.000 NA
ATOM     15  C1  UNL     1      -3.890   3.056  -2.318  0.00  0.00    +0.000 A 
ATOM     16  C2  UNL     1      -3.618   2.126  -1.296  0.00  0.00    +0.000 A 
ATOM     17  H1  UNL     1      -5.202   4.335   0.119  0.00  0.00    +0.000 HD
ENDBRANCH   8  16
ENDBRANCH   1  10
BRANCH   1  18
ATOM     18  C10 UNL     1      -0.451  -0.325   0.292  0.00  0.00    +0.000 C 
ATOM     19  O2  UNL     1      -0.308   0.759   0.857  0.00  0.00    +0.000 OA
ATOM     20  N6  UNL     1       0.615  -1.144  -0.029  0.00  0.00    +0.000 N 
ATOM     21  H9  UNL     1       0.453  -1.988  -0.565  0.00  0.00    +0.000 HD
BRANCH  20  22
ATOM     22  C11 UNL     1       1.987  -0.738   0.217  0.00  0.00    +0.000 C 
BRANCH  22  23
ATOM     23  C12 UNL     1       2.499   0.242  -0.842  0.00  0.00    +0.000 C 
BRANCH  23  24
ATOM     24  C13 UNL     1       3.939   0.618  -0.601  0.00  0.00    +0.000 A 
ATOM     25  C14 UNL     1       4.259   1.644   0.299  0.00  0.00    +0.000 A 
ATOM     26  C15 UNL     1       5.591   1.982   0.541  0.00  0.00    +0.000 A 
ATOM     27  C16 UNL     1       6.614   1.297  -0.112  0.00  0.00    +0.000 A 
ATOM     28  C17 UNL     1       6.306   0.273  -1.005  0.00  0.00    +0.000 A 
ATOM     29  C18 UNL     1       4.975  -0.068  -1.249  0.00  0.00    +0.000 A 
ENDBRANCH  23  24
ENDBRANCH  22  23
ENDBRANCH  20  22
ENDBRANCH   1  18
TORSDOF 7
