REMARK  Name = /home/anacleto/Desktop/manuscript_Mpro/naturecomm/supplementary_file_S2/6-chemical-library/molecular_docking/3D_ligand_structure/2434.pdb
REMARK  7 active torsions:
REMARK  status: ('A' for Active; 'I' for Inactive)
REMARK    1  A    between atoms: C6_6  and  N1_7
REMARK    2  A    between atoms: N1_7  and  C9_15
REMARK    3  A    between atoms: C7_8  and  C8_10
REMARK    4  A    between atoms: C9_15  and  C10_16
REMARK    5  A    between atoms: N6_18  and  C11_19
REMARK    6  A    between atoms: C11_19  and  C12_20
REMARK    7  A    between atoms: C12_20  and  C13_21
REMARK                            x       y       z     vdW  Elec       q    Type
REMARK                         _______ _______ _______ _____ _____    ______ ____
ROOT
ATOM      1  N1  UNL     1      -2.558  -0.808  -0.742  0.00  0.00    +0.000 N 
ATOM      2  C7  UNL     1      -2.710  -2.142  -0.318  0.00  0.00    +0.000 C 
ATOM      3  O1  UNL     1      -1.768  -2.938  -0.393  0.00  0.00    +0.000 OA
ENDROOT
BRANCH   1   9
ATOM      4  C1  UNL     1      -3.772   0.357   1.066  0.00  0.00    +0.000 A 
ATOM      5  C2  UNL     1      -4.503   1.457   1.525  0.00  0.00    +0.000 A 
ATOM      6  C3  UNL     1      -4.799   2.509   0.662  0.00  0.00    +0.000 A 
ATOM      7  C4  UNL     1      -4.360   2.465  -0.658  0.00  0.00    +0.000 A 
ATOM      8  C5  UNL     1      -3.628   1.366  -1.117  0.00  0.00    +0.000 A 
ATOM      9  C6  UNL     1      -3.334   0.293  -0.264  0.00  0.00    +0.000 A 
ENDBRANCH   1   9
BRANCH   2  10
ATOM     10  C8  UNL     1      -3.999  -2.619   0.119  0.00  0.00    +0.000 A 
ATOM     11  N2  UNL     1      -5.186  -2.073  -0.058  0.00  0.00    +0.000 NA
ATOM     12  N3  UNL     1      -6.094  -2.940   0.503  0.00  0.00    +0.000 NA
ATOM     13  N4  UNL     1      -5.487  -4.012   0.994  0.00  0.00    +0.000 NA
ATOM     14  N5  UNL     1      -4.187  -3.818   0.742  0.00  0.00    +0.000 N 
ATOM     15  H6  UNL     1      -3.500  -4.516   1.002  0.00  0.00    +0.000 HD
ENDBRANCH   2  10
BRANCH   1  16
ATOM     16  C9  UNL     1      -1.273  -0.484  -1.369  0.00  0.00    +0.000 C 
BRANCH  16  17
ATOM     17  C10 UNL     1      -0.158  -0.267  -0.331  0.00  0.00    +0.000 C 
ATOM     18  O2  UNL     1      -0.344  -0.244   0.882  0.00  0.00    +0.000 OA
ATOM     19  N6  UNL     1       1.089  -0.069  -0.905  0.00  0.00    +0.000 N 
ATOM     20  H9  UNL     1       1.219  -0.404  -1.852  0.00  0.00    +0.000 HD
BRANCH  19  21
ATOM     21  C11 UNL     1       2.272   0.025  -0.066  0.00  0.00    +0.000 C 
BRANCH  21  22
ATOM     22  C12 UNL     1       3.445   0.657  -0.815  0.00  0.00    +0.000 C 
BRANCH  22  23
ATOM     23  C13 UNL     1       4.687   0.726   0.035  0.00  0.00    +0.000 A 
ATOM     24  C14 UNL     1       5.641  -0.299  -0.013  0.00  0.00    +0.000 A 
ATOM     25  C15 UNL     1       6.782  -0.241   0.789  0.00  0.00    +0.000 A 
ATOM     26  C16 UNL     1       6.977   0.838   1.649  0.00  0.00    +0.000 A 
ATOM     27  C17 UNL     1       6.032   1.860   1.709  0.00  0.00    +0.000 A 
ATOM     28  C18 UNL     1       4.890   1.804   0.907  0.00  0.00    +0.000 A 
ENDBRANCH  22  23
ENDBRANCH  21  22
ENDBRANCH  19  21
ENDBRANCH  16  17
ENDBRANCH   1  16
TORSDOF 7
