REMARK  Name = /home/anacleto/Desktop/manuscript_Mpro/naturecomm/supplementary_file_S2/6-chemical-library/molecular_docking/3D_ligand_structure/2446.pdb
REMARK  7 active torsions:
REMARK  status: ('A' for Active; 'I' for Inactive)
REMARK    1  A    between atoms: C6_6  and  N1_7
REMARK    2  A    between atoms: N1_7  and  C10_15
REMARK    3  A    between atoms: C7_8  and  C8_10
REMARK    4  A    between atoms: C10_15  and  C11_16
REMARK    5  A    between atoms: N5_18  and  C12_19
REMARK    6  A    between atoms: C12_19  and  C13_20
REMARK    7  A    between atoms: C13_20  and  C14_21
REMARK                            x       y       z     vdW  Elec       q    Type
REMARK                         _______ _______ _______ _____ _____    ______ ____
ROOT
ATOM      1  N1  UNL     1      -1.825  -0.364  -0.400  0.00  0.00    +0.000 N 
ATOM      2  C7  UNL     1      -1.891   0.828  -1.147  0.00  0.00    +0.000 C 
ATOM      3  O1  UNL     1      -0.960   1.173  -1.878  0.00  0.00    +0.000 OA
ENDROOT
BRANCH   1   9
ATOM      4  C1  UNL     1      -4.141  -1.155  -0.700  0.00  0.00    +0.000 A 
ATOM      5  C2  UNL     1      -5.233  -1.916  -0.273  0.00  0.00    +0.000 A 
ATOM      6  C3  UNL     1      -5.150  -2.662   0.899  0.00  0.00    +0.000 A 
ATOM      7  C4  UNL     1      -3.973  -2.650   1.643  0.00  0.00    +0.000 A 
ATOM      8  C5  UNL     1      -2.880  -1.891   1.214  0.00  0.00    +0.000 A 
ATOM      9  C6  UNL     1      -2.951  -1.123   0.043  0.00  0.00    +0.000 A 
ENDBRANCH   1   9
BRANCH   2  10
ATOM     10  C8  UNL     1      -3.041   1.709  -0.945  0.00  0.00    +0.000 A 
ATOM     11  C9  UNL     1      -3.727   1.977   0.225  0.00  0.00    +0.000 A 
ATOM     12  N2  UNL     1      -4.672   2.883  -0.143  0.00  0.00    +0.000 N 
ATOM     13  N3  UNL     1      -4.591   3.174  -1.449  0.00  0.00    +0.000 NA
ATOM     14  N4  UNL     1      -3.577   2.480  -1.950  0.00  0.00    +0.000 NA
ATOM     15  H7  UNL     1      -5.383   3.340   0.416  0.00  0.00    +0.000 HD
ENDBRANCH   2  10
BRANCH   1  16
ATOM     16  C10 UNL     1      -0.487  -0.930  -0.232  0.00  0.00    +0.000 C 
BRANCH  16  17
ATOM     17  C11 UNL     1       0.269  -0.201   0.886  0.00  0.00    +0.000 C 
ATOM     18  O2  UNL     1      -0.287   0.291   1.865  0.00  0.00    +0.000 OA
ATOM     19  N5  UNL     1       1.643  -0.209   0.728  0.00  0.00    +0.000 N 
ATOM     20  H10 UNL     1       1.986  -0.306  -0.223  0.00  0.00    +0.000 HD
BRANCH  19  21
ATOM     21  C12 UNL     1       2.486   0.566   1.624  0.00  0.00    +0.000 C 
BRANCH  21  22
ATOM     22  C13 UNL     1       3.953   0.131   1.578  0.00  0.00    +0.000 C 
BRANCH  22  23
ATOM     23  C14 UNL     1       4.584   0.292   0.214  0.00  0.00    +0.000 A 
ATOM     24  C15 UNL     1       4.825   1.568  -0.315  0.00  0.00    +0.000 A 
ATOM     25  C16 UNL     1       5.388   1.712  -1.584  0.00  0.00    +0.000 A 
ATOM     26  C17 UNL     1       5.719   0.586  -2.334  0.00  0.00    +0.000 A 
ATOM     27  C18 UNL     1       5.489  -0.687  -1.816  0.00  0.00    +0.000 A 
ATOM     28  C19 UNL     1       4.925  -0.834  -0.548  0.00  0.00    +0.000 A 
ENDBRANCH  22  23
ENDBRANCH  21  22
ENDBRANCH  19  21
ENDBRANCH  16  17
ENDBRANCH   1  16
TORSDOF 7
