REMARK  Name = /home/anacleto/Desktop/manuscript_Mpro/naturecomm/supplementary_file_S2/6-chemical-library/molecular_docking/3D_ligand_structure/2447.pdb
REMARK  7 active torsions:
REMARK  status: ('A' for Active; 'I' for Inactive)
REMARK    1  A    between atoms: C3_5  and  C4_6
REMARK    2  A    between atoms: N3_8  and  C5_9
REMARK    3  A    between atoms: C5_9  and  C6_10
REMARK    4  A    between atoms: C5_9  and  C11_16
REMARK    5  A    between atoms: N5_18  and  C12_19
REMARK    6  A    between atoms: C12_19  and  C13_20
REMARK    7  A    between atoms: C13_20  and  C14_21
REMARK                            x       y       z     vdW  Elec       q    Type
REMARK                         _______ _______ _______ _____ _____    ______ ____
ROOT
ATOM      1  C5  UNL     1       1.515   1.306   1.064  0.00  0.00    +0.000 C 
ENDROOT
BRANCH   1   2
ATOM      2  C6  UNL     1       2.120   2.693   1.117  0.00  0.00    +0.000 A 
ATOM      3  C7  UNL     1       1.995   3.616   0.071  0.00  0.00    +0.000 A 
ATOM      4  C8  UNL     1       2.610   4.861   0.167  0.00  0.00    +0.000 A 
ATOM      5  C9  UNL     1       3.347   5.143   1.303  0.00  0.00    +0.000 A 
ATOM      6  N4  UNL     1       3.507   4.276   2.325  0.00  0.00    +0.000 NA
ATOM      7  C10 UNL     1       2.890   3.078   2.211  0.00  0.00    +0.000 A 
ENDBRANCH   1   2
BRANCH   1  10
ATOM      8  C4  UNL     1       2.422  -0.887   0.330  0.00  0.00    +0.000 C 
ATOM      9  O1  UNL     1       1.746  -1.489   1.162  0.00  0.00    +0.000 OA
ATOM     10  N3  UNL     1       2.332   0.473   0.181  0.00  0.00    +0.000 N 
ATOM     11  H4  UNL     1       2.776   0.926  -0.604  0.00  0.00    +0.000 HD
BRANCH   8  16
ATOM     12  C1  UNL     1       3.455  -2.937  -0.703  0.00  0.00    +0.000 A 
ATOM     13  N1  UNL     1       4.391  -3.159  -1.668  0.00  0.00    +0.000 N 
ATOM     14  N2  UNL     1       4.881  -2.028  -2.199  0.00  0.00    +0.000 NA
ATOM     15  C2  UNL     1       4.237  -1.064  -1.536  0.00  0.00    +0.000 A 
ATOM     16  C3  UNL     1       3.317  -1.566  -0.587  0.00  0.00    +0.000 A 
ATOM     17  H2  UNL     1       4.743  -4.047  -2.013  0.00  0.00    +0.000 HD
ENDBRANCH   8  16
ENDBRANCH   1  10
BRANCH   1  18
ATOM     18  C11 UNL     1       0.003   1.297   0.672  0.00  0.00    +0.000 C 
ATOM     19  O2  UNL     1      -0.716   2.293   0.713  0.00  0.00    +0.000 OA
ATOM     20  N5  UNL     1      -0.507   0.041   0.381  0.00  0.00    +0.000 N 
ATOM     21  H10 UNL     1       0.030  -0.745   0.749  0.00  0.00    +0.000 HD
BRANCH  20  22
ATOM     22  C12 UNL     1      -1.933  -0.161   0.200  0.00  0.00    +0.000 C 
BRANCH  22  23
ATOM     23  C13 UNL     1      -2.226  -1.504  -0.468  0.00  0.00    +0.000 C 
BRANCH  23  24
ATOM     24  C14 UNL     1      -3.706  -1.740  -0.634  0.00  0.00    +0.000 A 
ATOM     25  C15 UNL     1      -4.379  -1.259  -1.766  0.00  0.00    +0.000 A 
ATOM     26  C16 UNL     1      -5.752  -1.461  -1.910  0.00  0.00    +0.000 A 
ATOM     27  C17 UNL     1      -6.465  -2.140  -0.924  0.00  0.00    +0.000 A 
ATOM     28  C18 UNL     1      -5.806  -2.618   0.207  0.00  0.00    +0.000 A 
ATOM     29  C19 UNL     1      -4.433  -2.417   0.354  0.00  0.00    +0.000 A 
ENDBRANCH  23  24
ENDBRANCH  22  23
ENDBRANCH  20  22
ENDBRANCH   1  18
TORSDOF 7
