REMARK  Name = /home/anacleto/Desktop/manuscript_Mpro/naturecomm/supplementary_file_S2/6-chemical-library/molecular_docking/3D_ligand_structure/2459.pdb
REMARK  7 active torsions:
REMARK  status: ('A' for Active; 'I' for Inactive)
REMARK    1  A    between atoms: C6_6  and  N1_7
REMARK    2  A    between atoms: N1_7  and  C11_15
REMARK    3  A    between atoms: C7_8  and  C8_10
REMARK    4  A    between atoms: C11_15  and  C12_16
REMARK    5  A    between atoms: N4_18  and  C13_19
REMARK    6  A    between atoms: C13_19  and  C14_20
REMARK    7  A    between atoms: C14_20  and  C15_21
REMARK                            x       y       z     vdW  Elec       q    Type
REMARK                         _______ _______ _______ _____ _____    ______ ____
ROOT
ATOM      1  N1  UNL     1      -2.368   0.109  -0.448  0.00  0.00    +0.000 N 
ATOM      2  C7  UNL     1      -2.780  -1.238  -0.596  0.00  0.00    +0.000 C 
ATOM      3  O1  UNL     1      -3.944  -1.580  -0.807  0.00  0.00    +0.000 OA
ENDROOT
BRANCH   1   9
ATOM      4  C1  UNL     1      -2.753   2.566  -0.727  0.00  0.00    +0.000 A 
ATOM      5  C2  UNL     1      -3.512   3.657  -1.175  0.00  0.00    +0.000 A 
ATOM      6  C3  UNL     1      -4.707   3.447  -1.850  0.00  0.00    +0.000 A 
ATOM      7  C4  UNL     1      -5.132   2.146  -2.091  0.00  0.00    +0.000 A 
ATOM      8  C5  UNL     1      -4.368   1.057  -1.645  0.00  0.00    +0.000 A 
ATOM      9  C6  UNL     1      -3.167   1.231  -0.930  0.00  0.00    +0.000 A 
ENDBRANCH   1   9
BRANCH   2  10
ATOM     10  C8  UNL     1      -1.798  -2.296  -0.448  0.00  0.00    +0.000 A 
ATOM     11  C9  UNL     1      -0.480  -2.439  -0.840  0.00  0.00    +0.000 A 
ATOM     12  C10 UNL     1      -0.114  -3.737  -0.440  0.00  0.00    +0.000 A 
ATOM     13  N2  UNL     1      -1.118  -4.388   0.150  0.00  0.00    +0.000 NA
ATOM     14  N3  UNL     1      -2.145  -3.526   0.060  0.00  0.00    +0.000 N 
ATOM     15  H8  UNL     1      -3.069  -3.825   0.361  0.00  0.00    +0.000 HD
ENDBRANCH   2  10
BRANCH   1  16
ATOM     16  C11 UNL     1      -1.175   0.419   0.358  0.00  0.00    +0.000 C 
BRANCH  16  17
ATOM     17  C12 UNL     1       0.054   0.839  -0.459  0.00  0.00    +0.000 C 
ATOM     18  O2  UNL     1       0.136   0.738  -1.678  0.00  0.00    +0.000 OA
ATOM     19  N4  UNL     1       1.093   1.318   0.317  0.00  0.00    +0.000 N 
ATOM     20  H11 UNL     1       1.049   1.229   1.323  0.00  0.00    +0.000 HD
BRANCH  19  21
ATOM     21  C13 UNL     1       2.380   1.659  -0.266  0.00  0.00    +0.000 C 
BRANCH  21  22
ATOM     22  C14 UNL     1       3.260   0.433  -0.537  0.00  0.00    +0.000 C 
BRANCH  22  23
ATOM     23  C15 UNL     1       3.672  -0.284   0.729  0.00  0.00    +0.000 A 
ATOM     24  C16 UNL     1       4.735   0.201   1.505  0.00  0.00    +0.000 A 
ATOM     25  C17 UNL     1       5.098  -0.443   2.690  0.00  0.00    +0.000 A 
ATOM     26  C18 UNL     1       4.404  -1.577   3.110  0.00  0.00    +0.000 A 
ATOM     27  C19 UNL     1       3.348  -2.071   2.345  0.00  0.00    +0.000 A 
ATOM     28  C20 UNL     1       2.983  -1.427   1.161  0.00  0.00    +0.000 A 
ENDBRANCH  22  23
ENDBRANCH  21  22
ENDBRANCH  19  21
ENDBRANCH  16  17
ENDBRANCH   1  16
TORSDOF 7
