REMARK  Name = /home/anacleto/Desktop/manuscript_Mpro/naturecomm/supplementary_file_S2/6-chemical-library/molecular_docking/3D_ligand_structure/2464.pdb
REMARK  7 active torsions:
REMARK  status: ('A' for Active; 'I' for Inactive)
REMARK    1  A    between atoms: C6_6  and  N1_7
REMARK    2  A    between atoms: N1_7  and  C7_8
REMARK    3  A    between atoms: C7_8  and  C8_9
REMARK    4  A    between atoms: C7_8  and  C13_16
REMARK    5  A    between atoms: N3_18  and  C14_19
REMARK    6  A    between atoms: C14_19  and  C15_20
REMARK    7  A    between atoms: C15_20  and  C16_21
REMARK                            x       y       z     vdW  Elec       q    Type
REMARK                         _______ _______ _______ _____ _____    ______ ____
ROOT
ATOM      1  C7  UNL     1      -1.351   0.278   0.292  0.00  0.00    +0.000 C 
ENDROOT
BRANCH   1   2
ATOM      2  C8  UNL     1      -2.150   1.548   0.387  0.00  0.00    +0.000 A 
ATOM      3  C9  UNL     1      -2.282   2.092   1.778  0.00  0.00    +0.000 A 
ATOM      4  O1  UNL     1      -1.825   1.504   2.754  0.00  0.00    +0.000 OA
ATOM      5  N2  UNL     1      -2.972   3.274   1.908  0.00  0.00    +0.000 N 
ATOM      6  C10 UNL     1      -3.555   3.943   0.865  0.00  0.00    +0.000 A 
ATOM      7  C11 UNL     1      -3.469   3.453  -0.375  0.00  0.00    +0.000 A 
ATOM      8  C12 UNL     1      -2.747   2.225  -0.615  0.00  0.00    +0.000 A 
ATOM      9  H8  UNL     1      -3.043   3.637   2.851  0.00  0.00    +0.000 HD
ENDBRANCH   1   2
BRANCH   1  10
ATOM     10  C13 UNL     1       0.165   0.627   0.161  0.00  0.00    +0.000 C 
ATOM     11  O2  UNL     1       0.679   1.680   0.529  0.00  0.00    +0.000 OA
ATOM     12  N3  UNL     1       0.904  -0.399  -0.408  0.00  0.00    +0.000 N 
ATOM     13  H12 UNL     1       0.395  -1.244  -0.657  0.00  0.00    +0.000 HD
BRANCH  12  14
ATOM     14  C14 UNL     1       2.340  -0.331  -0.574  0.00  0.00    +0.000 C 
BRANCH  14  15
ATOM     15  C15 UNL     1       3.086  -0.632   0.728  0.00  0.00    +0.000 C 
BRANCH  15  16
ATOM     16  C16 UNL     1       4.581  -0.598   0.532  0.00  0.00    +0.000 A 
ATOM     17  C17 UNL     1       5.291  -1.771   0.241  0.00  0.00    +0.000 A 
ATOM     18  C18 UNL     1       6.671  -1.729   0.041  0.00  0.00    +0.000 A 
ATOM     19  C19 UNL     1       7.353  -0.517   0.126  0.00  0.00    +0.000 A 
ATOM     20  C20 UNL     1       6.656   0.656   0.411  0.00  0.00    +0.000 A 
ATOM     21  C21 UNL     1       5.276   0.617   0.611  0.00  0.00    +0.000 A 
ENDBRANCH  15  16
ENDBRANCH  14  15
ENDBRANCH  12  14
ENDBRANCH   1  10
BRANCH   1  22
ATOM     22  N1  UNL     1      -1.743  -0.552  -0.880  0.00  0.00    +0.000 N 
ATOM     23  H6  UNL     1      -1.488  -0.114  -1.761  0.00  0.00    +0.000 HD
BRANCH  22  29
ATOM     24  C1  UNL     1      -3.378  -1.750  -2.166  0.00  0.00    +0.000 A 
ATOM     25  C2  UNL     1      -4.560  -2.488  -2.285  0.00  0.00    +0.000 A 
ATOM     26  C3  UNL     1      -5.339  -2.736  -1.161  0.00  0.00    +0.000 A 
ATOM     27  C4  UNL     1      -4.927  -2.257   0.078  0.00  0.00    +0.000 A 
ATOM     28  C5  UNL     1      -3.742  -1.520   0.191  0.00  0.00    +0.000 A 
ATOM     29  C6  UNL     1      -2.963  -1.224  -0.933  0.00  0.00    +0.000 A 
ENDBRANCH  22  29
ENDBRANCH   1  22
TORSDOF 7
