REMARK  Name = /home/anacleto/Desktop/manuscript_Mpro/naturecomm/supplementary_file_S2/6-chemical-library/molecular_docking/3D_ligand_structure/2470.pdb
REMARK  8 active torsions:
REMARK  status: ('A' for Active; 'I' for Inactive)
REMARK    1  A    between atoms: C4_5  and  C5_6
REMARK    2  A    between atoms: C5_6  and  N1_7
REMARK    3  A    between atoms: N1_7  and  C6_8
REMARK    4  A    between atoms: C6_8  and  C7_9
REMARK    5  A    between atoms: C6_8  and  C12_15
REMARK    6  A    between atoms: N3_17  and  C13_18
REMARK    7  A    between atoms: C13_18  and  C14_19
REMARK    8  A    between atoms: C14_19  and  C15_20
REMARK                            x       y       z     vdW  Elec       q    Type
REMARK                         _______ _______ _______ _____ _____    ______ ____
ROOT
ATOM      1  C6  UNL     1      -1.681  -0.683   0.976  0.00  0.00    +0.000 C 
ENDROOT
BRANCH   1   2
ATOM      2  C7  UNL     1      -2.087  -0.038   2.284  0.00  0.00    +0.000 A 
ATOM      3  C8  UNL     1      -2.158   1.351   2.448  0.00  0.00    +0.000 A 
ATOM      4  C9  UNL     1      -2.520   1.886   3.682  0.00  0.00    +0.000 A 
ATOM      5  C10 UNL     1      -2.800   1.012   4.718  0.00  0.00    +0.000 A 
ATOM      6  N2  UNL     1      -2.748  -0.332   4.601  0.00  0.00    +0.000 NA
ATOM      7  C11 UNL     1      -2.411  -0.823   3.387  0.00  0.00    +0.000 A 
ENDBRANCH   1   2
BRANCH   1   8
ATOM      8  C12 UNL     1      -0.329  -0.099   0.473  0.00  0.00    +0.000 C 
ATOM      9  O1  UNL     1      -0.255   0.708  -0.453  0.00  0.00    +0.000 OA
ATOM     10  N3  UNL     1       0.782  -0.573   1.146  0.00  0.00    +0.000 N 
ATOM     11  H12 UNL     1       0.642  -1.043   2.033  0.00  0.00    +0.000 HD
BRANCH  10  12
ATOM     12  C13 UNL     1       2.111  -0.061   0.858  0.00  0.00    +0.000 C 
BRANCH  12  13
ATOM     13  C14 UNL     1       2.694  -0.644  -0.431  0.00  0.00    +0.000 C 
BRANCH  13  14
ATOM     14  C15 UNL     1       4.090  -0.135  -0.688  0.00  0.00    +0.000 A 
ATOM     15  C16 UNL     1       5.207  -0.858  -0.249  0.00  0.00    +0.000 A 
ATOM     16  C17 UNL     1       6.495  -0.370  -0.472  0.00  0.00    +0.000 A 
ATOM     17  C18 UNL     1       6.679   0.844  -1.132  0.00  0.00    +0.000 A 
ATOM     18  C19 UNL     1       5.574   1.572  -1.569  0.00  0.00    +0.000 A 
ATOM     19  C20 UNL     1       4.285   1.087  -1.347  0.00  0.00    +0.000 A 
ENDBRANCH  13  14
ENDBRANCH  12  13
ENDBRANCH  10  12
ENDBRANCH   1   8
BRANCH   1  20
ATOM     20  N1  UNL     1      -2.740  -0.499  -0.036  0.00  0.00    +0.000 NA
ATOM     21  H6  UNL     1      -2.660   0.457  -0.391  0.00  0.00    +0.000 HD
BRANCH  20  22
ATOM     22  C5  UNL     1      -2.575  -1.413  -1.168  0.00  0.00    +0.000 C 
BRANCH  22  27
ATOM     23  S1  UNL     1      -5.060  -2.002  -2.303  0.00  0.00    +0.000 S 
ATOM     24  C1  UNL     1      -5.606  -1.109  -3.655  0.00  0.00    +0.000 A 
ATOM     25  C2  UNL     1      -4.697  -0.151  -4.043  0.00  0.00    +0.000 A 
ATOM     26  C3  UNL     1      -3.537  -0.150  -3.216  0.00  0.00    +0.000 A 
ATOM     27  C4  UNL     1      -3.599  -1.109  -2.222  0.00  0.00    +0.000 A 
ENDBRANCH  22  27
ENDBRANCH  20  22
ENDBRANCH   1  20
TORSDOF 8
