REMARK  Name = /home/anacleto/Desktop/manuscript_Mpro/naturecomm/supplementary_file_S2/6-chemical-library/molecular_docking/3D_ligand_structure/2480.pdb
REMARK  6 active torsions:
REMARK  status: ('A' for Active; 'I' for Inactive)
REMARK    1  A    between atoms: C3_5  and  C4_6
REMARK    2  A    between atoms: N2_8  and  C8_14
REMARK    3  A    between atoms: C8_14  and  C9_15
REMARK    4  A    between atoms: N4_17  and  C10_18
REMARK    5  A    between atoms: C10_18  and  C11_19
REMARK    6  A    between atoms: C11_19  and  C12_20
REMARK                            x       y       z     vdW  Elec       q    Type
REMARK                         _______ _______ _______ _____ _____    ______ ____
ROOT
ATOM      1  C4  UNL     1       2.653  -1.504  -1.808  0.00  0.00    +0.000 C 
ATOM      2  O2  UNL     1       2.915  -2.468  -2.532  0.00  0.00    +0.000 OA
ATOM      3  N2  UNL     1       1.367  -0.956  -1.768  0.00  0.00    +0.000 N 
ATOM      4  C5  UNL     1       1.093   0.408  -1.585  0.00  0.00    +0.000 A 
ATOM      5  C6  UNL     1       1.974   1.518  -1.649  0.00  0.00    +0.000 A 
ATOM      6  C7  UNL     1       1.180   2.614  -1.433  0.00  0.00    +0.000 A 
ATOM      7  O3  UNL     1      -0.101   2.215  -1.282  0.00  0.00    +0.000 OA
ATOM      8  N3  UNL     1      -0.166   0.845  -1.405  0.00  0.00    +0.000 NA
ENDROOT
BRANCH   1  13
ATOM      9  N1  UNL     1       3.474  -0.166   0.197  0.00  0.00    +0.000 NA
ATOM     10  C1  UNL     1       4.671  -0.036   0.722  0.00  0.00    +0.000 A 
ATOM     11  O1  UNL     1       5.665  -0.687   0.061  0.00  0.00    +0.000 OA
ATOM     12  C2  UNL     1       5.022  -1.304  -0.967  0.00  0.00    +0.000 A 
ATOM     13  C3  UNL     1       3.682  -0.983  -0.903  0.00  0.00    +0.000 A 
ENDBRANCH   1  13
BRANCH   3  14
ATOM     14  C8  UNL     1       0.262  -1.890  -1.983  0.00  0.00    +0.000 C 
BRANCH  14  15
ATOM     15  C9  UNL     1      -0.209  -2.391  -0.618  0.00  0.00    +0.000 C 
ATOM     16  O4  UNL     1       0.300  -3.361  -0.064  0.00  0.00    +0.000 OA
ATOM     17  N4  UNL     1      -1.199  -1.617  -0.040  0.00  0.00    +0.000 N 
ATOM     18  H7  UNL     1      -1.239  -0.653  -0.374  0.00  0.00    +0.000 HD
BRANCH  17  19
ATOM     19  C10 UNL     1      -1.568  -1.821   1.348  0.00  0.00    +0.000 C 
BRANCH  19  20
ATOM     20  C11 UNL     1      -2.928  -1.206   1.694  0.00  0.00    +0.000 C 
BRANCH  20  21
ATOM     21  C12 UNL     1      -2.956   0.299   1.561  0.00  0.00    +0.000 A 
ATOM     22  C13 UNL     1      -3.527   0.901   0.430  0.00  0.00    +0.000 A 
ATOM     23  C14 UNL     1      -3.532   2.291   0.295  0.00  0.00    +0.000 A 
ATOM     24  C15 UNL     1      -2.968   3.091   1.288  0.00  0.00    +0.000 A 
ATOM     25  C16 UNL     1      -2.398   2.503   2.417  0.00  0.00    +0.000 A 
ATOM     26  C17 UNL     1      -2.392   1.113   2.554  0.00  0.00    +0.000 A 
ENDBRANCH  20  21
ENDBRANCH  19  20
ENDBRANCH  17  19
ENDBRANCH  14  15
ENDBRANCH   3  14
TORSDOF 6
