REMARK  Name = /home/anacleto/Desktop/manuscript_Mpro/naturecomm/supplementary_file_S2/6-chemical-library/molecular_docking/3D_ligand_structure/2484.pdb
REMARK  7 active torsions:
REMARK  status: ('A' for Active; 'I' for Inactive)
REMARK    1  A    between atoms: C3_5  and  C4_6
REMARK    2  A    between atoms: C4_6  and  C5_7
REMARK    3  A    between atoms: C5_7  and  N3_8
REMARK    4  A    between atoms: C6_9  and  C7_11
REMARK    5  A    between atoms: C7_11  and  N4_12
REMARK    6  A    between atoms: N4_12  and  C12_20
REMARK    7  A    between atoms: C8_13  and  C9_15
REMARK                            x       y       z     vdW  Elec       q    Type
REMARK                         _______ _______ _______ _____ _____    ______ ____
ROOT
ATOM      1  N4  UNL     1      -1.531  -1.153  -0.887  0.00  0.00    +0.000 N 
ATOM      2  C8  UNL     1      -2.122  -2.164  -0.084  0.00  0.00    +0.000 C 
ATOM      3  O2  UNL     1      -2.542  -3.226  -0.546  0.00  0.00    +0.000 OA
ENDROOT
BRANCH   1   4
ATOM      4  C12 UNL     1      -1.531  -1.276  -2.322  0.00  0.00    +0.000 A 
ATOM      5  C13 UNL     1      -0.451  -0.816  -3.096  0.00  0.00    +0.000 A 
ATOM      6  C14 UNL     1      -0.470  -0.910  -4.494  0.00  0.00    +0.000 A 
ATOM      7  C15 UNL     1      -1.574  -1.450  -5.144  0.00  0.00    +0.000 A 
ATOM      8  C16 UNL     1      -2.648  -1.920  -4.396  0.00  0.00    +0.000 A 
ATOM      9  C17 UNL     1      -2.626  -1.832  -2.999  0.00  0.00    +0.000 A 
ENDBRANCH   1   4
BRANCH   2  10
ATOM     10  C9  UNL     1      -2.203  -1.972   1.371  0.00  0.00    +0.000 A 
ATOM     11  C10 UNL     1      -2.306  -3.008   2.279  0.00  0.00    +0.000 A 
ATOM     12  O3  UNL     1      -2.423  -2.485   3.529  0.00  0.00    +0.000 OA
ATOM     13  C11 UNL     1      -2.402  -1.142   3.320  0.00  0.00    +0.000 A 
ATOM     14  N5  UNL     1      -2.259  -0.773   2.066  0.00  0.00    +0.000 NA
ENDBRANCH   2  10
BRANCH   1  15
ATOM     15  C7  UNL     1      -0.783  -0.037  -0.297  0.00  0.00    +0.000 C 
BRANCH  15  17
ATOM     16  N3  UNL     1       1.279   0.556   0.868  0.00  0.00    +0.000 N 
ATOM     17  C6  UNL     1       0.538  -0.485   0.338  0.00  0.00    +0.000 C 
ATOM     18  O1  UNL     1       0.912  -1.655   0.372  0.00  0.00    +0.000 OA
ATOM     19  H8  UNL     1       0.772   1.402   1.102  0.00  0.00    +0.000 HD
BRANCH  16  20
ATOM     20  C5  UNL     1       2.468   0.275   1.659  0.00  0.00    +0.000 C 
BRANCH  20  21
ATOM     21  C4  UNL     1       3.470   1.435   1.655  0.00  0.00    +0.000 C 
BRANCH  21  26
ATOM     22  N1  UNL     1       2.864   3.875   1.479  0.00  0.00    +0.000 N 
ATOM     23  C1  UNL     1       2.246   4.815   2.255  0.00  0.00    +0.000 A 
ATOM     24  N2  UNL     1       1.900   4.323   3.421  0.00  0.00    +0.000 NA
ATOM     25  C2  UNL     1       2.316   3.018   3.403  0.00  0.00    +0.000 A 
ATOM     26  C3  UNL     1       2.892   2.701   2.192  0.00  0.00    +0.000 A 
ATOM     27  H1  UNL     1       3.226   4.023   0.548  0.00  0.00    +0.000 HD
ENDBRANCH  21  26
ENDBRANCH  20  21
ENDBRANCH  16  20
ENDBRANCH  15  17
ENDBRANCH   1  15
TORSDOF 7
