REMARK  Name = /home/anacleto/Desktop/manuscript_Mpro/naturecomm/supplementary_file_S2/6-chemical-library/molecular_docking/3D_ligand_structure/2485.pdb
REMARK  7 active torsions:
REMARK  status: ('A' for Active; 'I' for Inactive)
REMARK    1  A    between atoms: C5_6  and  N2_7
REMARK    2  A    between atoms: N2_7  and  C6_8
REMARK    3  A    between atoms: C6_8  and  C7_9
REMARK    4  A    between atoms: C6_8  and  C12_15
REMARK    5  A    between atoms: N4_17  and  C13_18
REMARK    6  A    between atoms: C13_18  and  C14_19
REMARK    7  A    between atoms: C14_19  and  C15_20
REMARK                            x       y       z     vdW  Elec       q    Type
REMARK                         _______ _______ _______ _____ _____    ______ ____
ROOT
ATOM      1  C6  UNL     1       1.015   0.055  -0.996  0.00  0.00    +0.000 C 
ENDROOT
BRANCH   1   2
ATOM      2  C7  UNL     1       1.283  -1.426  -0.854  0.00  0.00    +0.000 A 
ATOM      3  C8  UNL     1       1.854  -2.161  -1.898  0.00  0.00    +0.000 A 
ATOM      4  C9  UNL     1       2.072  -3.527  -1.745  0.00  0.00    +0.000 A 
ATOM      5  C10 UNL     1       1.709  -4.121  -0.548  0.00  0.00    +0.000 A 
ATOM      6  N3  UNL     1       1.153  -3.450   0.482  0.00  0.00    +0.000 NA
ATOM      7  C11 UNL     1       0.950  -2.125   0.305  0.00  0.00    +0.000 A 
ENDBRANCH   1   2
BRANCH   1   8
ATOM      8  C12 UNL     1      -0.515   0.298  -1.160  0.00  0.00    +0.000 C 
ATOM      9  O1  UNL     1      -1.114   0.075  -2.209  0.00  0.00    +0.000 OA
ATOM     10  N4  UNL     1      -1.140   0.760  -0.017  0.00  0.00    +0.000 N 
ATOM     11  H17 UNL     1      -0.571   0.789   0.825  0.00  0.00    +0.000 HD
BRANCH  10  12
ATOM     12  C13 UNL     1      -2.577   0.914   0.072  0.00  0.00    +0.000 C 
BRANCH  12  13
ATOM     13  C14 UNL     1      -3.288  -0.423   0.293  0.00  0.00    +0.000 C 
BRANCH  13  14
ATOM     14  C15 UNL     1      -4.778  -0.243   0.434  0.00  0.00    +0.000 A 
ATOM     15  C16 UNL     1      -5.591  -0.167  -0.706  0.00  0.00    +0.000 A 
ATOM     16  C17 UNL     1      -6.968   0.020  -0.581  0.00  0.00    +0.000 A 
ATOM     17  C18 UNL     1      -7.545   0.135   0.683  0.00  0.00    +0.000 A 
ATOM     18  C19 UNL     1      -6.745   0.065   1.822  0.00  0.00    +0.000 A 
ATOM     19  C20 UNL     1      -5.367  -0.122   1.699  0.00  0.00    +0.000 A 
ENDBRANCH  13  14
ENDBRANCH  12  13
ENDBRANCH  10  12
ENDBRANCH   1   8
BRANCH   1  20
ATOM     20  N2  UNL     1       1.522   0.865   0.152  0.00  0.00    +0.000 NA
ATOM     21  H11 UNL     1       1.245   1.834  -0.023  0.00  0.00    +0.000 HD
BRANCH  20  27
ATOM     22  C1  UNL     1       3.768   1.451  -0.899  0.00  0.00    +0.000 C 
ATOM     23  N1  UNL     1       5.141   1.888  -0.611  0.00  0.00    +0.000 NA
ATOM     24  C2  UNL     1       5.684   1.223   0.570  0.00  0.00    +0.000 C 
ATOM     25  C3  UNL     1       4.877   1.565   1.824  0.00  0.00    +0.000 C 
ATOM     26  C4  UNL     1       3.363   1.578   1.583  0.00  0.00    +0.000 C 
ATOM     27  C5  UNL     1       2.991   0.828   0.296  0.00  0.00    +0.000 C 
ATOM     28  H3  UNL     1       5.142   2.896  -0.446  0.00  0.00    +0.000 HD
ENDBRANCH  20  27
ENDBRANCH   1  20
TORSDOF 7
