REMARK  Name = /home/anacleto/Desktop/manuscript_Mpro/naturecomm/supplementary_file_S2/6-chemical-library/molecular_docking/3D_ligand_structure/2489.pdb
REMARK  6 active torsions:
REMARK  status: ('A' for Active; 'I' for Inactive)
REMARK    1  A    between atoms: C3_5  and  C4_6
REMARK    2  A    between atoms: N2_8  and  C5_9
REMARK    3  A    between atoms: C5_9  and  C6_10
REMARK    4  A    between atoms: C5_9  and  C11_16
REMARK    5  A    between atoms: N4_18  and  C12_19
REMARK    6  A    between atoms: C12_19  and  C13_20
REMARK                            x       y       z     vdW  Elec       q    Type
REMARK                         _______ _______ _______ _____ _____    ______ ____
ROOT
ATOM      1  C5  UNL     1      -0.907  -0.140   0.630  0.00  0.00    +0.000 C 
ENDROOT
BRANCH   1   2
ATOM      2  C6  UNL     1      -0.778   1.180  -0.092  0.00  0.00    +0.000 A 
ATOM      3  C7  UNL     1      -1.350   2.342   0.441  0.00  0.00    +0.000 A 
ATOM      4  C8  UNL     1      -1.243   3.548  -0.245  0.00  0.00    +0.000 A 
ATOM      5  C9  UNL     1      -0.571   3.556  -1.454  0.00  0.00    +0.000 A 
ATOM      6  N3  UNL     1      -0.019   2.457  -2.010  0.00  0.00    +0.000 NA
ATOM      7  C10 UNL     1      -0.142   1.298  -1.325  0.00  0.00    +0.000 A 
ENDBRANCH   1   2
BRANCH   1  10
ATOM      8  C4  UNL     1      -3.283  -0.815   0.722  0.00  0.00    +0.000 C 
ATOM      9  O2  UNL     1      -3.486  -0.081   1.687  0.00  0.00    +0.000 OA
ATOM     10  N2  UNL     1      -2.046  -0.887   0.122  0.00  0.00    +0.000 N 
ATOM     11  H3  UNL     1      -1.845  -1.580  -0.587  0.00  0.00    +0.000 HD
BRANCH   8  16
ATOM     12  N1  UNL     1      -5.587  -1.805   0.701  0.00  0.00    +0.000 NA
ATOM     13  C1  UNL     1      -6.200  -2.641  -0.102  0.00  0.00    +0.000 A 
ATOM     14  O1  UNL     1      -5.455  -3.083  -1.149  0.00  0.00    +0.000 OA
ATOM     15  C2  UNL     1      -4.256  -2.457  -0.984  0.00  0.00    +0.000 A 
ATOM     16  C3  UNL     1      -4.321  -1.671   0.149  0.00  0.00    +0.000 A 
ENDBRANCH   8  16
ENDBRANCH   1  10
BRANCH   1  17
ATOM     17  C11 UNL     1       0.350  -1.028   0.479  0.00  0.00    +0.000 C 
ATOM     18  O3  UNL     1       0.375  -1.993  -0.287  0.00  0.00    +0.000 OA
ATOM     19  N4  UNL     1       1.429  -0.637   1.242  0.00  0.00    +0.000 N 
ATOM     20  H9  UNL     1       1.404   0.271   1.692  0.00  0.00    +0.000 HD
BRANCH  19  21
ATOM     21  C12 UNL     1       2.718  -1.283   1.132  0.00  0.00    +0.000 C 
BRANCH  21  22
ATOM     22  C13 UNL     1       3.643  -0.476   0.265  0.00  0.00    +0.000 A 
ATOM     23  C14 UNL     1       4.573   0.404   0.827  0.00  0.00    +0.000 A 
ATOM     24  C15 UNL     1       5.388   1.139  -0.021  0.00  0.00    +0.000 A 
ATOM     25  N5  UNL     1       5.336   1.063  -1.367  0.00  0.00    +0.000 NA
ATOM     26  C16 UNL     1       4.423   0.218  -1.891  0.00  0.00    +0.000 A 
ATOM     27  C17 UNL     1       3.568  -0.562  -1.129  0.00  0.00    +0.000 A 
ENDBRANCH  21  22
ENDBRANCH  19  21
ENDBRANCH   1  17
TORSDOF 6
