REMARK  Name = /home/anacleto/Desktop/manuscript_Mpro/naturecomm/supplementary_file_S2/6-chemical-library/molecular_docking/3D_ligand_structure/2494.pdb
REMARK  6 active torsions:
REMARK  status: ('A' for Active; 'I' for Inactive)
REMARK    1  A    between atoms: C4_5  and  C5_6
REMARK    2  A    between atoms: N1_8  and  C6_9
REMARK    3  A    between atoms: C6_9  and  C7_10
REMARK    4  A    between atoms: C6_9  and  C11_16
REMARK    5  A    between atoms: N4_18  and  C12_19
REMARK    6  A    between atoms: C12_19  and  C13_20
REMARK                            x       y       z     vdW  Elec       q    Type
REMARK                         _______ _______ _______ _____ _____    ______ ____
ROOT
ATOM      1  C6  UNL     1      -0.867   0.457   0.166  0.00  0.00    +0.000 C 
ENDROOT
BRANCH   1   2
ATOM      2  C7  UNL     1      -1.339   1.885  -0.004  0.00  0.00    +0.000 A 
ATOM      3  C8  UNL     1      -2.290   2.234  -0.959  0.00  0.00    +0.000 A 
ATOM      4  N2  UNL     1      -2.697   3.510  -1.166  0.00  0.00    +0.000 NA
ATOM      5  C9  UNL     1      -2.119   4.437  -0.373  0.00  0.00    +0.000 A 
ATOM      6  C10 UNL     1      -1.161   4.110   0.570  0.00  0.00    +0.000 A 
ATOM      7  N3  UNL     1      -0.736   2.840   0.763  0.00  0.00    +0.000 NA
ENDBRANCH   1   2
BRANCH   1  10
ATOM      8  C5  UNL     1      -2.834  -0.879   0.869  0.00  0.00    +0.000 C 
ATOM      9  O2  UNL     1      -2.953  -0.255   1.919  0.00  0.00    +0.000 OA
ATOM     10  N1  UNL     1      -1.896  -0.545  -0.077  0.00  0.00    +0.000 N 
ATOM     11  H4  UNL     1      -1.746  -1.196  -0.846  0.00  0.00    +0.000 HD
BRANCH   8  16
ATOM     12  O1  UNL     1      -3.431  -2.662  -0.678  0.00  0.00    +0.000 OA
ATOM     13  C1  UNL     1      -4.324  -3.682  -0.754  0.00  0.00    +0.000 A 
ATOM     14  C2  UNL     1      -5.117  -3.714   0.368  0.00  0.00    +0.000 A 
ATOM     15  C3  UNL     1      -4.684  -2.643   1.186  0.00  0.00    +0.000 A 
ATOM     16  C4  UNL     1      -3.650  -2.020   0.514  0.00  0.00    +0.000 A 
ENDBRANCH   8  16
ENDBRANCH   1  10
BRANCH   1  17
ATOM     17  C11 UNL     1       0.318   0.171  -0.782  0.00  0.00    +0.000 C 
ATOM     18  O3  UNL     1       0.276  -0.727  -1.625  0.00  0.00    +0.000 OA
ATOM     19  N4  UNL     1       1.420   0.976  -0.594  0.00  0.00    +0.000 N 
ATOM     20  H9  UNL     1       1.396   1.666   0.152  0.00  0.00    +0.000 HD
BRANCH  19  21
ATOM     21  C12 UNL     1       2.662   0.777  -1.301  0.00  0.00    +0.000 C 
BRANCH  21  22
ATOM     22  C13 UNL     1       3.661   0.068  -0.426  0.00  0.00    +0.000 A 
ATOM     23  C14 UNL     1       3.640  -1.331  -0.321  0.00  0.00    +0.000 A 
ATOM     24  C15 UNL     1       4.547  -1.993   0.506  0.00  0.00    +0.000 A 
ATOM     25  C16 UNL     1       5.481  -1.264   1.241  0.00  0.00    +0.000 A 
ATOM     26  C17 UNL     1       5.505   0.126   1.152  0.00  0.00    +0.000 A 
ATOM     27  C18 UNL     1       4.598   0.791   0.325  0.00  0.00    +0.000 A 
ENDBRANCH  21  22
ENDBRANCH  19  21
ENDBRANCH   1  17
TORSDOF 6
