REMARK  Name = /home/anacleto/Desktop/manuscript_Mpro/naturecomm/supplementary_file_S2/6-chemical-library/molecular_docking/3D_ligand_structure/2503.pdb
REMARK  7 active torsions:
REMARK  status: ('A' for Active; 'I' for Inactive)
REMARK    1  A    between atoms: C4_6  and  N3_7
REMARK    2  A    between atoms: N3_7  and  C5_8
REMARK    3  A    between atoms: C5_8  and  C6_9
REMARK    4  A    between atoms: C5_8  and  C11_15
REMARK    5  A    between atoms: N5_17  and  C12_18
REMARK    6  A    between atoms: C12_18  and  C13_19
REMARK    7  A    between atoms: C13_19  and  C14_20
REMARK                            x       y       z     vdW  Elec       q    Type
REMARK                         _______ _______ _______ _____ _____    ______ ____
ROOT
ATOM      1  C5  UNL     1      -0.891   1.044   0.481  0.00  0.00    +0.000 C 
ENDROOT
BRANCH   1   2
ATOM      2  C6  UNL     1      -2.276   1.627   0.685  0.00  0.00    +0.000 A 
ATOM      3  C7  UNL     1      -2.723   1.941   1.979  0.00  0.00    +0.000 A 
ATOM      4  C8  UNL     1      -3.998   2.465   2.175  0.00  0.00    +0.000 A 
ATOM      5  C9  UNL     1      -4.800   2.665   1.067  0.00  0.00    +0.000 A 
ATOM      6  N4  UNL     1      -4.411   2.385  -0.193  0.00  0.00    +0.000 NA
ATOM      7  C10 UNL     1      -3.166   1.878  -0.357  0.00  0.00    +0.000 A 
ENDBRANCH   1   2
BRANCH   1   8
ATOM      8  C11 UNL     1      -0.326   1.018  -0.967  0.00  0.00    +0.000 C 
ATOM      9  O1  UNL     1      -0.477   1.937  -1.769  0.00  0.00    +0.000 OA
ATOM     10  N5  UNL     1       0.418  -0.104  -1.266  0.00  0.00    +0.000 N 
ATOM     11  H10 UNL     1       0.625  -0.726  -0.488  0.00  0.00    +0.000 HD
BRANCH  10  12
ATOM     12  C12 UNL     1       1.169  -0.250  -2.497  0.00  0.00    +0.000 C 
BRANCH  12  13
ATOM     13  C13 UNL     1       2.493   0.521  -2.483  0.00  0.00    +0.000 C 
BRANCH  13  14
ATOM     14  C14 UNL     1       3.426   0.070  -1.382  0.00  0.00    +0.000 A 
ATOM     15  C15 UNL     1       4.081  -1.166  -1.462  0.00  0.00    +0.000 A 
ATOM     16  C16 UNL     1       4.925  -1.587  -0.434  0.00  0.00    +0.000 A 
ATOM     17  C17 UNL     1       5.124  -0.778   0.683  0.00  0.00    +0.000 A 
ATOM     18  C18 UNL     1       4.479   0.455   0.772  0.00  0.00    +0.000 A 
ATOM     19  C19 UNL     1       3.634   0.877  -0.255  0.00  0.00    +0.000 A 
ENDBRANCH  13  14
ENDBRANCH  12  13
ENDBRANCH  10  12
ENDBRANCH   1   8
BRANCH   1  20
ATOM     20  N3  UNL     1      -0.717  -0.259   1.188  0.00  0.00    +0.000 N 
ATOM     21  H4  UNL     1      -0.530  -0.106   2.177  0.00  0.00    +0.000 HD
BRANCH  20  27
ATOM     22  C1  UNL     1      -1.577  -2.403   1.905  0.00  0.00    +0.000 A 
ATOM     23  N1  UNL     1      -2.297  -3.540   1.782  0.00  0.00    +0.000 NA
ATOM     24  C2  UNL     1      -3.021  -3.641   0.662  0.00  0.00    +0.000 A 
ATOM     25  N2  UNL     1      -3.068  -2.734  -0.321  0.00  0.00    +0.000 NA
ATOM     26  C3  UNL     1      -2.326  -1.618  -0.131  0.00  0.00    +0.000 A 
ATOM     27  C4  UNL     1      -1.562  -1.352   0.994  0.00  0.00    +0.000 A 
ENDBRANCH  20  27
ENDBRANCH   1  20
TORSDOF 7
