REMARK  Name = /home/anacleto/Desktop/manuscript_Mpro/naturecomm/supplementary_file_S2/6-chemical-library/molecular_docking/3D_ligand_structure/2528.pdb
REMARK  7 active torsions:
REMARK  status: ('A' for Active; 'I' for Inactive)
REMARK    1  A    between atoms: C4_5  and  N2_6
REMARK    2  A    between atoms: N2_6  and  C5_7
REMARK    3  A    between atoms: C5_7  and  C6_8
REMARK    4  A    between atoms: C5_7  and  C11_14
REMARK    5  A    between atoms: N4_16  and  C12_17
REMARK    6  A    between atoms: C12_17  and  C13_18
REMARK    7  A    between atoms: C13_18  and  C14_19
REMARK                            x       y       z     vdW  Elec       q    Type
REMARK                         _______ _______ _______ _____ _____    ______ ____
ROOT
ATOM      1  C5  UNL     1      -1.483  -0.821  -0.756  0.00  0.00    +0.000 C 
ENDROOT
BRANCH   1   2
ATOM      2  C6  UNL     1      -2.197  -2.076  -0.304  0.00  0.00    +0.000 A 
ATOM      3  C7  UNL     1      -3.408  -2.468  -0.887  0.00  0.00    +0.000 A 
ATOM      4  C8  UNL     1      -4.062  -3.609  -0.430  0.00  0.00    +0.000 A 
ATOM      5  C9  UNL     1      -3.487  -4.324   0.606  0.00  0.00    +0.000 A 
ATOM      6  N3  UNL     1      -2.326  -3.978   1.201  0.00  0.00    +0.000 NA
ATOM      7  C10 UNL     1      -1.706  -2.873   0.728  0.00  0.00    +0.000 A 
ENDBRANCH   1   2
BRANCH   1   8
ATOM      8  C11 UNL     1       0.042  -1.070  -0.974  0.00  0.00    +0.000 C 
ATOM      9  O1  UNL     1       0.478  -1.950  -1.711  0.00  0.00    +0.000 OA
ATOM     10  N4  UNL     1       0.859  -0.210  -0.260  0.00  0.00    +0.000 N 
ATOM     11  H15 UNL     1       0.374   0.624   0.065  0.00  0.00    +0.000 HD
BRANCH  10  12
ATOM     12  C12 UNL     1       2.288  -0.156  -0.495  0.00  0.00    +0.000 C 
BRANCH  12  13
ATOM     13  C13 UNL     1       3.021   0.523   0.661  0.00  0.00    +0.000 C 
BRANCH  13  14
ATOM     14  C14 UNL     1       4.504   0.620   0.411  0.00  0.00    +0.000 A 
ATOM     15  C15 UNL     1       5.055   1.773  -0.165  0.00  0.00    +0.000 A 
ATOM     16  C16 UNL     1       6.426   1.852  -0.412  0.00  0.00    +0.000 A 
ATOM     17  C17 UNL     1       7.257   0.781  -0.090  0.00  0.00    +0.000 A 
ATOM     18  C18 UNL     1       6.718  -0.371   0.478  0.00  0.00    +0.000 A 
ATOM     19  C19 UNL     1       5.348  -0.453   0.726  0.00  0.00    +0.000 A 
ENDBRANCH  13  14
ENDBRANCH  12  13
ENDBRANCH  10  12
ENDBRANCH   1   8
BRANCH   1  20
ATOM     20  N2  UNL     1      -1.671   0.315   0.197  0.00  0.00    +0.000 NA
ATOM     21  H9  UNL     1      -1.524  -0.046   1.142  0.00  0.00    +0.000 HD
BRANCH  20  26
ATOM     22  C1  UNL     1      -3.364   1.649  -1.163  0.00  0.00    +0.000 C 
ATOM     23  N1  UNL     1      -4.510   2.471  -0.771  0.00  0.00    +0.000 NA
ATOM     24  C2  UNL     1      -4.241   2.937   0.592  0.00  0.00    +0.000 C 
ATOM     25  C3  UNL     1      -3.153   2.030   1.161  0.00  0.00    +0.000 C 
ATOM     26  C4  UNL     1      -3.009   0.911   0.131  0.00  0.00    +0.000 C 
ATOM     27  H3  UNL     1      -4.629   3.257  -1.407  0.00  0.00    +0.000 HD
ENDBRANCH  20  26
ENDBRANCH   1  20
TORSDOF 7
