REMARK  Name = /home/anacleto/Desktop/manuscript_Mpro/naturecomm/supplementary_file_S2/6-chemical-library/molecular_docking/3D_ligand_structure/2530.pdb
REMARK  7 active torsions:
REMARK  status: ('A' for Active; 'I' for Inactive)
REMARK    1  A    between atoms: C1_5  and  C2_6
REMARK    2  A    between atoms: C2_6  and  C3_7
REMARK    3  A    between atoms: C3_7  and  N5_8
REMARK    4  A    between atoms: C4_9  and  C5_11
REMARK    5  A    between atoms: C5_11  and  C6_12
REMARK    6  A    between atoms: C5_11  and  N7_18
REMARK    7  A    between atoms: N7_18  and  C11_19
REMARK                            x       y       z     vdW  Elec       q    Type
REMARK                         _______ _______ _______ _____ _____    ______ ____
ROOT
ATOM      1  C5  UNL     1      -0.745   0.184   0.366  0.00  0.00    +0.000 C 
ENDROOT
BRANCH   1   2
ATOM      2  C6  UNL     1      -1.015   1.566  -0.179  0.00  0.00    +0.000 A 
ATOM      3  C7  UNL     1      -0.896   1.868  -1.542  0.00  0.00    +0.000 A 
ATOM      4  C8  UNL     1      -1.147   3.161  -1.991  0.00  0.00    +0.000 A 
ATOM      5  C9  UNL     1      -1.497   4.122  -1.058  0.00  0.00    +0.000 A 
ATOM      6  N6  UNL     1      -1.616   3.874   0.263  0.00  0.00    +0.000 NA
ATOM      7  C10 UNL     1      -1.388   2.605   0.669  0.00  0.00    +0.000 A 
ENDBRANCH   1   2
BRANCH   1   9
ATOM      8  N5  UNL     1       1.709   0.498   0.682  0.00  0.00    +0.000 N 
ATOM      9  C4  UNL     1       0.723  -0.258   0.073  0.00  0.00    +0.000 C 
ATOM     10  O1  UNL     1       0.992  -1.233  -0.635  0.00  0.00    +0.000 OA
ATOM     11  H6  UNL     1       1.451   1.274   1.283  0.00  0.00    +0.000 HD
BRANCH   8  12
ATOM     12  C3  UNL     1       3.111   0.124   0.589  0.00  0.00    +0.000 C 
BRANCH  12  13
ATOM     13  C2  UNL     1       3.706   0.388  -0.796  0.00  0.00    +0.000 C 
BRANCH  13  18
ATOM     14  N1  UNL     1       5.241  -1.458  -1.536  0.00  0.00    +0.000 N 
ATOM     15  N2  UNL     1       6.541  -1.784  -1.475  0.00  0.00    +0.000 NA
ATOM     16  N3  UNL     1       7.118  -0.785  -0.819  0.00  0.00    +0.000 NA
ATOM     17  N4  UNL     1       6.194   0.174  -0.466  0.00  0.00    +0.000 NA
ATOM     18  C1  UNL     1       5.036  -0.252  -0.923  0.00  0.00    +0.000 A 
ATOM     19  H1  UNL     1       4.585  -2.081  -1.995  0.00  0.00    +0.000 HD
ENDBRANCH  13  18
ENDBRANCH  12  13
ENDBRANCH   8  12
ENDBRANCH   1   9
BRANCH   1  20
ATOM     20  N7  UNL     1      -1.669  -0.782  -0.257  0.00  0.00    +0.000 N 
ATOM     21  H12 UNL     1      -1.136  -1.472  -0.796  0.00  0.00    +0.000 HD
BRANCH  20  22
ATOM     22  C11 UNL     1      -2.676  -1.382   0.510  0.00  0.00    +0.000 A 
ATOM     23  C12 UNL     1      -3.145  -2.648   0.125  0.00  0.00    +0.000 A 
ATOM     24  C13 UNL     1      -4.182  -3.286   0.820  0.00  0.00    +0.000 A 
ATOM     25  C14 UNL     1      -4.788  -2.652   1.899  0.00  0.00    +0.000 A 
ATOM     26  C15 UNL     1      -4.372  -1.374   2.266  0.00  0.00    +0.000 A 
ATOM     27  C16 UNL     1      -3.339  -0.740   1.563  0.00  0.00    +0.000 A 
ENDBRANCH  20  22
ENDBRANCH   1  20
TORSDOF 7
