REMARK  Name = /home/anacleto/Desktop/manuscript_Mpro/naturecomm/supplementary_file_S2/6-chemical-library/molecular_docking/3D_ligand_structure/2531.pdb
REMARK  4 active torsions:
REMARK  status: ('A' for Active; 'I' for Inactive)
REMARK    1  A    between atoms: C3_8  and  C4_9
REMARK    2  A    between atoms: N4_11  and  C5_12
REMARK    3  A    between atoms: N4_11  and  C11_18
REMARK    4  A    between atoms: C11_18  and  C12_19
REMARK                            x       y       z     vdW  Elec       q    Type
REMARK                         _______ _______ _______ _____ _____    ______ ____
ROOT
ATOM      1  C4  UNL     1       1.637   0.342  -0.026  0.00  0.00    +0.000 C 
ATOM      2  O3  UNL     1       2.598   0.810  -0.628  0.00  0.00    +0.000 OA
ATOM      3  N4  UNL     1       0.432   0.991   0.323  0.00  0.00    +0.000 N 
ENDROOT
BRANCH   1  11
ATOM      4  N1  UNL     1       2.035  -1.409   1.588  0.00  0.00    +0.000 NA
ATOM      5  N2  UNL     1       2.172  -2.732   1.905  0.00  0.00    +0.000 N 
ATOM      6  C1  UNL     1       2.091  -3.785   1.031  0.00  0.00    +0.000 A 
ATOM      7  O1  UNL     1       2.247  -4.946   1.395  0.00  0.00    +0.000 OA
ATOM      8  N3  UNL     1       1.830  -3.469  -0.264  0.00  0.00    +0.000 N 
ATOM      9  C2  UNL     1       1.639  -2.193  -0.710  0.00  0.00    +0.000 A 
ATOM     10  O2  UNL     1       1.355  -1.914  -1.865  0.00  0.00    +0.000 OA
ATOM     11  C3  UNL     1       1.776  -1.116   0.341  0.00  0.00    +0.000 A 
ATOM     12  H1  UNL     1       2.395  -2.953   2.872  0.00  0.00    +0.000 HD
ATOM     13  H2  UNL     1       1.736  -4.227  -0.922  0.00  0.00    +0.000 HD
ENDBRANCH   1  11
BRANCH   3  14
ATOM     14  C5  UNL     1       0.193   2.377  -0.012  0.00  0.00    +0.000 A 
ATOM     15  C6  UNL     1      -1.115   2.889  -0.101  0.00  0.00    +0.000 A 
ATOM     16  C7  UNL     1      -1.359   4.230  -0.420  0.00  0.00    +0.000 A 
ATOM     17  C8  UNL     1      -0.298   5.095  -0.657  0.00  0.00    +0.000 A 
ATOM     18  C9  UNL     1       1.003   4.616  -0.576  0.00  0.00    +0.000 A 
ATOM     19  C10 UNL     1       1.244   3.273  -0.258  0.00  0.00    +0.000 A 
ENDBRANCH   3  14
BRANCH   3  20
ATOM     20  C11 UNL     1      -0.595   0.279   1.105  0.00  0.00    +0.000 C 
BRANCH  20  21
ATOM     21  C12 UNL     1      -1.333  -0.793   0.346  0.00  0.00    +0.000 A 
ATOM     22  C13 UNL     1      -1.655  -0.689  -1.010  0.00  0.00    +0.000 A 
ATOM     23  C14 UNL     1      -2.335  -1.726  -1.643  0.00  0.00    +0.000 A 
ATOM     24  C15 UNL     1      -2.685  -2.835  -0.894  0.00  0.00    +0.000 A 
ATOM     25  N5  UNL     1      -2.409  -2.966   0.420  0.00  0.00    +0.000 NA
ATOM     26  C16 UNL     1      -1.754  -1.943   1.011  0.00  0.00    +0.000 A 
ENDBRANCH  20  21
ENDBRANCH   3  20
TORSDOF 4
