REMARK  Name = /home/anacleto/Desktop/manuscript_Mpro/naturecomm/supplementary_file_S2/6-chemical-library/molecular_docking/3D_ligand_structure/2541.pdb
REMARK  7 active torsions:
REMARK  status: ('A' for Active; 'I' for Inactive)
REMARK    1  A    between atoms: C5_6  and  C6_7
REMARK    2  A    between atoms: C6_7  and  C7_8
REMARK    3  A    between atoms: N2_10  and  C8_11
REMARK    4  A    between atoms: N2_10  and  C14_18
REMARK    5  A    between atoms: C8_11  and  C9_12
REMARK    6  A    between atoms: C9_12  and  C10_13
REMARK    7  A    between atoms: C14_18  and  C15_19
REMARK                            x       y       z     vdW  Elec       q    Type
REMARK                         _______ _______ _______ _____ _____    ______ ____
ROOT
ATOM      1  C7  UNL     1      -0.934  -1.341  -0.354  0.00  0.00    +0.000 C 
ATOM      2  O1  UNL     1      -0.705  -2.217   0.481  0.00  0.00    +0.000 OA
ATOM      3  N2  UNL     1       0.095  -0.565  -0.884  0.00  0.00    +0.000 N 
ENDROOT
BRANCH   1   4
ATOM      4  C6  UNL     1      -2.347  -1.068  -0.859  0.00  0.00    +0.000 C 
BRANCH   4  10
ATOM      5  C1  UNL     1      -3.567  -3.261  -0.583  0.00  0.00    +0.000 A 
ATOM      6  N1  UNL     1      -4.519  -4.079  -0.080  0.00  0.00    +0.000 NA
ATOM      7  C2  UNL     1      -5.343  -3.548   0.847  0.00  0.00    +0.000 A 
ATOM      8  C3  UNL     1      -5.267  -2.237   1.285  0.00  0.00    +0.000 A 
ATOM      9  C4  UNL     1      -4.288  -1.413   0.737  0.00  0.00    +0.000 A 
ATOM     10  C5  UNL     1      -3.415  -1.923  -0.228  0.00  0.00    +0.000 A 
ENDBRANCH   4  10
ENDBRANCH   1   4
BRANCH   3  11
ATOM     11  C8  UNL     1       1.467  -0.848  -0.435  0.00  0.00    +0.000 C 
BRANCH  11  12
ATOM     12  C9  UNL     1       1.767  -0.320   0.972  0.00  0.00    +0.000 C 
BRANCH  12  13
ATOM     13  C10 UNL     1       3.230  -0.246   1.219  0.00  0.00    +0.000 A 
ATOM     14  C11 UNL     1       4.111   0.806   1.357  0.00  0.00    +0.000 A 
ATOM     15  C12 UNL     1       5.386   0.230   1.574  0.00  0.00    +0.000 A 
ATOM     16  C13 UNL     1       5.199  -1.132   1.554  0.00  0.00    +0.000 A 
ATOM     17  O2  UNL     1       3.893  -1.430   1.335  0.00  0.00    +0.000 OA
ENDBRANCH  12  13
ENDBRANCH  11  12
ENDBRANCH   3  11
BRANCH   3  18
ATOM     18  C14 UNL     1      -0.076   0.519  -1.857  0.00  0.00    +0.000 C 
BRANCH  18  19
ATOM     19  C15 UNL     1       0.280   1.876  -1.299  0.00  0.00    +0.000 A 
ATOM     20  C16 UNL     1       1.458   2.523  -1.702  0.00  0.00    +0.000 A 
ATOM     21  C17 UNL     1       1.799   3.770  -1.175  0.00  0.00    +0.000 A 
ATOM     22  C18 UNL     1       0.968   4.383  -0.240  0.00  0.00    +0.000 A 
ATOM     23  C19 UNL     1      -0.204   3.751   0.169  0.00  0.00    +0.000 A 
ATOM     24  C20 UNL     1      -0.547   2.504  -0.357  0.00  0.00    +0.000 A 
ENDBRANCH  18  19
ENDBRANCH   3  18
TORSDOF 7
