REMARK  Name = /home/anacleto/Desktop/manuscript_Mpro/naturecomm/supplementary_file_S2/6-chemical-library/molecular_docking/3D_ligand_structure/2554.pdb
REMARK  4 active torsions:
REMARK  status: ('A' for Active; 'I' for Inactive)
REMARK    1  A    between atoms: C5_7  and  C6_9
REMARK    2  A    between atoms: C6_9  and  C7_10
REMARK    3  A    between atoms: C6_9  and  N3_16
REMARK    4  A    between atoms: C12_17  and  C13_19
REMARK                            x       y       z     vdW  Elec       q    Type
REMARK                         _______ _______ _______ _____ _____    ______ ____
ROOT
ATOM      1  C6  UNL     1       0.713   1.225   0.190  0.00  0.00    +0.000 C 
ENDROOT
BRANCH   1   8
ATOM      2  C1  UNL     1      -1.427  -0.959   0.607  0.00  0.00    +0.000 C 
ATOM      3  C2  UNL     1      -2.395  -2.002   1.178  0.00  0.00    +0.000 C 
ATOM      4  O1  UNL     1      -3.671  -1.451   1.522  0.00  0.00    +0.000 OA
ATOM      5  C3  UNL     1      -3.598  -0.138   2.099  0.00  0.00    +0.000 C 
ATOM      6  C4  UNL     1      -2.207   0.250   2.610  0.00  0.00    +0.000 C 
ATOM      7  N1  UNL     1      -1.215   0.157   1.532  0.00  0.00    +0.000 N 
ATOM      8  C5  UNL     1      -0.275   1.171   1.403  0.00  0.00    +0.000 C 
ATOM      9  O2  UNL     1      -0.292   2.139   2.178  0.00  0.00    +0.000 OA
ENDBRANCH   1   8
BRANCH   1  10
ATOM     10  C7  UNL     1       0.085   2.014  -0.948  0.00  0.00    +0.000 A 
ATOM     11  C8  UNL     1      -0.513   1.426  -2.069  0.00  0.00    +0.000 A 
ATOM     12  C9  UNL     1      -1.079   2.228  -3.058  0.00  0.00    +0.000 A 
ATOM     13  C10 UNL     1      -1.037   3.601  -2.894  0.00  0.00    +0.000 A 
ATOM     14  N2  UNL     1      -0.484   4.208  -1.825  0.00  0.00    +0.000 NA
ATOM     15  C11 UNL     1       0.054   3.407  -0.876  0.00  0.00    +0.000 A 
ENDBRANCH   1  10
BRANCH   1  16
ATOM     16  N3  UNL     1       1.300  -0.023  -0.273  0.00  0.00    +0.000 N 
ATOM     17  C12 UNL     1       2.180  -0.705   0.546  0.00  0.00    +0.000 C 
ATOM     18  O3  UNL     1       2.268  -0.479   1.748  0.00  0.00    +0.000 OA
ATOM     19  H14 UNL     1       1.526  -0.105  -1.258  0.00  0.00    +0.000 HD
BRANCH  17  20
ATOM     20  C13 UNL     1       2.973  -1.699  -0.146  0.00  0.00    +0.000 A 
ATOM     21  C14 UNL     1       3.931  -2.581   0.314  0.00  0.00    +0.000 A 
ATOM     22  C15 UNL     1       4.381  -3.316  -0.809  0.00  0.00    +0.000 A 
ATOM     23  C16 UNL     1       3.673  -2.840  -1.887  0.00  0.00    +0.000 A 
ATOM     24  O4  UNL     1       2.817  -1.859  -1.500  0.00  0.00    +0.000 OA
ENDBRANCH  17  20
ENDBRANCH   1  16
TORSDOF 4
