REMARK  Name = /home/anacleto/Desktop/manuscript_Mpro/naturecomm/supplementary_file_S2/6-chemical-library/molecular_docking/3D_ligand_structure/2557.pdb
REMARK  5 active torsions:
REMARK  status: ('A' for Active; 'I' for Inactive)
REMARK    1  A    between atoms: C5_5  and  N1_6
REMARK    2  A    between atoms: C6_7  and  C7_9
REMARK    3  A    between atoms: C7_9  and  C8_10
REMARK    4  A    between atoms: C7_9  and  N3_16
REMARK    5  A    between atoms: C13_17  and  C14_19
REMARK                            x       y       z     vdW  Elec       q    Type
REMARK                         _______ _______ _______ _____ _____    ______ ____
ROOT
ATOM      1  C7  UNL     1       0.700   1.195  -1.165  0.00  0.00    +0.000 C 
ENDROOT
BRANCH   1   2
ATOM      2  C8  UNL     1       0.881   2.510  -0.438  0.00  0.00    +0.000 A 
ATOM      3  C9  UNL     1       1.918   3.380  -0.803  0.00  0.00    +0.000 A 
ATOM      4  C10 UNL     1       2.113   4.565  -0.100  0.00  0.00    +0.000 A 
ATOM      5  C11 UNL     1       1.270   4.843   0.961  0.00  0.00    +0.000 A 
ATOM      6  N2  UNL     1       0.270   4.027   1.355  0.00  0.00    +0.000 NA
ATOM      7  C12 UNL     1       0.093   2.888   0.647  0.00  0.00    +0.000 A 
ENDBRANCH   1   2
BRANCH   1   9
ATOM      8  N1  UNL     1      -1.001  -0.485  -0.505  0.00  0.00    +0.000 N 
ATOM      9  C6  UNL     1      -0.774   0.702  -1.177  0.00  0.00    +0.000 C 
ATOM     10  O1  UNL     1      -1.682   1.352  -1.692  0.00  0.00    +0.000 OA
ATOM     11  H10 UNL     1      -0.224  -0.896  -0.003  0.00  0.00    +0.000 HD
BRANCH   8  16
ATOM     12  C1  UNL     1      -3.071  -0.346   0.845  0.00  0.00    +0.000 C 
ATOM     13  C2  UNL     1      -4.097  -1.376   1.316  0.00  0.00    +0.000 C 
ATOM     14  C3  UNL     1      -3.726  -2.695   0.640  0.00  0.00    +0.000 C 
ATOM     15  C4  UNL     1      -2.325  -2.484   0.089  0.00  0.00    +0.000 C 
ATOM     16  C5  UNL     1      -2.331  -1.015  -0.313  0.00  0.00    +0.000 C 
ENDBRANCH   8  16
ENDBRANCH   1   9
BRANCH   1  17
ATOM     17  N3  UNL     1       1.606   0.207  -0.592  0.00  0.00    +0.000 N 
ATOM     18  C13 UNL     1       2.203  -0.770  -1.349  0.00  0.00    +0.000 C 
ATOM     19  O2  UNL     1       2.028  -0.908  -2.553  0.00  0.00    +0.000 OA
ATOM     20  H16 UNL     1       1.860   0.255   0.391  0.00  0.00    +0.000 HD
BRANCH  18  21
ATOM     21  C14 UNL     1       3.060  -1.640  -0.560  0.00  0.00    +0.000 A 
ATOM     22  C15 UNL     1       3.822  -2.687  -1.023  0.00  0.00    +0.000 A 
ATOM     23  O3  UNL     1       4.469  -3.242   0.039  0.00  0.00    +0.000 OA
ATOM     24  C16 UNL     1       4.059  -2.496   1.101  0.00  0.00    +0.000 A 
ATOM     25  N4  UNL     1       3.216  -1.528   0.815  0.00  0.00    +0.000 NA
ENDBRANCH  18  21
ENDBRANCH   1  17
TORSDOF 5
