REMARK  Name = /home/anacleto/Desktop/manuscript_Mpro/naturecomm/supplementary_file_S2/6-chemical-library/molecular_docking/3D_ligand_structure/2562.pdb
REMARK  5 active torsions:
REMARK  status: ('A' for Active; 'I' for Inactive)
REMARK    1  A    between atoms: C5_5  and  N1_6
REMARK    2  A    between atoms: C6_7  and  C7_9
REMARK    3  A    between atoms: C7_9  and  C8_10
REMARK    4  A    between atoms: C7_9  and  N3_16
REMARK    5  A    between atoms: C13_17  and  C14_19
REMARK                            x       y       z     vdW  Elec       q    Type
REMARK                         _______ _______ _______ _____ _____    ______ ____
ROOT
ATOM      1  C7  UNL     1       0.709  -0.006  -0.712  0.00  0.00    +0.000 C 
ENDROOT
BRANCH   1   2
ATOM      2  C8  UNL     1       0.687   1.498  -0.560  0.00  0.00    +0.000 A 
ATOM      3  C9  UNL     1       1.008   2.328  -1.641  0.00  0.00    +0.000 A 
ATOM      4  C10 UNL     1       0.994   3.710  -1.485  0.00  0.00    +0.000 A 
ATOM      5  C11 UNL     1       0.661   4.225  -0.244  0.00  0.00    +0.000 A 
ATOM      6  N2  UNL     1       0.356   3.462   0.826  0.00  0.00    +0.000 NA
ATOM      7  C12 UNL     1       0.391   2.121   0.650  0.00  0.00    +0.000 A 
ENDBRANCH   1   2
BRANCH   1   9
ATOM      8  N1  UNL     1      -1.683  -0.508  -0.359  0.00  0.00    +0.000 N 
ATOM      9  C6  UNL     1      -0.398  -0.703   0.114  0.00  0.00    +0.000 C 
ATOM     10  O1  UNL     1      -0.143  -1.359   1.124  0.00  0.00    +0.000 OA
ATOM     11  H10 UNL     1      -1.828   0.230  -1.039  0.00  0.00    +0.000 HD
BRANCH   8  16
ATOM     12  C1  UNL     1      -4.101  -1.011  -0.453  0.00  0.00    +0.000 C 
ATOM     13  C2  UNL     1      -5.198  -1.050   0.597  0.00  0.00    +0.000 C 
ATOM     14  C3  UNL     1      -4.715  -0.088   1.676  0.00  0.00    +0.000 C 
ATOM     15  C4  UNL     1      -3.190  -0.044   1.556  0.00  0.00    +0.000 C 
ATOM     16  C5  UNL     1      -2.832  -0.969   0.390  0.00  0.00    +0.000 C 
ENDBRANCH   8  16
ENDBRANCH   1   9
BRANCH   1  17
ATOM     17  N3  UNL     1       1.991  -0.544  -0.290  0.00  0.00    +0.000 N 
ATOM     18  C13 UNL     1       3.028  -0.739  -1.176  0.00  0.00    +0.000 C 
ATOM     19  O2  UNL     1       2.927  -0.397  -2.353  0.00  0.00    +0.000 OA
ATOM     20  H16 UNL     1       2.026  -0.943   0.640  0.00  0.00    +0.000 HD
BRANCH  18  21
ATOM     21  C14 UNL     1       4.206  -1.373  -0.614  0.00  0.00    +0.000 A 
ATOM     22  C15 UNL     1       4.541  -1.802   0.661  0.00  0.00    +0.000 A 
ATOM     23  C16 UNL     1       5.846  -2.349   0.585  0.00  0.00    +0.000 A 
ATOM     24  C17 UNL     1       6.235  -2.224  -0.725  0.00  0.00    +0.000 A 
ATOM     25  O3  UNL     1       5.256  -1.637  -1.457  0.00  0.00    +0.000 OA
ENDBRANCH  18  21
ENDBRANCH   1  17
TORSDOF 5
