REMARK  Name = /home/anacleto/Desktop/manuscript_Mpro/naturecomm/supplementary_file_S2/6-chemical-library/molecular_docking/3D_ligand_structure/2563.pdb
REMARK  6 active torsions:
REMARK  status: ('A' for Active; 'I' for Inactive)
REMARK    1  A    between atoms: C5_6  and  C6_7
REMARK    2  A    between atoms: C6_7  and  N2_8
REMARK    3  A    between atoms: N2_8  and  C12_16
REMARK    4  A    between atoms: C7_9  and  C8_11
REMARK    5  A    between atoms: C12_16  and  C13_17
REMARK    6  A    between atoms: C13_17  and  C14_18
REMARK                            x       y       z     vdW  Elec       q    Type
REMARK                         _______ _______ _______ _____ _____    ______ ____
ROOT
ATOM      1  N2  UNL     1      -1.224   0.842  -0.821  0.00  0.00    +0.000 N 
ATOM      2  C7  UNL     1      -1.453   2.222  -0.961  0.00  0.00    +0.000 C 
ATOM      3  O1  UNL     1      -0.530   2.965  -1.305  0.00  0.00    +0.000 OA
ENDROOT
BRANCH   2   4
ATOM      4  C8  UNL     1      -2.772   2.779  -0.703  0.00  0.00    +0.000 A 
ATOM      5  C9  UNL     1      -3.323   3.976  -1.130  0.00  0.00    +0.000 A 
ATOM      6  C10 UNL     1      -4.608   4.076  -0.546  0.00  0.00    +0.000 A 
ATOM      7  C11 UNL     1      -4.761   2.950   0.225  0.00  0.00    +0.000 A 
ATOM      8  O2  UNL     1      -3.655   2.167   0.147  0.00  0.00    +0.000 OA
ENDBRANCH   2   4
BRANCH   1   9
ATOM      9  C6  UNL     1      -2.270  -0.184  -0.795  0.00  0.00    +0.000 C 
BRANCH   9  15
ATOM     10  C1  UNL     1      -2.491  -0.548   1.694  0.00  0.00    +0.000 A 
ATOM     11  N1  UNL     1      -2.466  -1.282   2.832  0.00  0.00    +0.000 NA
ATOM     12  C2  UNL     1      -2.156  -2.589   2.706  0.00  0.00    +0.000 A 
ATOM     13  C3  UNL     1      -1.873  -3.197   1.495  0.00  0.00    +0.000 A 
ATOM     14  C4  UNL     1      -1.910  -2.419   0.342  0.00  0.00    +0.000 A 
ATOM     15  C5  UNL     1      -2.223  -1.058   0.428  0.00  0.00    +0.000 A 
ENDBRANCH   9  15
ENDBRANCH   1   9
BRANCH   1  16
ATOM     16  C12 UNL     1       0.160   0.370  -0.950  0.00  0.00    +0.000 C 
BRANCH  16  17
ATOM     17  C13 UNL     1       0.960   0.592   0.340  0.00  0.00    +0.000 C 
BRANCH  17  18
ATOM     18  C14 UNL     1       2.364  -0.040   0.357  0.00  0.00    +0.000 C 
ATOM     19  C15 UNL     1       3.228   0.369  -0.840  0.00  0.00    +0.000 C 
ATOM     20  C16 UNL     1       4.675  -0.108  -0.682  0.00  0.00    +0.000 C 
ATOM     21  C17 UNL     1       4.808  -1.403   0.123  0.00  0.00    +0.000 C 
ATOM     22  C18 UNL     1       3.571  -2.280  -0.005  0.00  0.00    +0.000 C 
ATOM     23  C19 UNL     1       2.310  -1.574   0.503  0.00  0.00    +0.000 C 
ENDBRANCH  17  18
ENDBRANCH  16  17
ENDBRANCH   1  16
TORSDOF 6
