REMARK  Name = /home/anacleto/Desktop/manuscript_Mpro/naturecomm/supplementary_file_S2/6-chemical-library/molecular_docking/3D_ligand_structure/2586.pdb
REMARK  5 active torsions:
REMARK  status: ('A' for Active; 'I' for Inactive)
REMARK    1  A    between atoms: C6_6  and  N1_7
REMARK    2  A    between atoms: C7_8  and  C8_10
REMARK    3  A    between atoms: C8_10  and  C9_11
REMARK    4  A    between atoms: C8_10  and  N3_17
REMARK    5  A    between atoms: N3_17  and  C14_18
REMARK                            x       y       z     vdW  Elec       q    Type
REMARK                         _______ _______ _______ _____ _____    ______ ____
ROOT
ATOM      1  C8  UNL     1      -0.752   1.062  -0.692  0.00  0.00    +0.000 C 
ENDROOT
BRANCH   1   2
ATOM      2  C9  UNL     1      -0.942   2.477  -0.183  0.00  0.00    +0.000 A 
ATOM      3  C10 UNL     1      -2.008   3.264  -0.638  0.00  0.00    +0.000 A 
ATOM      4  C11 UNL     1      -2.193   4.546  -0.130  0.00  0.00    +0.000 A 
ATOM      5  C12 UNL     1      -1.310   5.002   0.834  0.00  0.00    +0.000 A 
ATOM      6  N2  UNL     1      -0.282   4.271   1.312  0.00  0.00    +0.000 NA
ATOM      7  C13 UNL     1      -0.118   3.032   0.794  0.00  0.00    +0.000 A 
ENDBRANCH   1   2
BRANCH   1   9
ATOM      8  N1  UNL     1       1.231  -0.218  -0.049  0.00  0.00    +0.000 N 
ATOM      9  C7  UNL     1       0.749   0.729  -0.937  0.00  0.00    +0.000 C 
ATOM     10  O1  UNL     1       1.392   1.291  -1.821  0.00  0.00    +0.000 OA
ATOM     11  H6  UNL     1       0.510  -0.603   0.562  0.00  0.00    +0.000 HD
BRANCH   8  17
ATOM     12  C1  UNL     1       3.607  -0.319  -0.719  0.00  0.00    +0.000 A 
ATOM     13  C2  UNL     1       4.870  -0.896  -0.550  0.00  0.00    +0.000 A 
ATOM     14  C3  UNL     1       5.062  -1.903   0.393  0.00  0.00    +0.000 A 
ATOM     15  C4  UNL     1       3.991  -2.334   1.171  0.00  0.00    +0.000 A 
ATOM     16  C5  UNL     1       2.729  -1.758   1.002  0.00  0.00    +0.000 A 
ATOM     17  C6  UNL     1       2.527  -0.747   0.055  0.00  0.00    +0.000 A 
ENDBRANCH   8  17
ENDBRANCH   1   9
BRANCH   1  18
ATOM     18  N3  UNL     1      -1.368   0.129   0.293  0.00  0.00    +0.000 N 
ATOM     19  H12 UNL     1      -1.995   0.630   0.925  0.00  0.00    +0.000 HD
BRANCH  18  20
ATOM     20  C14 UNL     1      -1.990  -1.045  -0.164  0.00  0.00    +0.000 A 
ATOM     21  C15 UNL     1      -1.620  -1.718  -1.335  0.00  0.00    +0.000 A 
ATOM     22  C16 UNL     1      -2.220  -2.931  -1.691  0.00  0.00    +0.000 A 
ATOM     23  C17 UNL     1      -3.179  -3.508  -0.866  0.00  0.00    +0.000 A 
ATOM     24  C18 UNL     1      -3.529  -2.879   0.324  0.00  0.00    +0.000 A 
ATOM     25  C19 UNL     1      -2.927  -1.667   0.675  0.00  0.00    +0.000 A 
ENDBRANCH  18  20
ENDBRANCH   1  18
TORSDOF 5
