REMARK  Name = /home/anacleto/Desktop/manuscript_Mpro/naturecomm/supplementary_file_S2/6-chemical-library/molecular_docking/3D_ligand_structure/2589.pdb
REMARK  5 active torsions:
REMARK  status: ('A' for Active; 'I' for Inactive)
REMARK    1  A    between atoms: C3_4  and  N1_5
REMARK    2  A    between atoms: C4_6  and  C5_8
REMARK    3  A    between atoms: C5_8  and  C6_9
REMARK    4  A    between atoms: C5_8  and  N3_15
REMARK    5  A    between atoms: C11_16  and  C12_18
REMARK                            x       y       z     vdW  Elec       q    Type
REMARK                         _______ _______ _______ _____ _____    ______ ____
ROOT
ATOM      1  C5  UNL     1       0.186   0.162   0.509  0.00  0.00    +0.000 C 
ENDROOT
BRANCH   1   2
ATOM      2  C6  UNL     1      -0.071   1.339  -0.403  0.00  0.00    +0.000 A 
ATOM      3  C7  UNL     1      -0.004   2.649   0.089  0.00  0.00    +0.000 A 
ATOM      4  C8  UNL     1      -0.229   3.724  -0.766  0.00  0.00    +0.000 A 
ATOM      5  C9  UNL     1      -0.508   3.457  -2.094  0.00  0.00    +0.000 A 
ATOM      6  N2  UNL     1      -0.567   2.212  -2.611  0.00  0.00    +0.000 NA
ATOM      7  C10 UNL     1      -0.335   1.186  -1.762  0.00  0.00    +0.000 A 
ENDBRANCH   1   2
BRANCH   1   9
ATOM      8  N1  UNL     1      -2.041  -0.905   0.557  0.00  0.00    +0.000 N 
ATOM      9  C4  UNL     1      -0.719  -1.048   0.185  0.00  0.00    +0.000 C 
ATOM     10  O2  UNL     1      -0.291  -2.051  -0.387  0.00  0.00    +0.000 OA
ATOM     11  H6  UNL     1      -2.356   0.018   0.844  0.00  0.00    +0.000 HD
BRANCH   8  15
ATOM     12  C1  UNL     1      -3.752  -1.722  -1.134  0.00  0.00    +0.000 C 
ATOM     13  O1  UNL     1      -4.923  -1.168  -0.476  0.00  0.00    +0.000 OA
ATOM     14  C2  UNL     1      -4.453  -1.675   0.798  0.00  0.00    +0.000 C 
ATOM     15  C3  UNL     1      -3.055  -1.937   0.218  0.00  0.00    +0.000 C 
ENDBRANCH   8  15
ENDBRANCH   1   9
BRANCH   1  16
ATOM     16  N3  UNL     1       1.570  -0.270   0.404  0.00  0.00    +0.000 N 
ATOM     17  C11 UNL     1       2.538   0.202   1.263  0.00  0.00    +0.000 C 
ATOM     18  O3  UNL     1       2.280   1.043   2.120  0.00  0.00    +0.000 OA
ATOM     19  H12 UNL     1       1.749  -1.055  -0.209  0.00  0.00    +0.000 HD
BRANCH  17  20
ATOM     20  C12 UNL     1       3.873  -0.372   1.095  0.00  0.00    +0.000 A 
ATOM     21  C13 UNL     1       4.318  -1.238   0.116  0.00  0.00    +0.000 A 
ATOM     22  O4  UNL     1       5.634  -1.511   0.342  0.00  0.00    +0.000 OA
ATOM     23  C14 UNL     1       5.931  -0.789   1.455  0.00  0.00    +0.000 A 
ATOM     24  N4  UNL     1       4.932  -0.095   1.947  0.00  0.00    +0.000 NA
ENDBRANCH  17  20
ENDBRANCH   1  16
TORSDOF 5
