REMARK  Name = /home/anacleto/Desktop/manuscript_Mpro/naturecomm/supplementary_file_S2/6-chemical-library/molecular_docking/3D_ligand_structure/2596.pdb
REMARK  4 active torsions:
REMARK  status: ('A' for Active; 'I' for Inactive)
REMARK    1  A    between atoms: C7_7  and  N1_8
REMARK    2  A    between atoms: N1_8  and  C12_16
REMARK    3  A    between atoms: C8_9  and  C9_11
REMARK    4  A    between atoms: C12_16  and  C13_17
REMARK                            x       y       z     vdW  Elec       q    Type
REMARK                         _______ _______ _______ _____ _____    ______ ____
ROOT
ATOM      1  N1  UNL     1       0.264   0.847  -0.634  0.00  0.00    +0.000 N 
ATOM      2  C8  UNL     1       0.444   2.091  -0.008  0.00  0.00    +0.000 C 
ATOM      3  O1  UNL     1      -0.288   2.455   0.913  0.00  0.00    +0.000 OA
ENDROOT
BRANCH   1  10
ATOM      4  C1  UNL     1      -1.065  -0.591   0.961  0.00  0.00    +0.000 C 
ATOM      5  C2  UNL     1      -2.415  -0.481   1.673  0.00  0.00    +0.000 C 
ATOM      6  C3  UNL     1      -3.556  -1.268   1.037  0.00  0.00    +0.000 C 
ATOM      7  C4  UNL     1      -3.826  -0.960  -0.435  0.00  0.00    +0.000 C 
ATOM      8  C5  UNL     1      -2.763  -1.539  -1.363  0.00  0.00    +0.000 C 
ATOM      9  C6  UNL     1      -1.517  -0.678  -1.576  0.00  0.00    +0.000 C 
ATOM     10  C7  UNL     1      -1.037   0.165  -0.381  0.00  0.00    +0.000 C 
ENDBRANCH   1  10
BRANCH   2  11
ATOM     11  C9  UNL     1       1.487   2.975  -0.466  0.00  0.00    +0.000 A 
ATOM     12  C10 UNL     1       2.084   3.186  -1.694  0.00  0.00    +0.000 A 
ATOM     13  N2  UNL     1       3.023   4.184  -1.631  0.00  0.00    +0.000 NA
ATOM     14  C11 UNL     1       2.965   4.631  -0.399  0.00  0.00    +0.000 A 
ATOM     15  N3  UNL     1       2.036   3.954   0.332  0.00  0.00    +0.000 N 
ATOM     16  H16 UNL     1       1.772   4.134   1.292  0.00  0.00    +0.000 HD
ENDBRANCH   2  11
BRANCH   1  17
ATOM     17  C12 UNL     1       1.399   0.081  -1.181  0.00  0.00    +0.000 C 
BRANCH  17  18
ATOM     18  C13 UNL     1       1.898  -1.021  -0.284  0.00  0.00    +0.000 A 
ATOM     19  C14 UNL     1       2.476  -0.751   0.961  0.00  0.00    +0.000 A 
ATOM     20  C15 UNL     1       2.935  -1.799   1.753  0.00  0.00    +0.000 A 
ATOM     21  C16 UNL     1       2.810  -3.090   1.269  0.00  0.00    +0.000 A 
ATOM     22  N4  UNL     1       2.271  -3.391   0.069  0.00  0.00    +0.000 NA
ATOM     23  C17 UNL     1       1.833  -2.354  -0.678  0.00  0.00    +0.000 A 
ENDBRANCH  17  18
ENDBRANCH   1  17
TORSDOF 4
