REMARK  Name = /home/anacleto/Desktop/manuscript_Mpro/naturecomm/supplementary_file_S2/6-chemical-library/molecular_docking/3D_ligand_structure/2605.pdb
REMARK  4 active torsions:
REMARK  status: ('A' for Active; 'I' for Inactive)
REMARK    1  A    between atoms: C6_6  and  N1_7
REMARK    2  A    between atoms: N1_7  and  C10_16
REMARK    3  A    between atoms: C7_8  and  C8_10
REMARK    4  A    between atoms: C10_16  and  C11_17
REMARK                            x       y       z     vdW  Elec       q    Type
REMARK                         _______ _______ _______ _____ _____    ______ ____
ROOT
ATOM      1  N1  UNL     1       0.173  -0.321   0.813  0.00  0.00    +0.000 N 
ATOM      2  C7  UNL     1      -0.099   0.709   1.715  0.00  0.00    +0.000 C 
ATOM      3  O1  UNL     1       0.622   1.048   2.652  0.00  0.00    +0.000 OA
ENDROOT
BRANCH   2   4
ATOM      4  C8  UNL     1      -1.335   1.559   1.519  0.00  0.00    +0.000 A 
ATOM      5  N2  UNL     1      -1.649   2.095   0.370  0.00  0.00    +0.000 NA
ATOM      6  C9  UNL     1      -2.762   2.856   0.648  0.00  0.00    +0.000 A 
ATOM      7  O2  UNL     1      -3.499   3.391  -0.165  0.00  0.00    +0.000 OA
ATOM      8  N3  UNL     1      -2.970   2.883   2.019  0.00  0.00    +0.000 N 
ATOM      9  N4  UNL     1      -2.154   1.889   2.585  0.00  0.00    +0.000 N 
ATOM     10  H6  UNL     1      -3.937   2.961   2.313  0.00  0.00    +0.000 HD
ATOM     11  H7  UNL     1      -1.614   2.185   3.402  0.00  0.00    +0.000 HD
ENDBRANCH   2   4
BRANCH   1  17
ATOM     12  C1  UNL     1      -2.128  -1.154   0.487  0.00  0.00    +0.000 A 
ATOM     13  C2  UNL     1      -3.089  -1.813  -0.287  0.00  0.00    +0.000 A 
ATOM     14  C3  UNL     1      -2.756  -2.307  -1.543  0.00  0.00    +0.000 A 
ATOM     15  C4  UNL     1      -1.460  -2.147  -2.024  0.00  0.00    +0.000 A 
ATOM     16  C5  UNL     1      -0.500  -1.489  -1.249  0.00  0.00    +0.000 A 
ATOM     17  C6  UNL     1      -0.821  -0.968   0.012  0.00  0.00    +0.000 A 
ENDBRANCH   1  17
BRANCH   1  18
ATOM     18  C10 UNL     1       1.522  -0.895   0.847  0.00  0.00    +0.000 C 
BRANCH  18  19
ATOM     19  C11 UNL     1       2.502  -0.277  -0.120  0.00  0.00    +0.000 A 
ATOM     20  C12 UNL     1       3.252  -1.075  -0.992  0.00  0.00    +0.000 A 
ATOM     21  C13 UNL     1       4.174  -0.489  -1.855  0.00  0.00    +0.000 A 
ATOM     22  C14 UNL     1       4.331   0.885  -1.809  0.00  0.00    +0.000 A 
ATOM     23  N5  UNL     1       3.645   1.687  -0.971  0.00  0.00    +0.000 NA
ATOM     24  C15 UNL     1       2.751   1.092  -0.147  0.00  0.00    +0.000 A 
ENDBRANCH  18  19
ENDBRANCH   1  18
TORSDOF 4
