REMARK  Name = /home/anacleto/Desktop/manuscript_Mpro/naturecomm/supplementary_file_S2/6-chemical-library/molecular_docking/3D_ligand_structure/2606.pdb
REMARK  4 active torsions:
REMARK  status: ('A' for Active; 'I' for Inactive)
REMARK    1  A    between atoms: C6_6  and  N1_7
REMARK    2  A    between atoms: N1_7  and  C11_15
REMARK    3  A    between atoms: C7_8  and  C8_10
REMARK    4  A    between atoms: C11_15  and  C12_16
REMARK                            x       y       z     vdW  Elec       q    Type
REMARK                         _______ _______ _______ _____ _____    ______ ____
ROOT
ATOM      1  N1  UNL     1      -1.061   0.406  -0.072  0.00  0.00    +0.000 N 
ATOM      2  C7  UNL     1      -1.476   1.533  -0.824  0.00  0.00    +0.000 C 
ATOM      3  O1  UNL     1      -2.543   1.583  -1.437  0.00  0.00    +0.000 OA
ENDROOT
BRANCH   1   9
ATOM      4  C1  UNL     1      -1.459  -1.979   0.570  0.00  0.00    +0.000 A 
ATOM      5  C2  UNL     1      -1.955  -3.260   0.291  0.00  0.00    +0.000 A 
ATOM      6  C3  UNL     1      -2.597  -3.516  -0.913  0.00  0.00    +0.000 A 
ATOM      7  C4  UNL     1      -2.732  -2.493  -1.841  0.00  0.00    +0.000 A 
ATOM      8  C5  UNL     1      -2.233  -1.214  -1.560  0.00  0.00    +0.000 A 
ATOM      9  C6  UNL     1      -1.601  -0.916  -0.341  0.00  0.00    +0.000 A 
ENDBRANCH   1   9
BRANCH   2  10
ATOM     10  C8  UNL     1      -0.588   2.702  -0.879  0.00  0.00    +0.000 A 
ATOM     11  C9  UNL     1      -0.945   3.935  -1.386  0.00  0.00    +0.000 A 
ATOM     12  O2  UNL     1       0.133   4.763  -1.317  0.00  0.00    +0.000 OA
ATOM     13  C10 UNL     1       1.108   3.982  -0.782  0.00  0.00    +0.000 A 
ATOM     14  N2  UNL     1       0.744   2.751  -0.502  0.00  0.00    +0.000 NA
ENDBRANCH   2  10
BRANCH   1  15
ATOM     15  C11 UNL     1      -0.258   0.610   1.146  0.00  0.00    +0.000 C 
BRANCH  15  16
ATOM     16  C12 UNL     1       1.148   0.049   1.065  0.00  0.00    +0.000 A 
ATOM     17  C13 UNL     1       1.883  -0.023   2.323  0.00  0.00    +0.000 A 
ATOM     18  C14 UNL     1       3.132  -0.508   2.377  0.00  0.00    +0.000 A 
ATOM     19  C15 UNL     1       3.792  -0.980   1.135  0.00  0.00    +0.000 A 
ATOM     20  O3  UNL     1       4.932  -1.429   1.152  0.00  0.00    +0.000 OA
ATOM     21  N3  UNL     1       3.042  -0.878  -0.009  0.00  0.00    +0.000 N 
ATOM     22  C16 UNL     1       1.764  -0.379  -0.052  0.00  0.00    +0.000 A 
ATOM     23  H12 UNL     1       3.490  -1.195  -0.860  0.00  0.00    +0.000 HD
ENDBRANCH  15  16
ENDBRANCH   1  15
TORSDOF 4
