REMARK  Name = /home/anacleto/Desktop/manuscript_Mpro/naturecomm/supplementary_file_S2/6-chemical-library/molecular_docking/3D_ligand_structure/2611.pdb
REMARK  4 active torsions:
REMARK  status: ('A' for Active; 'I' for Inactive)
REMARK    1  A    between atoms: C6_6  and  N1_7
REMARK    2  A    between atoms: N1_7  and  C11_16
REMARK    3  A    between atoms: C7_8  and  C8_10
REMARK    4  A    between atoms: C11_16  and  C12_17
REMARK                            x       y       z     vdW  Elec       q    Type
REMARK                         _______ _______ _______ _____ _____    ______ ____
ROOT
ATOM      1  N1  UNL     1      -0.617  -0.114  -0.034  0.00  0.00    +0.000 N 
ATOM      2  C7  UNL     1      -1.305   0.659  -0.980  0.00  0.00    +0.000 C 
ATOM      3  O1  UNL     1      -1.526   0.323  -2.142  0.00  0.00    +0.000 OA
ENDROOT
BRANCH   2   4
ATOM      4  C8  UNL     1      -1.817   1.971  -0.506  0.00  0.00    +0.000 A 
ATOM      5  C9  UNL     1      -2.026   3.058  -1.263  0.00  0.00    +0.000 A 
ATOM      6  N2  UNL     1      -2.547   4.048  -0.467  0.00  0.00    +0.000 N 
ATOM      7  C10 UNL     1      -2.702   3.559   0.837  0.00  0.00    +0.000 A 
ATOM      8  O2  UNL     1      -3.156   4.140   1.803  0.00  0.00    +0.000 OA
ATOM      9  N3  UNL     1      -2.224   2.246   0.781  0.00  0.00    +0.000 N 
ATOM     10  H7  UNL     1      -2.829   4.974  -0.753  0.00  0.00    +0.000 HD
ATOM     11  H8  UNL     1      -2.267   1.597   1.550  0.00  0.00    +0.000 HD
ENDBRANCH   2   4
BRANCH   1  17
ATOM     12  C1  UNL     1      -1.720  -2.214  -0.771  0.00  0.00    +0.000 A 
ATOM     13  C2  UNL     1      -1.849  -3.608  -0.756  0.00  0.00    +0.000 A 
ATOM     14  C3  UNL     1      -0.986  -4.382   0.008  0.00  0.00    +0.000 A 
ATOM     15  C4  UNL     1       0.001  -3.760   0.761  0.00  0.00    +0.000 A 
ATOM     16  C5  UNL     1       0.128  -2.364   0.745  0.00  0.00    +0.000 A 
ATOM     17  C6  UNL     1      -0.719  -1.557  -0.034  0.00  0.00    +0.000 A 
ENDBRANCH   1  17
BRANCH   1  18
ATOM     18  C11 UNL     1       0.413   0.537   0.794  0.00  0.00    +0.000 C 
BRANCH  18  19
ATOM     19  C12 UNL     1       1.837   0.395   0.304  0.00  0.00    +0.000 A 
ATOM     20  C13 UNL     1       2.899   0.520   1.210  0.00  0.00    +0.000 A 
ATOM     21  C14 UNL     1       4.213   0.435   0.760  0.00  0.00    +0.000 A 
ATOM     22  C15 UNL     1       4.431   0.242  -0.592  0.00  0.00    +0.000 A 
ATOM     23  N4  UNL     1       3.439   0.133  -1.499  0.00  0.00    +0.000 NA
ATOM     24  C16 UNL     1       2.169   0.212  -1.035  0.00  0.00    +0.000 A 
ENDBRANCH  18  19
ENDBRANCH   1  18
TORSDOF 4
