REMARK  Name = /home/anacleto/Desktop/manuscript_Mpro/naturecomm/supplementary_file_S2/6-chemical-library/molecular_docking/3D_ligand_structure/2615.pdb
REMARK  5 active torsions:
REMARK  status: ('A' for Active; 'I' for Inactive)
REMARK    1  A    between atoms: C5_6  and  C6_7
REMARK    2  A    between atoms: C6_7  and  N2_8
REMARK    3  A    between atoms: N2_8  and  C12_16
REMARK    4  A    between atoms: C7_9  and  C8_11
REMARK    5  A    between atoms: C12_16  and  C13_17
REMARK                            x       y       z     vdW  Elec       q    Type
REMARK                         _______ _______ _______ _____ _____    ______ ____
ROOT
ATOM      1  N2  UNL     1      -0.502  -0.100   0.822  0.00  0.00    +0.000 N 
ATOM      2  C7  UNL     1      -0.920  -0.939   1.864  0.00  0.00    +0.000 C 
ATOM      3  O1  UNL     1      -0.712  -0.629   3.039  0.00  0.00    +0.000 OA
ENDROOT
BRANCH   2   4
ATOM      4  C8  UNL     1      -1.631  -2.165   1.539  0.00  0.00    +0.000 A 
ATOM      5  C9  UNL     1      -1.804  -3.320   2.282  0.00  0.00    +0.000 A 
ATOM      6  C10 UNL     1      -2.635  -4.178   1.524  0.00  0.00    +0.000 A 
ATOM      7  C11 UNL     1      -2.945  -3.490   0.376  0.00  0.00    +0.000 A 
ATOM      8  O2  UNL     1      -2.356  -2.267   0.380  0.00  0.00    +0.000 OA
ENDBRANCH   2   4
BRANCH   1   9
ATOM      9  C6  UNL     1      -0.072   1.251   1.188  0.00  0.00    +0.000 C 
BRANCH   9  15
ATOM     10  C1  UNL     1       0.437   3.128  -0.417  0.00  0.00    +0.000 A 
ATOM     11  N1  UNL     1       0.123   4.096  -1.309  0.00  0.00    +0.000 NA
ATOM     12  C2  UNL     1      -1.187   4.266  -1.584  0.00  0.00    +0.000 A 
ATOM     13  C3  UNL     1      -2.198   3.513  -1.011  0.00  0.00    +0.000 A 
ATOM     14  C4  UNL     1      -1.846   2.521  -0.102  0.00  0.00    +0.000 A 
ATOM     15  C5  UNL     1      -0.498   2.308   0.205  0.00  0.00    +0.000 A 
ENDBRANCH   9  15
ENDBRANCH   1   9
BRANCH   1  16
ATOM     16  C12 UNL     1      -0.107  -0.620  -0.496  0.00  0.00    +0.000 C 
BRANCH  16  17
ATOM     17  C13 UNL     1       1.388  -0.572  -0.736  0.00  0.00    +0.000 A 
ATOM     18  C14 UNL     1       2.268  -1.293   0.084  0.00  0.00    +0.000 A 
ATOM     19  C15 UNL     1       3.645  -1.244  -0.140  0.00  0.00    +0.000 A 
ATOM     20  C16 UNL     1       4.155  -0.481  -1.188  0.00  0.00    +0.000 A 
ATOM     21  C17 UNL     1       3.290   0.232  -2.015  0.00  0.00    +0.000 A 
ATOM     22  C18 UNL     1       1.913   0.184  -1.794  0.00  0.00    +0.000 A 
ENDBRANCH  16  17
ENDBRANCH   1  16
TORSDOF 5
