REMARK  Name = /home/anacleto/Desktop/manuscript_Mpro/naturecomm/supplementary_file_S2/6-chemical-library/molecular_docking/3D_ligand_structure/2625.pdb
REMARK  4 active torsions:
REMARK  status: ('A' for Active; 'I' for Inactive)
REMARK    1  A    between atoms: C6_6  and  N1_7
REMARK    2  A    between atoms: N1_7  and  C11_15
REMARK    3  A    between atoms: C7_8  and  C8_10
REMARK    4  A    between atoms: C11_15  and  C12_16
REMARK                            x       y       z     vdW  Elec       q    Type
REMARK                         _______ _______ _______ _____ _____    ______ ____
ROOT
ATOM      1  N1  UNL     1      -0.081   0.574  -0.827  0.00  0.00    +0.000 N 
ATOM      2  C7  UNL     1       0.335   1.880  -0.505  0.00  0.00    +0.000 C 
ATOM      3  O1  UNL     1      -0.472   2.787  -0.289  0.00  0.00    +0.000 OA
ENDROOT
BRANCH   1   9
ATOM      4  C1  UNL     1       0.614  -1.726  -1.367  0.00  0.00    +0.000 A 
ATOM      5  C2  UNL     1       1.319  -2.893  -1.057  0.00  0.00    +0.000 A 
ATOM      6  C3  UNL     1       2.092  -2.956   0.098  0.00  0.00    +0.000 A 
ATOM      7  C4  UNL     1       2.162  -1.853   0.944  0.00  0.00    +0.000 A 
ATOM      8  C5  UNL     1       1.459  -0.685   0.633  0.00  0.00    +0.000 A 
ATOM      9  C6  UNL     1       0.680  -0.603  -0.530  0.00  0.00    +0.000 A 
ENDBRANCH   1   9
BRANCH   2  10
ATOM     10  C8  UNL     1       1.780   2.186  -0.525  0.00  0.00    +0.000 A 
ATOM     11  C9  UNL     1       2.320   3.296   0.106  0.00  0.00    +0.000 A 
ATOM     12  S1  UNL     1       4.015   3.366  -0.137  0.00  0.00    +0.000 S 
ATOM     13  C10 UNL     1       3.915   1.949  -1.093  0.00  0.00    +0.000 A 
ATOM     14  N2  UNL     1       2.716   1.433  -1.239  0.00  0.00    +0.000 NA
ENDBRANCH   2  10
BRANCH   1  15
ATOM     15  C11 UNL     1      -1.490   0.399  -1.191  0.00  0.00    +0.000 C 
BRANCH  15  16
ATOM     16  C12 UNL     1      -2.367  -0.008  -0.034  0.00  0.00    +0.000 A 
ATOM     17  C13 UNL     1      -2.908   0.934   0.846  0.00  0.00    +0.000 A 
ATOM     18  C14 UNL     1      -3.710   0.516   1.904  0.00  0.00    +0.000 A 
ATOM     19  C15 UNL     1      -3.947  -0.840   2.051  0.00  0.00    +0.000 A 
ATOM     20  N3  UNL     1      -3.443  -1.782   1.227  0.00  0.00    +0.000 NA
ATOM     21  C16 UNL     1      -2.662  -1.346   0.212  0.00  0.00    +0.000 A 
ENDBRANCH  15  16
ENDBRANCH   1  15
TORSDOF 4
