REMARK  Name = /home/anacleto/Desktop/manuscript_Mpro/naturecomm/supplementary_file_S2/6-chemical-library/molecular_docking/3D_ligand_structure/2637.pdb
REMARK  5 active torsions:
REMARK  status: ('A' for Active; 'I' for Inactive)
REMARK    1  A    between atoms: C3_4  and  N2_5
REMARK    2  A    between atoms: C4_6  and  C5_8
REMARK    3  A    between atoms: C5_8  and  C6_9
REMARK    4  A    between atoms: C5_8  and  N4_15
REMARK    5  A    between atoms: N4_15  and  C11_16
REMARK                            x       y       z     vdW  Elec       q    Type
REMARK                         _______ _______ _______ _____ _____    ______ ____
ROOT
ATOM      1  C5  UNL     1      -0.196   1.094  -0.433  0.00  0.00    +0.000 C 
ENDROOT
BRANCH   1   2
ATOM      2  C6  UNL     1      -0.110   2.611  -0.517  0.00  0.00    +0.000 A 
ATOM      3  C7  UNL     1      -1.036   3.356  -1.265  0.00  0.00    +0.000 A 
ATOM      4  C8  UNL     1      -0.897   4.736  -1.386  0.00  0.00    +0.000 A 
ATOM      5  C9  UNL     1       0.184   5.341  -0.772  0.00  0.00    +0.000 A 
ATOM      6  N3  UNL     1       1.117   4.666  -0.070  0.00  0.00    +0.000 NA
ATOM      7  C10 UNL     1       0.950   3.326   0.040  0.00  0.00    +0.000 A 
ENDBRANCH   1   2
BRANCH   1   9
ATOM      8  N2  UNL     1       1.026  -0.766   0.652  0.00  0.00    +0.000 N 
ATOM      9  C4  UNL     1       0.454   0.482   0.846  0.00  0.00    +0.000 C 
ATOM     10  O1  UNL     1       0.435   1.023   1.950  0.00  0.00    +0.000 OA
ATOM     11  H7  UNL     1       0.770  -1.257  -0.200  0.00  0.00    +0.000 HD
BRANCH   8  15
ATOM     12  C1  UNL     1       2.956  -1.031   2.306  0.00  0.00    +0.000 C 
ATOM     13  N1  UNL     1       3.411  -2.441   2.385  0.00  0.00    +0.000 NA
ATOM     14  C2  UNL     1       2.379  -2.799   1.385  0.00  0.00    +0.000 C 
ATOM     15  C3  UNL     1       1.594  -1.532   1.781  0.00  0.00    +0.000 C 
ATOM     16  H3  UNL     1       3.245  -2.857   3.303  0.00  0.00    +0.000 HD
ENDBRANCH   8  15
ENDBRANCH   1   9
BRANCH   1  17
ATOM     17  N4  UNL     1      -1.618   0.667  -0.477  0.00  0.00    +0.000 N 
ATOM     18  H13 UNL     1      -2.063   0.895   0.412  0.00  0.00    +0.000 HD
BRANCH  17  19
ATOM     19  C11 UNL     1      -1.858  -0.661  -0.857  0.00  0.00    +0.000 A 
ATOM     20  C12 UNL     1      -1.421  -1.159  -2.091  0.00  0.00    +0.000 A 
ATOM     21  C13 UNL     1      -1.642  -2.493  -2.443  0.00  0.00    +0.000 A 
ATOM     22  C14 UNL     1      -2.311  -3.344  -1.568  0.00  0.00    +0.000 A 
ATOM     23  C15 UNL     1      -2.769  -2.858  -0.346  0.00  0.00    +0.000 A 
ATOM     24  C16 UNL     1      -2.548  -1.523   0.004  0.00  0.00    +0.000 A 
ENDBRANCH  17  19
ENDBRANCH   1  17
TORSDOF 5
