REMARK  Name = /home/anacleto/Desktop/manuscript_Mpro/naturecomm/supplementary_file_S2/6-chemical-library/molecular_docking/3D_ligand_structure/2638.pdb
REMARK  4 active torsions:
REMARK  status: ('A' for Active; 'I' for Inactive)
REMARK    1  A    between atoms: C6_6  and  N1_7
REMARK    2  A    between atoms: N1_7  and  C12_15
REMARK    3  A    between atoms: C7_8  and  C8_10
REMARK    4  A    between atoms: C12_15  and  C13_16
REMARK                            x       y       z     vdW  Elec       q    Type
REMARK                         _______ _______ _______ _____ _____    ______ ____
ROOT
ATOM      1  N1  UNL     1      -0.152  -0.512   0.305  0.00  0.00    +0.000 N 
ATOM      2  C7  UNL     1       0.965  -1.221  -0.155  0.00  0.00    +0.000 C 
ATOM      3  O1  UNL     1       0.917  -2.444  -0.330  0.00  0.00    +0.000 OA
ENDROOT
BRANCH   1   9
ATOM      4  C1  UNL     1      -0.060   1.544  -1.033  0.00  0.00    +0.000 A 
ATOM      5  C2  UNL     1      -0.250   2.923  -1.154  0.00  0.00    +0.000 A 
ATOM      6  C3  UNL     1      -0.707   3.663  -0.066  0.00  0.00    +0.000 A 
ATOM      7  C4  UNL     1      -0.984   3.024   1.141  0.00  0.00    +0.000 A 
ATOM      8  C5  UNL     1      -0.798   1.645   1.261  0.00  0.00    +0.000 A 
ATOM      9  C6  UNL     1      -0.315   0.896   0.181  0.00  0.00    +0.000 A 
ENDBRANCH   1   9
BRANCH   2  10
ATOM     10  C8  UNL     1       2.302  -0.449  -0.321  0.00  0.00    +0.000 C 
ATOM     11  C9  UNL     1       2.781   0.136   1.007  0.00  0.00    +0.000 C 
ATOM     12  C10 UNL     1       4.271  -0.097   0.980  0.00  0.00    +0.000 C 
ATOM     13  C11 UNL     1       4.365  -1.395   0.219  0.00  0.00    +0.000 C 
ATOM     14  O2  UNL     1       3.361  -1.307  -0.794  0.00  0.00    +0.000 OA
ENDBRANCH   2  10
BRANCH   1  15
ATOM     15  C12 UNL     1      -1.340  -1.287   0.689  0.00  0.00    +0.000 C 
BRANCH  15  16
ATOM     16  C13 UNL     1      -2.351  -1.404  -0.423  0.00  0.00    +0.000 A 
ATOM     17  C14 UNL     1      -3.430  -0.520  -0.528  0.00  0.00    +0.000 A 
ATOM     18  C15 UNL     1      -4.333  -0.653  -1.578  0.00  0.00    +0.000 A 
ATOM     19  C16 UNL     1      -4.128  -1.669  -2.495  0.00  0.00    +0.000 A 
ATOM     20  N2  UNL     1      -3.098  -2.538  -2.432  0.00  0.00    +0.000 NA
ATOM     21  C17 UNL     1      -2.231  -2.383  -1.404  0.00  0.00    +0.000 A 
ENDBRANCH  15  16
ENDBRANCH   1  15
TORSDOF 4
