REMARK  Name = /home/anacleto/Desktop/manuscript_Mpro/naturecomm/supplementary_file_S2/6-chemical-library/molecular_docking/3D_ligand_structure/264.pdb
REMARK  0 active torsions:
REMARK  status: ('A' for Active; 'I' for Inactive)
REMARK                            x       y       z     vdW  Elec       q    Type
REMARK                         _______ _______ _______ _____ _____    ______ ____
ROOT
ATOM      1  C1  UNL     1      -2.165  -0.402  -0.053  0.00  0.00    +0.000 C 
ATOM      2  C2  UNL     1      -1.716   1.077  -0.261  0.00  0.00    +0.000 C 
ATOM      3  O1  UNL     1      -2.227   2.131  -0.549  0.00  0.00    +0.000 OA
ATOM      4  N1  UNL     1      -0.440   0.703  -0.055  0.00  0.00    +0.000 N 
ATOM      5  C3  UNL     1      -0.719  -0.624   0.444  0.00  0.00    +0.000 C 
ATOM      6  C4  UNL     1       0.793   1.234  -0.158  0.00  0.00    +0.000 C 
ATOM      7  C5  UNL     1       1.881   0.453  -0.091  0.00  0.00    +0.000 C 
ATOM      8  C6  UNL     1       1.874  -1.050   0.031  0.00  0.00    +0.000 C 
ATOM      9  S1  UNL     1       0.290  -1.811  -0.477  0.00  0.00    +0.000 S 
ENDROOT
TORSDOF 0
