REMARK  Name = /home/anacleto/Desktop/manuscript_Mpro/naturecomm/supplementary_file_S2/6-chemical-library/molecular_docking/3D_ligand_structure/2667.pdb
REMARK  4 active torsions:
REMARK  status: ('A' for Active; 'I' for Inactive)
REMARK    1  A    between atoms: C6_6  and  N1_7
REMARK    2  A    between atoms: N1_7  and  C12_15
REMARK    3  A    between atoms: C7_8  and  C8_10
REMARK    4  A    between atoms: C12_15  and  C13_16
REMARK                            x       y       z     vdW  Elec       q    Type
REMARK                         _______ _______ _______ _____ _____    ______ ____
ROOT
ATOM      1  N1  UNL     1      -0.104   0.239  -0.896  0.00  0.00    +0.000 N 
ATOM      2  C7  UNL     1      -0.282   1.637  -1.003  0.00  0.00    +0.000 C 
ATOM      3  O1  UNL     1       0.592   2.339  -1.518  0.00  0.00    +0.000 OA
ENDROOT
BRANCH   1   9
ATOM      4  C1  UNL     1      -0.887  -0.051   1.425  0.00  0.00    +0.000 A 
ATOM      5  C2  UNL     1      -1.443  -0.845   2.432  0.00  0.00    +0.000 A 
ATOM      6  C3  UNL     1      -1.806  -2.161   2.163  0.00  0.00    +0.000 A 
ATOM      7  C4  UNL     1      -1.609  -2.686   0.888  0.00  0.00    +0.000 A 
ATOM      8  C5  UNL     1      -1.051  -1.894  -0.118  0.00  0.00    +0.000 A 
ATOM      9  C6  UNL     1      -0.693  -0.562   0.134  0.00  0.00    +0.000 A 
ENDBRANCH   1   9
BRANCH   2  10
ATOM     10  C8  UNL     1      -1.559   2.209  -0.591  0.00  0.00    +0.000 A 
ATOM     11  C9  UNL     1      -2.849   1.707  -0.513  0.00  0.00    +0.000 A 
ATOM     12  C10 UNL     1      -3.679   2.764  -0.066  0.00  0.00    +0.000 A 
ATOM     13  C11 UNL     1      -2.858   3.854   0.085  0.00  0.00    +0.000 A 
ATOM     14  O2  UNL     1      -1.580   3.534  -0.237  0.00  0.00    +0.000 OA
ENDBRANCH   2  10
BRANCH   1  15
ATOM     15  C12 UNL     1       1.013  -0.344  -1.652  0.00  0.00    +0.000 C 
BRANCH  15  16
ATOM     16  C13 UNL     1       2.267  -0.530  -0.835  0.00  0.00    +0.000 A 
ATOM     17  C14 UNL     1       2.584  -1.757  -0.243  0.00  0.00    +0.000 A 
ATOM     18  C15 UNL     1       3.747  -1.884   0.511  0.00  0.00    +0.000 A 
ATOM     19  C16 UNL     1       4.562  -0.774   0.651  0.00  0.00    +0.000 A 
ATOM     20  N2  UNL     1       4.293   0.426   0.098  0.00  0.00    +0.000 NA
ATOM     21  C17 UNL     1       3.153   0.524  -0.626  0.00  0.00    +0.000 A 
ENDBRANCH  15  16
ENDBRANCH   1  15
TORSDOF 4
