REMARK  Name = /home/anacleto/Desktop/manuscript_Mpro/naturecomm/supplementary_file_S2/6-chemical-library/molecular_docking/3D_ligand_structure/2670.pdb
REMARK  3 active torsions:
REMARK  status: ('A' for Active; 'I' for Inactive)
REMARK    1  A    between atoms: C4_5  and  C5_6
REMARK    2  A    between atoms: N1_8  and  C9_14
REMARK    3  A    between atoms: C9_14  and  C10_15
REMARK                            x       y       z     vdW  Elec       q    Type
REMARK                         _______ _______ _______ _____ _____    ______ ____
ROOT
ATOM      1  C5  UNL     1       2.001   0.510  -0.286  0.00  0.00    +0.000 C 
ATOM      2  O2  UNL     1       2.960   1.283  -0.339  0.00  0.00    +0.000 OA
ATOM      3  N1  UNL     1       0.670   0.931  -0.486  0.00  0.00    +0.000 N 
ATOM      4  C6  UNL     1       0.355   2.286  -0.327  0.00  0.00    +0.000 A 
ATOM      5  N2  UNL     1      -0.689   2.863  -0.888  0.00  0.00    +0.000 NA
ATOM      6  C7  UNL     1      -0.777   4.182  -0.491  0.00  0.00    +0.000 A 
ATOM      7  C8  UNL     1       0.170   4.590   0.420  0.00  0.00    +0.000 A 
ATOM      8  S1  UNL     1       1.201   3.277   0.795  0.00  0.00    +0.000 S 
ENDROOT
BRANCH   1  13
ATOM      9  O1  UNL     1       1.256  -1.738   0.378  0.00  0.00    +0.000 OA
ATOM     10  C1  UNL     1       1.792  -2.972   0.548  0.00  0.00    +0.000 A 
ATOM     11  C2  UNL     1       3.132  -2.958   0.248  0.00  0.00    +0.000 A 
ATOM     12  C3  UNL     1       3.433  -1.626  -0.126  0.00  0.00    +0.000 A 
ATOM     13  C4  UNL     1       2.252  -0.907  -0.051  0.00  0.00    +0.000 A 
ENDBRANCH   1  13
BRANCH   3  14
ATOM     14  C9  UNL     1      -0.277   0.079  -1.225  0.00  0.00    +0.000 C 
BRANCH  14  15
ATOM     15  C10 UNL     1      -1.350  -0.581  -0.391  0.00  0.00    +0.000 A 
ATOM     16  C11 UNL     1      -2.084   0.087   0.593  0.00  0.00    +0.000 A 
ATOM     17  C12 UNL     1      -3.083  -0.585   1.294  0.00  0.00    +0.000 A 
ATOM     18  C13 UNL     1      -3.330  -1.910   0.980  0.00  0.00    +0.000 A 
ATOM     19  N3  UNL     1      -2.662  -2.589   0.026  0.00  0.00    +0.000 NA
ATOM     20  C14 UNL     1      -1.697  -1.909  -0.636  0.00  0.00    +0.000 A 
ENDBRANCH  14  15
ENDBRANCH   3  14
TORSDOF 3
