REMARK  Name = /home/anacleto/Desktop/manuscript_Mpro/naturecomm/supplementary_file_S2/6-chemical-library/molecular_docking/3D_ligand_structure/2672.pdb
REMARK  4 active torsions:
REMARK  status: ('A' for Active; 'I' for Inactive)
REMARK    1  A    between atoms: C3_5  and  C4_6
REMARK    2  A    between atoms: N3_8  and  C5_9
REMARK    3  A    between atoms: N3_8  and  C9_14
REMARK    4  A    between atoms: C9_14  and  C10_15
REMARK                            x       y       z     vdW  Elec       q    Type
REMARK                         _______ _______ _______ _____ _____    ______ ____
ROOT
ATOM      1  C4  UNL     1       1.287   1.511  -0.460  0.00  0.00    +0.000 C 
ATOM      2  O1  UNL     1       2.178   1.277  -1.274  0.00  0.00    +0.000 OA
ATOM      3  N3  UNL     1       0.813   0.510   0.409  0.00  0.00    +0.000 N 
ENDROOT
BRANCH   1   8
ATOM      4  N1  UNL     1       0.498   3.527   0.825  0.00  0.00    +0.000 N 
ATOM      5  C1  UNL     1       0.001   4.754   0.494  0.00  0.00    +0.000 A 
ATOM      6  N2  UNL     1      -0.070   4.907  -0.807  0.00  0.00    +0.000 NA
ATOM      7  C2  UNL     1       0.417   3.738  -1.334  0.00  0.00    +0.000 A 
ATOM      8  C3  UNL     1       0.728   2.832  -0.340  0.00  0.00    +0.000 A 
ATOM      9  H1  UNL     1       0.687   3.195   1.760  0.00  0.00    +0.000 HD
ENDBRANCH   1   8
BRANCH   3  10
ATOM     10  C5  UNL     1       1.610  -0.734   0.422  0.00  0.00    +0.000 C 
ATOM     11  C6  UNL     1       1.409  -1.686   1.601  0.00  0.00    +0.000 C 
ATOM     12  C7  UNL     1       1.751  -3.041   1.011  0.00  0.00    +0.000 C 
ATOM     13  N4  UNL     1       1.187  -2.994  -0.339  0.00  0.00    +0.000 NA
ATOM     14  C8  UNL     1       1.472  -1.632  -0.827  0.00  0.00    +0.000 C 
ATOM     15  H9  UNL     1       0.172  -3.107  -0.286  0.00  0.00    +0.000 HD
ENDBRANCH   3  10
BRANCH   3  16
ATOM     16  C9  UNL     1      -0.584   0.497   0.879  0.00  0.00    +0.000 C 
BRANCH  16  17
ATOM     17  C10 UNL     1      -1.519  -0.332   0.041  0.00  0.00    +0.000 A 
ATOM     18  C11 UNL     1      -1.806  -0.005  -1.289  0.00  0.00    +0.000 A 
ATOM     19  C12 UNL     1      -2.673  -0.805  -2.027  0.00  0.00    +0.000 A 
ATOM     20  C13 UNL     1      -3.238  -1.906  -1.408  0.00  0.00    +0.000 A 
ATOM     21  N5  UNL     1      -3.002  -2.244  -0.122  0.00  0.00    +0.000 NA
ATOM     22  C14 UNL     1      -2.160  -1.447   0.571  0.00  0.00    +0.000 A 
ENDBRANCH  16  17
ENDBRANCH   3  16
TORSDOF 4
