REMARK  Name = /home/anacleto/Desktop/manuscript_Mpro/naturecomm/supplementary_file_S2/6-chemical-library/molecular_docking/3D_ligand_structure/2694.pdb
REMARK  7 active torsions:
REMARK  status: ('A' for Active; 'I' for Inactive)
REMARK    1  A    between atoms: C6_6  and  C7_7
REMARK    2  A    between atoms: C7_7  and  C8_8
REMARK    3  A    between atoms: C8_8  and  N1_9
REMARK    4  A    between atoms: C9_10  and  C10_12
REMARK    5  A    between atoms: C10_12  and  N2_13
REMARK    6  A    between atoms: C11_14  and  C12_16
REMARK    7  A    between atoms: C14_20  and  C15_21
REMARK                            x       y       z     vdW  Elec       q    Type
REMARK                         _______ _______ _______ _____ _____    ______ ____
ROOT
ATOM      1  N2  UNL     1       0.445   1.659  -2.473  0.00  0.00    +0.000 N 
ATOM      2  C11 UNL     1      -0.054   0.396  -2.292  0.00  0.00    +0.000 C 
ATOM      3  O2  UNL     1       0.517  -0.597  -2.736  0.00  0.00    +0.000 OA
ATOM      4  H13 UNL     1       0.032   2.437  -1.978  0.00  0.00    +0.000 HD
ENDROOT
BRANCH   2   5
ATOM      5  C12 UNL     1      -1.260   0.306  -1.517  0.00  0.00    +0.000 A 
ATOM      6  N3  UNL     1      -1.877  -0.892  -1.287  0.00  0.00    +0.000 N 
ATOM      7  N4  UNL     1      -2.987  -0.810  -0.538  0.00  0.00    +0.000 NA
ATOM      8  C13 UNL     1      -2.043   1.232  -0.859  0.00  0.00    +0.000 A 
ATOM      9  C14 UNL     1      -3.113   0.502  -0.261  0.00  0.00    +0.000 A 
ATOM     10  H14 UNL     1      -1.575  -1.803  -1.620  0.00  0.00    +0.000 HD
BRANCH   9  11
ATOM     11  C15 UNL     1      -4.169   1.100   0.590  0.00  0.00    +0.000 C 
ATOM     12  O3  UNL     1      -4.030   2.256   0.998  0.00  0.00    +0.000 OA
ATOM     13  N5  UNL     1      -5.303   0.360   0.930  0.00  0.00    +0.000 N 
ATOM     14  C16 UNL     1      -6.228   0.897   1.927  0.00  0.00    +0.000 C 
ATOM     15  C17 UNL     1      -6.893  -0.238   2.712  0.00  0.00    +0.000 C 
ATOM     16  O4  UNL     1      -7.618  -1.167   1.892  0.00  0.00    +0.000 OA
ATOM     17  C18 UNL     1      -7.195  -1.189   0.523  0.00  0.00    +0.000 C 
ATOM     18  C19 UNL     1      -5.695  -0.925   0.342  0.00  0.00    +0.000 C 
ENDBRANCH   9  11
ENDBRANCH   2   5
BRANCH   1  19
ATOM     19  C10 UNL     1       1.651   1.918  -3.247  0.00  0.00    +0.000 C 
BRANCH  19  21
ATOM     20  N1  UNL     1       2.997   0.579  -1.692  0.00  0.00    +0.000 N 
ATOM     21  C9  UNL     1       2.945   1.736  -2.443  0.00  0.00    +0.000 C 
ATOM     22  O1  UNL     1       3.887   2.516  -2.548  0.00  0.00    +0.000 OA
ATOM     23  H10 UNL     1       2.349  -0.153  -1.980  0.00  0.00    +0.000 HD
BRANCH  20  24
ATOM     24  C8  UNL     1       4.215   0.168  -1.020  0.00  0.00    +0.000 C 
BRANCH  24  25
ATOM     25  C7  UNL     1       3.911  -0.755   0.159  0.00  0.00    +0.000 C 
BRANCH  25  31
ATOM     26  C1  UNL     1       5.829  -0.380   1.756  0.00  0.00    +0.000 A 
ATOM     27  C2  UNL     1       6.989  -0.810   2.401  0.00  0.00    +0.000 A 
ATOM     28  C3  UNL     1       7.493  -2.086   2.155  0.00  0.00    +0.000 A 
ATOM     29  C4  UNL     1       6.838  -2.932   1.261  0.00  0.00    +0.000 A 
ATOM     30  C5  UNL     1       5.679  -2.503   0.613  0.00  0.00    +0.000 A 
ATOM     31  C6  UNL     1       5.160  -1.224   0.859  0.00  0.00    +0.000 A 
ENDBRANCH  25  31
ENDBRANCH  24  25
ENDBRANCH  20  24
ENDBRANCH  19  21
ENDBRANCH   1  19
TORSDOF 7
