REMARK  Name = /home/anacleto/Desktop/manuscript_Mpro/naturecomm/supplementary_file_S2/6-chemical-library/molecular_docking/3D_ligand_structure/27.pdb
REMARK  0 active torsions:
REMARK  status: ('A' for Active; 'I' for Inactive)
REMARK                            x       y       z     vdW  Elec       q    Type
REMARK                         _______ _______ _______ _____ _____    ______ ____
ROOT
ATOM      1  C1  UNL     1       1.840   0.256  -0.262  0.00  0.00    +0.000 C 
ATOM      2  C2  UNL     1       0.505   0.213  -0.253  0.00  0.00    +0.000 C 
ATOM      3  C3  UNL     1      -0.305  -1.042  -0.277  0.00  0.00    +0.000 C 
ATOM      4  O1  UNL     1       0.187  -2.160  -0.307  0.00  0.00    +0.000 OA
ATOM      5  N1  UNL     1      -1.657  -0.769  -0.262  0.00  0.00    +0.000 NA
ATOM      6  C4  UNL     1      -1.907   0.497  -0.230  0.00  0.00    +0.000 C 
ATOM      7  S1  UNL     1      -0.535   1.577  -0.214  0.00  0.00    +0.000 S 
ENDROOT
TORSDOF 0
