REMARK  Name = /home/anacleto/Desktop/manuscript_Mpro/naturecomm/supplementary_file_S2/6-chemical-library/molecular_docking/3D_ligand_structure/2700.pdb
REMARK  6 active torsions:
REMARK  status: ('A' for Active; 'I' for Inactive)
REMARK    1  A    between atoms: C6_6  and  C7_7
REMARK    2  A    between atoms: C7_7  and  C8_8
REMARK    3  A    between atoms: C8_8  and  N1_9
REMARK    4  A    between atoms: C9_10  and  C10_12
REMARK    5  A    between atoms: C10_12  and  N2_13
REMARK    6  A    between atoms: C11_14  and  C12_16
REMARK                            x       y       z     vdW  Elec       q    Type
REMARK                         _______ _______ _______ _____ _____    ______ ____
ROOT
ATOM      1  N2  UNL     1       0.614  -0.596   2.061  0.00  0.00    +0.000 N 
ATOM      2  C11 UNL     1       0.736  -1.799   1.407  0.00  0.00    +0.000 C 
ATOM      3  O2  UNL     1      -0.092  -2.700   1.502  0.00  0.00    +0.000 OA
ATOM      4  H13 UNL     1       1.339   0.093   1.885  0.00  0.00    +0.000 HD
ENDROOT
BRANCH   2   5
ATOM      5  C12 UNL     1       1.945  -1.918   0.535  0.00  0.00    +0.000 A 
ATOM      6  C13 UNL     1       2.172  -3.084  -0.152  0.00  0.00    +0.000 A 
ATOM      7  C14 UNL     1       3.310  -3.077  -0.906  0.00  0.00    +0.000 A 
ATOM      8  N3  UNL     1       4.143  -2.022  -0.976  0.00  0.00    +0.000 NA
ATOM      9  C15 UNL     1       3.842  -0.914  -0.275  0.00  0.00    +0.000 A 
ATOM     10  N4  UNL     1       2.751  -0.829   0.493  0.00  0.00    +0.000 NA
ATOM     11  N5  UNL     1       4.709   0.155  -0.321  0.00  0.00    +0.000 N 
ATOM     12  C16 UNL     1       4.243   1.490   0.065  0.00  0.00    +0.000 C 
ATOM     13  C17 UNL     1       4.559   2.501  -1.049  0.00  0.00    +0.000 C 
ATOM     14  O3  UNL     1       5.953   2.586  -1.383  0.00  0.00    +0.000 OA
ATOM     15  C18 UNL     1       6.671   1.362  -1.162  0.00  0.00    +0.000 C 
ATOM     16  C19 UNL     1       5.799   0.103  -1.299  0.00  0.00    +0.000 C 
ENDBRANCH   2   5
BRANCH   1  17
ATOM     17  C10 UNL     1      -0.433  -0.308   3.025  0.00  0.00    +0.000 C 
BRANCH  17  19
ATOM     18  N1  UNL     1      -2.219  -0.744   1.403  0.00  0.00    +0.000 N 
ATOM     19  C9  UNL     1      -1.760   0.111   2.382  0.00  0.00    +0.000 C 
ATOM     20  O1  UNL     1      -2.400   1.080   2.781  0.00  0.00    +0.000 OA
ATOM     21  H10 UNL     1      -1.727  -1.631   1.295  0.00  0.00    +0.000 HD
BRANCH  18  22
ATOM     22  C8  UNL     1      -3.523  -0.592   0.790  0.00  0.00    +0.000 C 
BRANCH  22  23
ATOM     23  C7  UNL     1      -3.570   0.563  -0.212  0.00  0.00    +0.000 C 
BRANCH  23  29
ATOM     24  C1  UNL     1      -5.071   0.087  -2.190  0.00  0.00    +0.000 A 
ATOM     25  C2  UNL     1      -6.313   0.140  -2.825  0.00  0.00    +0.000 A 
ATOM     26  C3  UNL     1      -7.399   0.739  -2.188  0.00  0.00    +0.000 A 
ATOM     27  C4  UNL     1      -7.244   1.287  -0.916  0.00  0.00    +0.000 A 
ATOM     28  C5  UNL     1      -6.003   1.237  -0.280  0.00  0.00    +0.000 A 
ATOM     29  C6  UNL     1      -4.904   0.638  -0.913  0.00  0.00    +0.000 A 
ENDBRANCH  23  29
ENDBRANCH  22  23
ENDBRANCH  18  22
ENDBRANCH  17  19
ENDBRANCH   1  17
TORSDOF 6
