REMARK  Name = /home/anacleto/Desktop/manuscript_Mpro/naturecomm/supplementary_file_S2/6-chemical-library/molecular_docking/3D_ligand_structure/271.pdb
REMARK  0 active torsions:
REMARK  status: ('A' for Active; 'I' for Inactive)
REMARK                            x       y       z     vdW  Elec       q    Type
REMARK                         _______ _______ _______ _____ _____    ______ ____
ROOT
ATOM      1  N1  UNL     1       1.857  -0.150   0.947  0.00  0.00    +0.000 NA
ATOM      2  C1  UNL     1       2.569  -0.006  -0.147  0.00  0.00    +0.000 A 
ATOM      3  S1  UNL     1       1.695   0.204  -1.604  0.00  0.00    +0.000 S 
ATOM      4  C2  UNL     1       0.217   0.098  -0.723  0.00  0.00    +0.000 A 
ATOM      5  C3  UNL     1       0.504  -0.092   0.631  0.00  0.00    +0.000 A 
ATOM      6  C4  UNL     1      -1.097   0.176  -1.193  0.00  0.00    +0.000 A 
ATOM      7  C5  UNL     1      -2.084   0.053  -0.229  0.00  0.00    +0.000 A 
ATOM      8  N2  UNL     1      -1.854  -0.131   1.087  0.00  0.00    +0.000 NA
ATOM      9  C6  UNL     1      -0.570  -0.204   1.524  0.00  0.00    +0.000 A 
ENDROOT
TORSDOF 0
