REMARK  Name = /home/anacleto/Desktop/manuscript_Mpro/naturecomm/supplementary_file_S2/6-chemical-library/molecular_docking/3D_ligand_structure/2712.pdb
REMARK  8 active torsions:
REMARK  status: ('A' for Active; 'I' for Inactive)
REMARK    1  A    between atoms: C6_6  and  C7_7
REMARK    2  A    between atoms: C7_7  and  O1_8
REMARK    3  A    between atoms: O1_8  and  C8_9
REMARK    4  A    between atoms: C8_9  and  C9_11
REMARK    5  A    between atoms: C9_11  and  C10_12
REMARK    6  A    between atoms: C10_12  and  N1_13
REMARK    7  A    between atoms: C11_14  and  C12_16
REMARK    8  A    between atoms: C14_18  and  N2_22
REMARK                            x       y       z     vdW  Elec       q    Type
REMARK                         _______ _______ _______ _____ _____    ______ ____
ROOT
ATOM      1  N1  UNL     1      -0.602   0.117  -0.626  0.00  0.00    +0.000 N 
ATOM      2  C11 UNL     1      -1.781  -0.359  -1.170  0.00  0.00    +0.000 C 
ATOM      3  O3  UNL     1      -1.840  -1.312  -1.936  0.00  0.00    +0.000 OA
ATOM      4  H12 UNL     1      -0.681   0.684   0.208  0.00  0.00    +0.000 HD
ENDROOT
BRANCH   2   5
ATOM      5  C12 UNL     1      -3.023   0.343  -0.746  0.00  0.00    +0.000 A 
ATOM      6  C13 UNL     1      -4.217  -0.386  -0.673  0.00  0.00    +0.000 A 
ATOM      7  C14 UNL     1      -5.409   0.243  -0.277  0.00  0.00    +0.000 A 
ATOM      8  C15 UNL     1      -5.395   1.611   0.031  0.00  0.00    +0.000 A 
ATOM      9  C16 UNL     1      -4.206   2.340  -0.059  0.00  0.00    +0.000 A 
ATOM     10  C17 UNL     1      -3.022   1.711  -0.448  0.00  0.00    +0.000 A 
BRANCH   7  11
ATOM     11  N2  UNL     1      -6.608  -0.519  -0.196  0.00  0.00    +0.000 N 
ATOM     12  C18 UNL     1      -7.873  -0.087   0.151  0.00  0.00    +0.000 A 
ATOM     13  C19 UNL     1      -8.707  -1.179   0.091  0.00  0.00    +0.000 A 
ATOM     14  C20 UNL     1      -7.873  -2.235  -0.296  0.00  0.00    +0.000 A 
ATOM     15  N3  UNL     1      -6.609  -1.850  -0.468  0.00  0.00    +0.000 NA
ENDBRANCH   7  11
ENDBRANCH   2   5
BRANCH   1  16
ATOM     16  C10 UNL     1       0.647  -0.601  -0.826  0.00  0.00    +0.000 C 
BRANCH  16  17
ATOM     17  C9  UNL     1       1.839   0.338  -0.743  0.00  0.00    +0.000 C 
BRANCH  17  18
ATOM     18  C8  UNL     1       3.131  -0.413  -0.922  0.00  0.00    +0.000 C 
ATOM     19  O2  UNL     1       3.257  -1.627  -0.847  0.00  0.00    +0.000 OA
BRANCH  18  20
ATOM     20  O1  UNL     1       4.140   0.474  -1.145  0.00  0.00    +0.000 OA
BRANCH  20  21
ATOM     21  C7  UNL     1       5.451  -0.092  -1.266  0.00  0.00    +0.000 C 
BRANCH  21  27
ATOM     22  C1  UNL     1       6.768   1.190   0.467  0.00  0.00    +0.000 A 
ATOM     23  C2  UNL     1       7.404   1.274   1.706  0.00  0.00    +0.000 A 
ATOM     24  C3  UNL     1       7.427   0.170   2.556  0.00  0.00    +0.000 A 
ATOM     25  C4  UNL     1       6.811  -1.019   2.169  0.00  0.00    +0.000 A 
ATOM     26  C5  UNL     1       6.175  -1.105   0.930  0.00  0.00    +0.000 A 
ATOM     27  C6  UNL     1       6.156  -0.004   0.062  0.00  0.00    +0.000 A 
ENDBRANCH  21  27
ENDBRANCH  20  21
ENDBRANCH  18  20
ENDBRANCH  17  18
ENDBRANCH  16  17
ENDBRANCH   1  16
TORSDOF 8
