REMARK  Name = /home/anacleto/Desktop/manuscript_Mpro/naturecomm/supplementary_file_S2/6-chemical-library/molecular_docking/3D_ligand_structure/2714.pdb
REMARK  8 active torsions:
REMARK  status: ('A' for Active; 'I' for Inactive)
REMARK    1  A    between atoms: C6_6  and  C7_7
REMARK    2  A    between atoms: C7_7  and  C8_8
REMARK    3  A    between atoms: C8_8  and  N1_9
REMARK    4  A    between atoms: C9_10  and  C10_12
REMARK    5  A    between atoms: C10_12  and  N2_13
REMARK    6  A    between atoms: N2_13  and  C11_14
REMARK    7  A    between atoms: C14_17  and  O2_20
REMARK    8  A    between atoms: O2_20  and  C17_21
REMARK                            x       y       z     vdW  Elec       q    Type
REMARK                         _______ _______ _______ _____ _____    ______ ____
ROOT
ATOM      1  N2  UNL     1      -0.553   0.245   1.264  0.00  0.00    +0.000 N 
ATOM      2  H13 UNL     1      -1.053  -0.556   1.653  0.00  0.00    +0.000 HD
ENDROOT
BRANCH   1   3
ATOM      3  C11 UNL     1       0.651  -0.148   0.674  0.00  0.00    +0.000 A 
ATOM      4  C12 UNL     1       0.703  -1.402   0.048  0.00  0.00    +0.000 A 
ATOM      5  C13 UNL     1       1.846  -1.829  -0.634  0.00  0.00    +0.000 A 
ATOM      6  C14 UNL     1       2.961  -0.999  -0.721  0.00  0.00    +0.000 A 
ATOM      7  C15 UNL     1       2.910   0.271  -0.146  0.00  0.00    +0.000 A 
ATOM      8  C16 UNL     1       1.761   0.691   0.536  0.00  0.00    +0.000 A 
BRANCH   6   9
ATOM      9  O2  UNL     1       4.023  -1.494  -1.447  0.00  0.00    +0.000 OA
BRANCH   9  10
ATOM     10  C17 UNL     1       5.266  -0.963  -1.203  0.00  0.00    +0.000 A 
ATOM     11  C18 UNL     1       5.925  -1.197   0.005  0.00  0.00    +0.000 A 
ATOM     12  C19 UNL     1       7.201  -0.670   0.206  0.00  0.00    +0.000 A 
ATOM     13  C20 UNL     1       7.817   0.072  -0.803  0.00  0.00    +0.000 A 
ATOM     14  C21 UNL     1       7.162   0.282  -2.018  0.00  0.00    +0.000 A 
ATOM     15  C22 UNL     1       5.886  -0.244  -2.223  0.00  0.00    +0.000 A 
ENDBRANCH   9  10
ENDBRANCH   6   9
ENDBRANCH   1   3
BRANCH   1  16
ATOM     16  C10 UNL     1      -0.577   1.392   2.190  0.00  0.00    +0.000 C 
BRANCH  16  18
ATOM     17  N1  UNL     1      -2.985   1.072   1.889  0.00  0.00    +0.000 N 
ATOM     18  C9  UNL     1      -2.013   1.686   2.656  0.00  0.00    +0.000 C 
ATOM     19  O1  UNL     1      -2.261   2.422   3.607  0.00  0.00    +0.000 OA
ATOM     20  H10 UNL     1      -2.653   0.751   0.980  0.00  0.00    +0.000 HD
BRANCH  17  21
ATOM     21  C8  UNL     1      -4.385   1.421   2.012  0.00  0.00    +0.000 C 
BRANCH  21  22
ATOM     22  C7  UNL     1      -5.314   0.303   1.535  0.00  0.00    +0.000 C 
BRANCH  22  28
ATOM     23  C1  UNL     1      -5.551   0.793  -0.936  0.00  0.00    +0.000 A 
ATOM     24  C2  UNL     1      -5.349   0.458  -2.276  0.00  0.00    +0.000 A 
ATOM     25  C3  UNL     1      -4.709  -0.734  -2.609  0.00  0.00    +0.000 A 
ATOM     26  C4  UNL     1      -4.271  -1.594  -1.603  0.00  0.00    +0.000 A 
ATOM     27  C5  UNL     1      -4.473  -1.261  -0.264  0.00  0.00    +0.000 A 
ATOM     28  C6  UNL     1      -5.115  -0.064   0.083  0.00  0.00    +0.000 A 
ENDBRANCH  22  28
ENDBRANCH  21  22
ENDBRANCH  17  21
ENDBRANCH  16  18
ENDBRANCH   1  16
TORSDOF 8
