REMARK  Name = /home/anacleto/Desktop/manuscript_Mpro/naturecomm/supplementary_file_S2/6-chemical-library/molecular_docking/3D_ligand_structure/2716.pdb
REMARK  4 active torsions:
REMARK  status: ('A' for Active; 'I' for Inactive)
REMARK    1  A    between atoms: C5_6  and  C6_7
REMARK    2  A    between atoms: C10_14  and  C11_15
REMARK    3  A    between atoms: N4_17  and  S1_18
REMARK    4  A    between atoms: S1_18  and  C12_21
REMARK                            x       y       z     vdW  Elec       q    Type
REMARK                         _______ _______ _______ _____ _____    ______ ____
ROOT
ATOM      1  C6  UNL     1      -2.598   0.201   1.195  0.00  0.00    +0.000 C 
ATOM      2  O1  UNL     1      -2.319   0.285   2.388  0.00  0.00    +0.000 OA
ATOM      3  N2  UNL     1      -1.687  -0.228   0.224  0.00  0.00    +0.000 N 
ATOM      4  C7  UNL     1      -1.765   0.219  -1.172  0.00  0.00    +0.000 C 
ATOM      5  C8  UNL     1      -0.922  -0.660  -2.113  0.00  0.00    +0.000 C 
ATOM      6  N3  UNL     1       0.481  -0.791  -1.672  0.00  0.00    +0.000 NA
ATOM      7  C9  UNL     1      -0.333  -0.536   0.713  0.00  0.00    +0.000 C 
ATOM      8  C10 UNL     1       0.485  -1.375  -0.286  0.00  0.00    +0.000 C 
ATOM      9  H9  UNL     1       0.872   0.152  -1.613  0.00  0.00    +0.000 HD
ENDROOT
BRANCH   1  15
ATOM     10  C1  UNL     1      -4.756  -0.360   0.089  0.00  0.00    +0.000 A 
ATOM     11  N1  UNL     1      -6.027  -0.102  -0.300  0.00  0.00    +0.000 NA
ATOM     12  C2  UNL     1      -6.546   1.091   0.077  0.00  0.00    +0.000 A 
ATOM     13  C3  UNL     1      -5.850   2.039   0.811  0.00  0.00    +0.000 A 
ATOM     14  C4  UNL     1      -4.537   1.758   1.179  0.00  0.00    +0.000 A 
ATOM     15  C5  UNL     1      -3.971   0.545   0.790  0.00  0.00    +0.000 A 
ENDBRANCH   1  15
BRANCH   8  16
ATOM     16  C11 UNL     1       1.936  -1.516   0.206  0.00  0.00    +0.000 C 
ATOM     17  O2  UNL     1       2.266  -1.423   1.377  0.00  0.00    +0.000 OA
ATOM     18  N4  UNL     1       2.846  -1.779  -0.827  0.00  0.00    +0.000 N 
ATOM     19  H13 UNL     1       2.495  -1.787  -1.785  0.00  0.00    +0.000 HD
BRANCH  18  20
ATOM     20  S1  UNL     1       4.486  -1.822  -0.663  0.00  0.00    +0.000 S 
ATOM     21  O3  UNL     1       4.847  -2.843   0.294  0.00  0.00    +0.000 OA
ATOM     22  O4  UNL     1       5.028  -1.828  -2.005  0.00  0.00    +0.000 OA
BRANCH  20  23
ATOM     23  C12 UNL     1       5.015  -0.285   0.053  0.00  0.00    +0.000 A 
ATOM     24  C13 UNL     1       5.684   0.017   1.224  0.00  0.00    +0.000 A 
ATOM     25  C14 UNL     1       5.907   1.418   1.373  0.00  0.00    +0.000 A 
ATOM     26  C15 UNL     1       5.396   2.137   0.314  0.00  0.00    +0.000 A 
ATOM     27  S2  UNL     1       4.619   1.129  -0.831  0.00  0.00    +0.000 S 
ENDBRANCH  20  23
ENDBRANCH  18  20
ENDBRANCH   8  16
TORSDOF 4
