REMARK  Name = /home/anacleto/Desktop/manuscript_Mpro/naturecomm/supplementary_file_S2/6-chemical-library/molecular_docking/3D_ligand_structure/2727.pdb
REMARK  6 active torsions:
REMARK  status: ('A' for Active; 'I' for Inactive)
REMARK    1  A    between atoms: C6_6  and  C7_7
REMARK    2  A    between atoms: C7_7  and  C8_8
REMARK    3  A    between atoms: C8_8  and  N1_9
REMARK    4  A    between atoms: C9_10  and  C10_12
REMARK    5  A    between atoms: C10_12  and  N2_13
REMARK    6  A    between atoms: C11_14  and  C12_16
REMARK                            x       y       z     vdW  Elec       q    Type
REMARK                         _______ _______ _______ _____ _____    ______ ____
ROOT
ATOM      1  N2  UNL     1       1.937   0.804   2.033  0.00  0.00    +0.000 N 
ATOM      2  C11 UNL     1       2.394  -0.413   2.507  0.00  0.00    +0.000 C 
ATOM      3  O2  UNL     1       1.845  -1.011   3.429  0.00  0.00    +0.000 OA
ATOM      4  H13 UNL     1       2.312   1.074   1.127  0.00  0.00    +0.000 HD
ENDROOT
BRANCH   2   5
ATOM      5  C12 UNL     1       3.580  -0.924   1.784  0.00  0.00    +0.000 A 
ATOM      6  N3  UNL     1       4.250  -2.081   2.134  0.00  0.00    +0.000 NA
ATOM      7  C13 UNL     1       5.205  -2.167   1.238  0.00  0.00    +0.000 A 
ATOM      8  N4  UNL     1       5.124  -1.118   0.373  0.00  0.00    +0.000 N 
ATOM      9  N5  UNL     1       4.099  -0.296   0.702  0.00  0.00    +0.000 NA
ATOM     10  C14 UNL     1       5.902  -0.811  -0.719  0.00  0.00    +0.000 A 
ATOM     11  N6  UNL     1       6.934  -1.502  -1.145  0.00  0.00    +0.000 NA
ATOM     12  N7  UNL     1       7.422  -0.853  -2.260  0.00  0.00    +0.000 NA
ATOM     13  C15 UNL     1       6.670   0.204  -2.473  0.00  0.00    +0.000 A 
ATOM     14  N8  UNL     1       5.698   0.271  -1.523  0.00  0.00    +0.000 N 
ATOM     15  H16 UNL     1       4.965   0.961  -1.421  0.00  0.00    +0.000 HD
ENDBRANCH   2   5
BRANCH   1  16
ATOM     16  C10 UNL     1       0.614   1.275   2.375  0.00  0.00    +0.000 C 
BRANCH  16  18
ATOM     17  N1  UNL     1      -1.635   0.536   1.750  0.00  0.00    +0.000 N 
ATOM     18  C9  UNL     1      -0.368   0.827   1.290  0.00  0.00    +0.000 C 
ATOM     19  O1  UNL     1      -0.049   0.777   0.103  0.00  0.00    +0.000 OA
ATOM     20  H10 UNL     1      -1.758   0.377   2.743  0.00  0.00    +0.000 HD
BRANCH  17  21
ATOM     21  C8  UNL     1      -2.658   0.019   0.858  0.00  0.00    +0.000 C 
BRANCH  21  22
ATOM     22  C7  UNL     1      -3.274   1.111  -0.020  0.00  0.00    +0.000 C 
BRANCH  22  28
ATOM     23  C1  UNL     1      -4.058  -0.034  -2.127  0.00  0.00    +0.000 A 
ATOM     24  C2  UNL     1      -5.067  -0.560  -2.935  0.00  0.00    +0.000 A 
ATOM     25  C3  UNL     1      -6.397  -0.495  -2.521  0.00  0.00    +0.000 A 
ATOM     26  C4  UNL     1      -6.718   0.095  -1.300  0.00  0.00    +0.000 A 
ATOM     27  C5  UNL     1      -5.710   0.621  -0.491  0.00  0.00    +0.000 A 
ATOM     28  C6  UNL     1      -4.371   0.565  -0.900  0.00  0.00    +0.000 A 
ENDBRANCH  22  28
ENDBRANCH  21  22
ENDBRANCH  17  21
ENDBRANCH  16  18
ENDBRANCH   1  16
TORSDOF 6
