REMARK  Name = /home/anacleto/Desktop/manuscript_Mpro/naturecomm/supplementary_file_S2/6-chemical-library/molecular_docking/3D_ligand_structure/2733.pdb
REMARK  7 active torsions:
REMARK  status: ('A' for Active; 'I' for Inactive)
REMARK    1  A    between atoms: C6_6  and  C7_7
REMARK    2  A    between atoms: C7_7  and  C8_8
REMARK    3  A    between atoms: C8_8  and  N1_9
REMARK    4  A    between atoms: C9_10  and  C10_12
REMARK    5  A    between atoms: C10_12  and  N2_13
REMARK    6  A    between atoms: N2_13  and  C11_14
REMARK    7  A    between atoms: C14_17  and  N3_20
REMARK                            x       y       z     vdW  Elec       q    Type
REMARK                         _______ _______ _______ _____ _____    ______ ____
ROOT
ATOM      1  N2  UNL     1      -0.712  -3.515  -0.483  0.00  0.00    +0.000 N 
ATOM      2  H13 UNL     1      -0.897  -3.970   0.414  0.00  0.00    +0.000 HD
ENDROOT
BRANCH   1   3
ATOM      3  C11 UNL     1      -1.289  -2.237  -0.513  0.00  0.00    +0.000 A 
ATOM      4  C12 UNL     1      -2.240  -1.891   0.450  0.00  0.00    +0.000 A 
ATOM      5  C13 UNL     1      -2.872  -0.638   0.435  0.00  0.00    +0.000 A 
ATOM      6  C14 UNL     1      -2.594   0.305  -0.563  0.00  0.00    +0.000 A 
ATOM      7  C15 UNL     1      -1.685  -0.069  -1.558  0.00  0.00    +0.000 A 
ATOM      8  C16 UNL     1      -1.053  -1.323  -1.539  0.00  0.00    +0.000 A 
BRANCH   6   9
ATOM      9  N3  UNL     1      -3.221   1.582  -0.557  0.00  0.00    +0.000 N 
ATOM     10  C17 UNL     1      -2.913   2.665  -1.448  0.00  0.00    +0.000 A 
ATOM     11  O2  UNL     1      -2.099   2.763  -2.351  0.00  0.00    +0.000 OA
ATOM     12  C18 UNL     1      -4.216   2.033   0.303  0.00  0.00    +0.000 A 
ATOM     13  C19 UNL     1      -4.544   3.295   0.001  0.00  0.00    +0.000 A 
ATOM     14  N4  UNL     1      -3.778   3.704  -1.051  0.00  0.00    +0.000 N 
ATOM     15  H20 UNL     1      -3.789   4.607  -1.499  0.00  0.00    +0.000 HD
ENDBRANCH   6   9
ENDBRANCH   1   3
BRANCH   1  16
ATOM     16  C10 UNL     1       0.732  -3.605  -0.754  0.00  0.00    +0.000 C 
BRANCH  16  18
ATOM     17  N1  UNL     1       2.548  -2.299   0.268  0.00  0.00    +0.000 N 
ATOM     18  C9  UNL     1       1.539  -3.212   0.493  0.00  0.00    +0.000 C 
ATOM     19  O1  UNL     1       1.298  -3.692   1.600  0.00  0.00    +0.000 OA
ATOM     20  H10 UNL     1       2.501  -1.733  -0.571  0.00  0.00    +0.000 HD
BRANCH  17  21
ATOM     21  C8  UNL     1       3.343  -1.772   1.364  0.00  0.00    +0.000 C 
BRANCH  21  22
ATOM     22  C7  UNL     1       2.665  -0.603   2.088  0.00  0.00    +0.000 C 
BRANCH  22  28
ATOM     23  C1  UNL     1       3.646   1.428   0.940  0.00  0.00    +0.000 A 
ATOM     24  C2  UNL     1       3.526   2.542   0.108  0.00  0.00    +0.000 A 
ATOM     25  C3  UNL     1       2.294   2.860  -0.460  0.00  0.00    +0.000 A 
ATOM     26  C4  UNL     1       1.180   2.067  -0.193  0.00  0.00    +0.000 A 
ATOM     27  C5  UNL     1       1.298   0.953   0.639  0.00  0.00    +0.000 A 
ATOM     28  C6  UNL     1       2.532   0.621   1.211  0.00  0.00    +0.000 A 
ENDBRANCH  22  28
ENDBRANCH  21  22
ENDBRANCH  17  21
ENDBRANCH  16  18
ENDBRANCH   1  16
TORSDOF 7
