REMARK  Name = /home/anacleto/Desktop/manuscript_Mpro/naturecomm/supplementary_file_S2/6-chemical-library/molecular_docking/3D_ligand_structure/2743.pdb
REMARK  5 active torsions:
REMARK  status: ('A' for Active; 'I' for Inactive)
REMARK    1  A    between atoms: C6_6  and  C7_7
REMARK    2  A    between atoms: C7_7  and  S1_8
REMARK    3  A    between atoms: S1_8  and  C8_11
REMARK    4  A    between atoms: C10_15  and  S2_16
REMARK    5  A    between atoms: S2_16  and  C11_19
REMARK                            x       y       z     vdW  Elec       q    Type
REMARK                         _______ _______ _______ _____ _____    ______ ____
ROOT
ATOM      1  C8  UNL     1       0.035   1.118   1.665  0.00  0.00    +0.000 A 
ATOM      2  O3  UNL     1      -0.034   1.164   3.050  0.00  0.00    +0.000 OA
ATOM      3  C9  UNL     1      -1.345   0.986   3.349  0.00  0.00    +0.000 A 
ATOM      4  N1  UNL     1      -2.131   0.795   2.318  0.00  0.00    +0.000 NA
ATOM      5  C10 UNL     1      -1.263   0.888   1.242  0.00  0.00    +0.000 A 
ENDROOT
BRANCH   1   6
ATOM      6  S1  UNL     1       1.571   1.316   0.793  0.00  0.00    +0.000 S 
ATOM      7  O1  UNL     1       1.203   1.874  -0.489  0.00  0.00    +0.000 OA
ATOM      8  O2  UNL     1       2.414   2.034   1.731  0.00  0.00    +0.000 OA
BRANCH   6   9
ATOM      9  C7  UNL     1       2.142  -0.373   0.637  0.00  0.00    +0.000 C 
BRANCH   9  15
ATOM     10  C1  UNL     1       3.408  -0.502  -1.541  0.00  0.00    +0.000 A 
ATOM     11  C2  UNL     1       4.599  -0.512  -2.267  0.00  0.00    +0.000 A 
ATOM     12  C3  UNL     1       5.821  -0.406  -1.606  0.00  0.00    +0.000 A 
ATOM     13  C4  UNL     1       5.854  -0.286  -0.218  0.00  0.00    +0.000 A 
ATOM     14  C5  UNL     1       4.664  -0.276   0.511  0.00  0.00    +0.000 A 
ATOM     15  C6  UNL     1       3.429  -0.389  -0.143  0.00  0.00    +0.000 A 
ENDBRANCH   9  15
ENDBRANCH   6   9
ENDBRANCH   1   6
BRANCH   5  16
ATOM     16  S2  UNL     1      -1.737   0.689  -0.405  0.00  0.00    +0.000 S 
ATOM     17  O4  UNL     1      -1.834   2.031  -0.936  0.00  0.00    +0.000 OA
ATOM     18  O5  UNL     1      -0.809  -0.307  -0.906  0.00  0.00    +0.000 OA
BRANCH  16  19
ATOM     19  C11 UNL     1      -3.360  -0.020  -0.367  0.00  0.00    +0.000 A 
ATOM     20  C12 UNL     1      -4.467   0.812  -0.169  0.00  0.00    +0.000 A 
ATOM     21  C13 UNL     1      -5.748   0.261  -0.166  0.00  0.00    +0.000 A 
ATOM     22  C14 UNL     1      -5.920  -1.109  -0.370  0.00  0.00    +0.000 A 
ATOM     23  C15 UNL     1      -4.814  -1.933  -0.583  0.00  0.00    +0.000 A 
ATOM     24  C16 UNL     1      -3.529  -1.391  -0.587  0.00  0.00    +0.000 A 
ENDBRANCH  16  19
ENDBRANCH   5  16
TORSDOF 5
