REMARK  Name = /home/anacleto/Desktop/manuscript_Mpro/naturecomm/supplementary_file_S2/6-chemical-library/molecular_docking/3D_ligand_structure/2752.pdb
REMARK  5 active torsions:
REMARK  status: ('A' for Active; 'I' for Inactive)
REMARK    1  A    between atoms: C6_6  and  C7_7
REMARK    2  A    between atoms: C7_7  and  C8_8
REMARK    3  A    between atoms: C8_8  and  N1_9
REMARK    4  A    between atoms: C9_10  and  C10_12
REMARK    5  A    between atoms: C10_12  and  C11_13
REMARK                            x       y       z     vdW  Elec       q    Type
REMARK                         _______ _______ _______ _____ _____    ______ ____
ROOT
ATOM      1  C10 UNL     1      -0.042   1.027   3.176  0.00  0.00    +0.000 C 
ENDROOT
BRANCH   1   2
ATOM      2  C11 UNL     1      -1.109   0.798   2.157  0.00  0.00    +0.000 A 
ATOM      3  C12 UNL     1      -1.706  -0.425   1.968  0.00  0.00    +0.000 A 
ATOM      4  N2  UNL     1      -2.667  -0.653   1.052  0.00  0.00    +0.000 NA
ATOM      5  C13 UNL     1      -3.053   0.369   0.272  0.00  0.00    +0.000 A 
ATOM      6  N3  UNL     1      -2.512   1.594   0.379  0.00  0.00    +0.000 NA
ATOM      7  C14 UNL     1      -1.564   1.785   1.316  0.00  0.00    +0.000 A 
ATOM      8  N4  UNL     1      -4.015   0.153  -0.694  0.00  0.00    +0.000 N 
ATOM      9  C15 UNL     1      -4.913  -0.999  -0.548  0.00  0.00    +0.000 C 
ATOM     10  C16 UNL     1      -6.378  -0.529  -0.562  0.00  0.00    +0.000 C 
ATOM     11  O2  UNL     1      -6.749   0.190  -1.751  0.00  0.00    +0.000 OA
ATOM     12  C17 UNL     1      -5.654   0.893  -2.358  0.00  0.00    +0.000 C 
ATOM     13  C18 UNL     1      -4.574   1.332  -1.358  0.00  0.00    +0.000 C 
ENDBRANCH   1   2
BRANCH   1  15
ATOM     14  N1  UNL     1       2.149   1.076   2.119  0.00  0.00    +0.000 N 
ATOM     15  C9  UNL     1       1.246   0.308   2.823  0.00  0.00    +0.000 C 
ATOM     16  O1  UNL     1       1.443  -0.865   3.129  0.00  0.00    +0.000 OA
ATOM     17  H10 UNL     1       1.849   1.963   1.738  0.00  0.00    +0.000 HD
BRANCH  14  18
ATOM     18  C8  UNL     1       3.385   0.508   1.609  0.00  0.00    +0.000 C 
BRANCH  18  19
ATOM     19  C7  UNL     1       3.171  -0.235   0.289  0.00  0.00    +0.000 C 
BRANCH  19  25
ATOM     20  C1  UNL     1       4.884  -2.064  -0.001  0.00  0.00    +0.000 A 
ATOM     21  C2  UNL     1       6.089  -2.544  -0.515  0.00  0.00    +0.000 A 
ATOM     22  C3  UNL     1       6.890  -1.719  -1.305  0.00  0.00    +0.000 A 
ATOM     23  C4  UNL     1       6.486  -0.413  -1.582  0.00  0.00    +0.000 A 
ATOM     24  C5  UNL     1       5.280   0.068  -1.071  0.00  0.00    +0.000 A 
ATOM     25  C6  UNL     1       4.466  -0.755  -0.279  0.00  0.00    +0.000 A 
ENDBRANCH  19  25
ENDBRANCH  18  19
ENDBRANCH  14  18
ENDBRANCH   1  15
TORSDOF 5
