REMARK  Name = /home/anacleto/Desktop/manuscript_Mpro/naturecomm/supplementary_file_S2/6-chemical-library/molecular_docking/3D_ligand_structure/2760.pdb
REMARK  6 active torsions:
REMARK  status: ('A' for Active; 'I' for Inactive)
REMARK    1  A    between atoms: C6_6  and  C7_7
REMARK    2  A    between atoms: C7_7  and  N1_8
REMARK    3  A    between atoms: C8_9  and  C9_11
REMARK    4  A    between atoms: C9_11  and  N2_12
REMARK    5  A    between atoms: N2_12  and  C10_13
REMARK    6  A    between atoms: C15_18  and  C16_19
REMARK                            x       y       z     vdW  Elec       q    Type
REMARK                         _______ _______ _______ _____ _____    ______ ____
ROOT
ATOM      1  N2  UNL     1       1.411  -0.673  -2.193  0.00  0.00    +0.000 N 
ATOM      2  H11 UNL     1       1.595  -1.470  -2.799  0.00  0.00    +0.000 HD
ENDROOT
BRANCH   1   3
ATOM      3  C10 UNL     1       0.099  -0.716  -1.700  0.00  0.00    +0.000 A 
ATOM      4  C11 UNL     1      -0.598   0.405  -1.243  0.00  0.00    +0.000 A 
ATOM      5  C12 UNL     1      -1.877   0.288  -0.683  0.00  0.00    +0.000 A 
ATOM      6  C13 UNL     1      -0.499  -1.969  -1.511  0.00  0.00    +0.000 A 
ATOM      7  C14 UNL     1      -1.776  -2.093  -0.952  0.00  0.00    +0.000 A 
ATOM      8  C15 UNL     1      -2.486  -0.963  -0.534  0.00  0.00    +0.000 A 
BRANCH   8   9
ATOM      9  C16 UNL     1      -3.874  -1.116   0.066  0.00  0.00    +0.000 C 
ATOM     10  C17 UNL     1      -3.981  -0.542   1.497  0.00  0.00    +0.000 C 
ATOM     11  C18 UNL     1      -4.788   0.751   1.564  0.00  0.00    +0.000 C 
ATOM     12  C19 UNL     1      -6.200   0.581   1.003  0.00  0.00    +0.000 C 
ATOM     13  C20 UNL     1      -6.285  -0.403  -0.165  0.00  0.00    +0.000 C 
ATOM     14  C21 UNL     1      -4.951  -0.558  -0.884  0.00  0.00    +0.000 C 
ENDBRANCH   8   9
ENDBRANCH   1   3
BRANCH   1  15
ATOM     15  C9  UNL     1       1.926   0.580  -2.788  0.00  0.00    +0.000 C 
BRANCH  15  17
ATOM     16  N1  UNL     1       2.756   0.915  -0.514  0.00  0.00    +0.000 N 
ATOM     17  C8  UNL     1       2.654   1.467  -1.768  0.00  0.00    +0.000 C 
ATOM     18  O1  UNL     1       3.115   2.566  -2.069  0.00  0.00    +0.000 OA
ATOM     19  H8  UNL     1       2.405  -0.036  -0.428  0.00  0.00    +0.000 HD
BRANCH  16  20
ATOM     20  C7  UNL     1       3.524   1.499   0.554  0.00  0.00    +0.000 C 
BRANCH  20  26
ATOM     21  C1  UNL     1       5.075  -0.237   1.543  0.00  0.00    +0.000 A 
ATOM     22  C2  UNL     1       6.323  -0.856   1.626  0.00  0.00    +0.000 A 
ATOM     23  C3  UNL     1       7.378  -0.414   0.828  0.00  0.00    +0.000 A 
ATOM     24  C4  UNL     1       7.185   0.646  -0.055  0.00  0.00    +0.000 A 
ATOM     25  C5  UNL     1       5.938   1.267  -0.140  0.00  0.00    +0.000 A 
ATOM     26  C6  UNL     1       4.873   0.839   0.666  0.00  0.00    +0.000 A 
ENDBRANCH  20  26
ENDBRANCH  16  20
ENDBRANCH  15  17
ENDBRANCH   1  15
TORSDOF 6
