REMARK  Name = /home/anacleto/Desktop/manuscript_Mpro/naturecomm/supplementary_file_S2/6-chemical-library/molecular_docking/3D_ligand_structure/2761.pdb
REMARK  7 active torsions:
REMARK  status: ('A' for Active; 'I' for Inactive)
REMARK    1  A    between atoms: C6_6  and  C7_7
REMARK    2  A    between atoms: C7_7  and  C8_8
REMARK    3  A    between atoms: C8_8  and  N1_9
REMARK    4  A    between atoms: C9_10  and  C10_12
REMARK    5  A    between atoms: C10_12  and  N2_13
REMARK    6  A    between atoms: N2_13  and  C11_14
REMARK    7  A    between atoms: C16_19  and  C17_20
REMARK                            x       y       z     vdW  Elec       q    Type
REMARK                         _______ _______ _______ _____ _____    ______ ____
ROOT
ATOM      1  C10 UNL     1       0.473   1.633  -0.136  0.00  0.00    +0.000 C 
ENDROOT
BRANCH   1   3
ATOM      2  N1  UNL     1       2.631   0.599   0.359  0.00  0.00    +0.000 N 
ATOM      3  C9  UNL     1       2.001   1.763  -0.035  0.00  0.00    +0.000 C 
ATOM      4  O1  UNL     1       2.599   2.796  -0.317  0.00  0.00    +0.000 OA
ATOM      5  H10 UNL     1       2.042  -0.229   0.407  0.00  0.00    +0.000 HD
BRANCH   2   6
ATOM      6  C8  UNL     1       4.073   0.471   0.407  0.00  0.00    +0.000 C 
BRANCH   6   7
ATOM      7  C7  UNL     1       4.679   0.244  -0.979  0.00  0.00    +0.000 C 
BRANCH   7  13
ATOM      8  C1  UNL     1       6.739  -1.215  -0.831  0.00  0.00    +0.000 A 
ATOM      9  C2  UNL     1       8.123  -1.373  -0.747  0.00  0.00    +0.000 A 
ATOM     10  C3  UNL     1       8.955  -0.254  -0.739  0.00  0.00    +0.000 A 
ATOM     11  C4  UNL     1       8.403   1.024  -0.813  0.00  0.00    +0.000 A 
ATOM     12  C5  UNL     1       7.019   1.184  -0.897  0.00  0.00    +0.000 A 
ATOM     13  C6  UNL     1       6.175   0.065  -0.910  0.00  0.00    +0.000 A 
ENDBRANCH   7  13
ENDBRANCH   6   7
ENDBRANCH   2   6
ENDBRANCH   1   3
BRANCH   1  14
ATOM     14  N2  UNL     1      -0.006   0.505   0.688  0.00  0.00    +0.000 N 
ATOM     15  H13 UNL     1       0.344   0.587   1.644  0.00  0.00    +0.000 HD
BRANCH  14  16
ATOM     16  C11 UNL     1      -1.379   0.220   0.704  0.00  0.00    +0.000 A 
ATOM     17  C12 UNL     1      -2.254   0.541  -0.336  0.00  0.00    +0.000 A 
ATOM     18  C13 UNL     1      -3.603   0.162  -0.293  0.00  0.00    +0.000 A 
ATOM     19  C14 UNL     1      -1.883  -0.558   1.755  0.00  0.00    +0.000 A 
ATOM     20  C15 UNL     1      -3.228  -0.940   1.804  0.00  0.00    +0.000 A 
ATOM     21  C16 UNL     1      -4.109  -0.582   0.779  0.00  0.00    +0.000 A 
BRANCH  21  22
ATOM     22  C17 UNL     1      -5.562  -0.997   0.850  0.00  0.00    +0.000 C 
ATOM     23  C18 UNL     1      -6.508   0.199   1.058  0.00  0.00    +0.000 C 
ATOM     24  C19 UNL     1      -7.756  -0.153   0.262  0.00  0.00    +0.000 C 
ATOM     25  C20 UNL     1      -7.194  -0.847  -0.966  0.00  0.00    +0.000 C 
ATOM     26  C21 UNL     1      -6.080  -1.725  -0.408  0.00  0.00    +0.000 C 
ENDBRANCH  21  22
ENDBRANCH  14  16
ENDBRANCH   1  14
TORSDOF 7
