REMARK  Name = /home/anacleto/Desktop/manuscript_Mpro/naturecomm/supplementary_file_S2/6-chemical-library/molecular_docking/3D_ligand_structure/2765.pdb
REMARK  7 active torsions:
REMARK  status: ('A' for Active; 'I' for Inactive)
REMARK    1  A    between atoms: C6_6  and  C7_7
REMARK    2  A    between atoms: C7_7  and  C8_8
REMARK    3  A    between atoms: C8_8  and  N1_9
REMARK    4  A    between atoms: C9_10  and  C10_12
REMARK    5  A    between atoms: C10_12  and  N2_13
REMARK    6  A    between atoms: N2_13  and  C11_14
REMARK    7  A    between atoms: N4_17  and  C14_19
REMARK                            x       y       z     vdW  Elec       q    Type
REMARK                         _______ _______ _______ _____ _____    ______ ____
ROOT
ATOM      1  C10 UNL     1       0.311  -0.309  -0.711  0.00  0.00    +0.000 C 
ENDROOT
BRANCH   1   3
ATOM      2  N1  UNL     1       2.474   0.851  -0.802  0.00  0.00    +0.000 N 
ATOM      3  C9  UNL     1       1.204   0.772  -1.343  0.00  0.00    +0.000 C 
ATOM      4  O1  UNL     1       0.804   1.513  -2.240  0.00  0.00    +0.000 OA
ATOM      5  H10 UNL     1       2.816   0.068  -0.256  0.00  0.00    +0.000 HD
BRANCH   2   6
ATOM      6  C8  UNL     1       3.471   1.764  -1.336  0.00  0.00    +0.000 C 
BRANCH   6   7
ATOM      7  C7  UNL     1       4.424   2.281  -0.255  0.00  0.00    +0.000 C 
BRANCH   7  13
ATOM      8  C1  UNL     1       6.443   0.775  -0.465  0.00  0.00    +0.000 A 
ATOM      9  C2  UNL     1       7.281  -0.231   0.018  0.00  0.00    +0.000 A 
ATOM     10  C3  UNL     1       7.023  -0.815   1.258  0.00  0.00    +0.000 A 
ATOM     11  C4  UNL     1       5.928  -0.394   2.016  0.00  0.00    +0.000 A 
ATOM     12  C5  UNL     1       5.089   0.614   1.535  0.00  0.00    +0.000 A 
ATOM     13  C6  UNL     1       5.337   1.206   0.288  0.00  0.00    +0.000 A 
ENDBRANCH   7  13
ENDBRANCH   6   7
ENDBRANCH   2   6
ENDBRANCH   1   3
BRANCH   1  14
ATOM     14  N2  UNL     1      -1.086  -0.055  -1.043  0.00  0.00    +0.000 N 
ATOM     15  H13 UNL     1      -1.206   0.712  -1.710  0.00  0.00    +0.000 HD
BRANCH  14  16
ATOM     16  C11 UNL     1      -2.121  -0.581  -0.368  0.00  0.00    +0.000 A 
ATOM     17  C12 UNL     1      -2.160  -1.593   0.605  0.00  0.00    +0.000 A 
ATOM     18  N3  UNL     1      -3.397  -1.821   1.049  0.00  0.00    +0.000 NA
ATOM     19  N4  UNL     1      -4.180  -0.954   0.344  0.00  0.00    +0.000 N 
ATOM     20  C13 UNL     1      -3.426  -0.201  -0.533  0.00  0.00    +0.000 A 
BRANCH  19  21
ATOM     21  C14 UNL     1      -5.588  -0.895   0.565  0.00  0.00    +0.000 A 
ATOM     22  C15 UNL     1      -6.168  -1.725   1.536  0.00  0.00    +0.000 A 
ATOM     23  C16 UNL     1      -7.544  -1.672   1.783  0.00  0.00    +0.000 A 
ATOM     24  C17 UNL     1      -8.349  -0.790   1.064  0.00  0.00    +0.000 A 
ATOM     25  C18 UNL     1      -7.781   0.033   0.094  0.00  0.00    +0.000 A 
ATOM     26  C19 UNL     1      -6.405  -0.015  -0.157  0.00  0.00    +0.000 A 
ENDBRANCH  19  21
ENDBRANCH  14  16
ENDBRANCH   1  14
TORSDOF 7
