REMARK  Name = /home/anacleto/Desktop/manuscript_Mpro/naturecomm/supplementary_file_S2/6-chemical-library/molecular_docking/3D_ligand_structure/2772.pdb
REMARK  4 active torsions:
REMARK  status: ('A' for Active; 'I' for Inactive)
REMARK    1  A    between atoms: C6_6  and  N1_7
REMARK    2  A    between atoms: C7_8  and  C8_10
REMARK    3  A    between atoms: N3_15  and  S1_16
REMARK    4  A    between atoms: S1_16  and  C12_19
REMARK                            x       y       z     vdW  Elec       q    Type
REMARK                         _______ _______ _______ _____ _____    ______ ____
ROOT
ATOM      1  C8  UNL     1      -0.952  -0.495  -0.732  0.00  0.00    +0.000 C 
ATOM      2  C9  UNL     1      -1.018  -1.994  -0.354  0.00  0.00    +0.000 C 
ATOM      3  N2  UNL     1      -1.168  -2.255   1.087  0.00  0.00    +0.000 NA
ATOM      4  C10 UNL     1      -2.333  -1.527   1.614  0.00  0.00    +0.000 C 
ATOM      5  C11 UNL     1      -2.314  -0.020   1.295  0.00  0.00    +0.000 C 
ATOM      6  N3  UNL     1      -2.122   0.255  -0.163  0.00  0.00    +0.000 NA
ATOM      7  H16 UNL     1      -1.307  -3.255   1.240  0.00  0.00    +0.000 HD
ENDROOT
BRANCH   1   9
ATOM      8  N1  UNL     1       1.493  -0.334  -1.014  0.00  0.00    +0.000 N 
ATOM      9  C7  UNL     1       0.387   0.158  -0.336  0.00  0.00    +0.000 C 
ATOM     10  O1  UNL     1       0.483   1.079   0.475  0.00  0.00    +0.000 OA
ATOM     11  H12 UNL     1       1.398  -1.177  -1.563  0.00  0.00    +0.000 HD
BRANCH   8  17
ATOM     12  C1  UNL     1       3.377  -0.636   0.546  0.00  0.00    +0.000 C 
ATOM     13  C2  UNL     1       4.754  -0.120   0.969  0.00  0.00    +0.000 C 
ATOM     14  C3  UNL     1       5.577   0.449  -0.188  0.00  0.00    +0.000 C 
ATOM     15  C4  UNL     1       5.252  -0.239  -1.505  0.00  0.00    +0.000 C 
ATOM     16  C5  UNL     1       3.778  -0.079  -1.890  0.00  0.00    +0.000 C 
ATOM     17  C6  UNL     1       2.843   0.104  -0.683  0.00  0.00    +0.000 C 
ENDBRANCH   8  17
ENDBRANCH   1   9
BRANCH   6  18
ATOM     18  S1  UNL     1      -3.506   0.249  -1.126  0.00  0.00    +0.000 S 
ATOM     19  O2  UNL     1      -4.271  -0.943  -0.832  0.00  0.00    +0.000 OA
ATOM     20  O3  UNL     1      -3.131   0.592  -2.480  0.00  0.00    +0.000 OA
BRANCH  18  21
ATOM     21  C12 UNL     1      -4.519   1.564  -0.637  0.00  0.00    +0.000 A 
ATOM     22  C13 UNL     1      -5.941   1.493  -0.539  0.00  0.00    +0.000 A 
ATOM     23  C14 UNL     1      -6.484   2.690  -0.125  0.00  0.00    +0.000 A 
ATOM     24  S2  UNL     1      -5.285   3.886   0.136  0.00  0.00    +0.000 S 
ATOM     25  C15 UNL     1      -4.030   2.811  -0.308  0.00  0.00    +0.000 A 
ENDBRANCH  18  21
ENDBRANCH   6  18
TORSDOF 4
