REMARK  Name = /home/anacleto/Desktop/manuscript_Mpro/naturecomm/supplementary_file_S2/6-chemical-library/molecular_docking/3D_ligand_structure/2775.pdb
REMARK  4 active torsions:
REMARK  status: ('A' for Active; 'I' for Inactive)
REMARK    1  A    between atoms: C6_6  and  N1_7
REMARK    2  A    between atoms: C7_8  and  C8_10
REMARK    3  A    between atoms: N3_15  and  S1_16
REMARK    4  A    between atoms: S1_16  and  C12_19
REMARK                            x       y       z     vdW  Elec       q    Type
REMARK                         _______ _______ _______ _____ _____    ______ ____
ROOT
ATOM      1  C8  UNL     1      -0.048  -1.619   0.946  0.00  0.00    +0.000 C 
ATOM      2  C9  UNL     1      -0.299  -2.321   2.301  0.00  0.00    +0.000 C 
ATOM      3  N2  UNL     1      -1.577  -3.047   2.329  0.00  0.00    +0.000 NA
ATOM      4  C10 UNL     1      -2.705  -2.170   1.981  0.00  0.00    +0.000 C 
ATOM      5  C11 UNL     1      -2.331  -0.744   1.523  0.00  0.00    +0.000 C 
ATOM      6  N3  UNL     1      -1.210  -0.737   0.539  0.00  0.00    +0.000 NA
ATOM      7  H10 UNL     1      -1.724  -3.461   3.250  0.00  0.00    +0.000 HD
ENDROOT
BRANCH   1   9
ATOM      8  N1  UNL     1       1.620  -0.244  -0.196  0.00  0.00    +0.000 N 
ATOM      9  C7  UNL     1       1.221  -0.747   1.033  0.00  0.00    +0.000 C 
ATOM     10  O1  UNL     1       1.790  -0.545   2.104  0.00  0.00    +0.000 OA
ATOM     11  H6  UNL     1       1.043  -0.500  -0.999  0.00  0.00    +0.000 HD
BRANCH   8  17
ATOM     12  C1  UNL     1       2.874   0.995  -1.815  0.00  0.00    +0.000 A 
ATOM     13  C2  UNL     1       3.922   1.842  -2.186  0.00  0.00    +0.000 A 
ATOM     14  C3  UNL     1       4.812   2.309  -1.223  0.00  0.00    +0.000 A 
ATOM     15  C4  UNL     1       4.653   1.928   0.107  0.00  0.00    +0.000 A 
ATOM     16  C5  UNL     1       3.604   1.080   0.479  0.00  0.00    +0.000 A 
ATOM     17  C6  UNL     1       2.706   0.607  -0.479  0.00  0.00    +0.000 A 
ENDBRANCH   8  17
ENDBRANCH   1   9
BRANCH   6  18
ATOM     18  S1  UNL     1      -1.658  -0.863  -1.086  0.00  0.00    +0.000 S 
ATOM     19  O2  UNL     1      -0.445  -0.839  -1.879  0.00  0.00    +0.000 OA
ATOM     20  O3  UNL     1      -2.656  -1.895  -1.234  0.00  0.00    +0.000 OA
BRANCH  18  21
ATOM     21  C12 UNL     1      -2.452   0.611  -1.526  0.00  0.00    +0.000 A 
ATOM     22  C13 UNL     1      -1.940   1.903  -1.198  0.00  0.00    +0.000 A 
ATOM     23  C14 UNL     1      -2.760   2.909  -1.661  0.00  0.00    +0.000 A 
ATOM     24  S2  UNL     1      -4.133   2.295  -2.482  0.00  0.00    +0.000 S 
ATOM     25  C15 UNL     1      -3.635   0.677  -2.230  0.00  0.00    +0.000 A 
ENDBRANCH  18  21
ENDBRANCH   6  18
TORSDOF 4
