REMARK  Name = /home/anacleto/Desktop/manuscript_Mpro/naturecomm/supplementary_file_S2/6-chemical-library/molecular_docking/3D_ligand_structure/2776.pdb
REMARK  4 active torsions:
REMARK  status: ('A' for Active; 'I' for Inactive)
REMARK    1  A    between atoms: C2_4  and  C4_7
REMARK    2  A    between atoms: C8_14  and  C9_15
REMARK    3  A    between atoms: N5_17  and  C10_18
REMARK    4  A    between atoms: C10_18  and  C11_19
REMARK                            x       y       z     vdW  Elec       q    Type
REMARK                         _______ _______ _______ _____ _____    ______ ____
ROOT
ATOM      1  C4  UNL     1      -2.984  -0.790  -1.081  0.00  0.00    +0.000 C 
ATOM      2  O2  UNL     1      -2.975  -1.853  -1.705  0.00  0.00    +0.000 OA
ATOM      3  N3  UNL     1      -1.801  -0.099  -0.824  0.00  0.00    +0.000 N 
ATOM      4  C5  UNL     1      -1.706   1.328  -0.502  0.00  0.00    +0.000 C 
ATOM      5  C6  UNL     1      -0.573   1.613   0.509  0.00  0.00    +0.000 C 
ATOM      6  N4  UNL     1       0.583   0.692   0.466  0.00  0.00    +0.000 NA
ATOM      7  C7  UNL     1      -0.545  -0.720  -1.284  0.00  0.00    +0.000 C 
ATOM      8  C8  UNL     1       0.704   0.101  -0.904  0.00  0.00    +0.000 C 
ATOM      9  H10 UNL     1       0.369  -0.090   1.092  0.00  0.00    +0.000 HD
ENDROOT
BRANCH   1  13
ATOM     10  O1  UNL     1      -5.780  -0.457   2.560  0.00  0.00    +0.000 OA
ATOM     11  C1  UNL     1      -5.512  -0.429   1.374  0.00  0.00    +0.000 C 
ATOM     12  N1  UNL     1      -4.346   0.057   0.827  0.00  0.00    +0.000 N 
ATOM     13  C2  UNL     1      -4.301  -0.158  -0.607  0.00  0.00    +0.000 C 
ATOM     14  C3  UNL     1      -5.523  -1.048  -0.856  0.00  0.00    +0.000 C 
ATOM     15  N2  UNL     1      -6.303  -0.909   0.350  0.00  0.00    +0.000 N 
ATOM     16  H1  UNL     1      -3.571   0.298   1.427  0.00  0.00    +0.000 HD
ATOM     17  H5  UNL     1      -7.085  -1.502   0.596  0.00  0.00    +0.000 HD
ENDBRANCH   1  13
BRANCH   8  18
ATOM     18  C9  UNL     1       1.971  -0.767  -0.985  0.00  0.00    +0.000 C 
ATOM     19  O3  UNL     1       2.048  -1.800  -1.641  0.00  0.00    +0.000 OA
ATOM     20  N5  UNL     1       3.033  -0.230  -0.291  0.00  0.00    +0.000 N 
ATOM     21  H14 UNL     1       2.792   0.491   0.384  0.00  0.00    +0.000 HD
BRANCH  20  22
ATOM     22  C10 UNL     1       4.279  -0.942  -0.165  0.00  0.00    +0.000 C 
BRANCH  22  23
ATOM     23  C11 UNL     1       5.247  -0.083   0.579  0.00  0.00    +0.000 A 
ATOM     24  C12 UNL     1       5.477  -0.035   1.941  0.00  0.00    +0.000 A 
ATOM     25  C13 UNL     1       6.479   0.916   2.289  0.00  0.00    +0.000 A 
ATOM     26  C14 UNL     1       6.982   1.563   1.183  0.00  0.00    +0.000 A 
ATOM     27  S1  UNL     1       6.249   1.024  -0.264  0.00  0.00    +0.000 S 
ENDBRANCH  22  23
ENDBRANCH  20  22
ENDBRANCH   8  18
TORSDOF 4
