REMARK  Name = /home/anacleto/Desktop/manuscript_Mpro/naturecomm/supplementary_file_S2/6-chemical-library/molecular_docking/3D_ligand_structure/28.pdb
REMARK  0 active torsions:
REMARK  status: ('A' for Active; 'I' for Inactive)
REMARK                            x       y       z     vdW  Elec       q    Type
REMARK                         _______ _______ _______ _____ _____    ______ ____
ROOT
ATOM      1  C1  UNL     1      -1.501  -0.574  -0.304  0.00  0.00    +0.000 C 
ATOM      2  C2  UNL     1      -1.189   0.840   0.179  0.00  0.00    +0.000 C 
ATOM      3  N1  UNL     1      -0.083   1.429  -0.572  0.00  0.00    +0.000 NA
ATOM      4  C3  UNL     1       1.230   1.161   0.031  0.00  0.00    +0.000 C 
ATOM      5  C4  UNL     1       1.560  -0.305   0.391  0.00  0.00    +0.000 C 
ATOM      6  N2  UNL     1       0.899  -1.313  -0.448  0.00  0.00    +0.000 NA
ATOM      7  C5  UNL     1      -0.444  -1.621   0.043  0.00  0.00    +0.000 C 
ATOM      8  H5  UNL     1      -0.207   2.441  -0.616  0.00  0.00    +0.000 HD
ATOM      9  H10 UNL     1       0.810  -0.916  -1.387  0.00  0.00    +0.000 HD
ENDROOT
TORSDOF 0
