REMARK  Name = /home/anacleto/Desktop/manuscript_Mpro/naturecomm/supplementary_file_S2/6-chemical-library/molecular_docking/3D_ligand_structure/2800.pdb
REMARK  6 active torsions:
REMARK  status: ('A' for Active; 'I' for Inactive)
REMARK    1  A    between atoms: C3_5  and  C4_6
REMARK    2  A    between atoms: C4_6  and  C5_7
REMARK    3  A    between atoms: C5_7  and  C6_8
REMARK    4  A    between atoms: N3_10  and  C7_11
REMARK    5  A    between atoms: C12_16  and  C13_17
REMARK    6  A    between atoms: C13_17  and  C14_18
REMARK                            x       y       z     vdW  Elec       q    Type
REMARK                         _______ _______ _______ _____ _____    ______ ____
ROOT
ATOM      1  C7  UNL     1       0.192  -0.626   0.926  0.00  0.00    +0.000 C 
ATOM      2  C8  UNL     1       0.107  -1.954   1.695  0.00  0.00    +0.000 C 
ATOM      3  C9  UNL     1      -0.532  -3.070   0.871  0.00  0.00    +0.000 C 
ATOM      4  C10 UNL     1      -1.892  -2.660   0.319  0.00  0.00    +0.000 C 
ATOM      5  C11 UNL     1      -1.811  -1.356  -0.471  0.00  0.00    +0.000 C 
ATOM      6  C12 UNL     1      -1.171  -0.201   0.327  0.00  0.00    +0.000 C 
ENDROOT
BRANCH   1   9
ATOM      7  C6  UNL     1       2.551  -0.522   0.148  0.00  0.00    +0.000 C 
ATOM      8  O1  UNL     1       2.984  -0.249   1.262  0.00  0.00    +0.000 OA
ATOM      9  N3  UNL     1       1.209  -0.701  -0.123  0.00  0.00    +0.000 N 
ATOM     10  H8  UNL     1       0.949  -1.091  -1.019  0.00  0.00    +0.000 HD
BRANCH   7  11
ATOM     11  C5  UNL     1       3.435  -0.752  -1.064  0.00  0.00    +0.000 C 
BRANCH  11  12
ATOM     12  C4  UNL     1       4.820  -0.123  -0.919  0.00  0.00    +0.000 C 
BRANCH  12  17
ATOM     13  N1  UNL     1       5.272   1.906  -2.351  0.00  0.00    +0.000 N 
ATOM     14  C1  UNL     1       5.092   3.256  -2.260  0.00  0.00    +0.000 A 
ATOM     15  N2  UNL     1       4.543   3.592  -1.117  0.00  0.00    +0.000 NA
ATOM     16  C2  UNL     1       4.367   2.414  -0.438  0.00  0.00    +0.000 A 
ATOM     17  C3  UNL     1       4.801   1.343  -1.191  0.00  0.00    +0.000 A 
ATOM     18  H1  UNL     1       5.684   1.418  -3.135  0.00  0.00    +0.000 HD
ENDBRANCH  12  17
ENDBRANCH  11  12
ENDBRANCH   7  11
ENDBRANCH   1   9
BRANCH   6  19
ATOM     19  C13 UNL     1      -2.098   0.338   1.445  0.00  0.00    +0.000 C 
BRANCH  19  20
ATOM     20  C14 UNL     1      -3.354   1.001   0.930  0.00  0.00    +0.000 A 
ATOM     21  C15 UNL     1      -4.601   0.380   1.081  0.00  0.00    +0.000 A 
ATOM     22  C16 UNL     1      -5.760   0.992   0.599  0.00  0.00    +0.000 A 
ATOM     23  C17 UNL     1      -5.683   2.231  -0.034  0.00  0.00    +0.000 A 
ATOM     24  C18 UNL     1      -4.449   2.859  -0.187  0.00  0.00    +0.000 A 
ATOM     25  C19 UNL     1      -3.290   2.248   0.293  0.00  0.00    +0.000 A 
ENDBRANCH  19  20
ENDBRANCH   6  19
TORSDOF 6
