REMARK  Name = /home/anacleto/Desktop/manuscript_Mpro/naturecomm/supplementary_file_S2/6-chemical-library/molecular_docking/3D_ligand_structure/2803.pdb
REMARK  7 active torsions:
REMARK  status: ('A' for Active; 'I' for Inactive)
REMARK    1  A    between atoms: C6_6  and  C7_7
REMARK    2  A    between atoms: C7_7  and  C8_8
REMARK    3  A    between atoms: C8_8  and  N1_9
REMARK    4  A    between atoms: C9_10  and  C10_12
REMARK    5  A    between atoms: C10_12  and  N2_13
REMARK    6  A    between atoms: N2_13  and  C11_14
REMARK    7  A    between atoms: C16_19  and  C17_20
REMARK                            x       y       z     vdW  Elec       q    Type
REMARK                         _______ _______ _______ _____ _____    ______ ____
ROOT
ATOM      1  C10 UNL     1      -0.727   3.096   0.877  0.00  0.00    +0.000 C 
ENDROOT
BRANCH   1   3
ATOM      2  N1  UNL     1       1.146   1.779   0.029  0.00  0.00    +0.000 N 
ATOM      3  C9  UNL     1       0.747   2.684   0.994  0.00  0.00    +0.000 C 
ATOM      4  O1  UNL     1       1.496   3.149   1.849  0.00  0.00    +0.000 OA
ATOM      5  H10 UNL     1       0.357   1.296  -0.400  0.00  0.00    +0.000 HD
BRANCH   2   6
ATOM      6  C8  UNL     1       2.425   1.105   0.113  0.00  0.00    +0.000 C 
BRANCH   6   7
ATOM      7  C7  UNL     1       2.799   0.446  -1.213  0.00  0.00    +0.000 C 
BRANCH   7  13
ATOM      8  C1  UNL     1       5.320   0.375  -1.329  0.00  0.00    +0.000 A 
ATOM      9  C2  UNL     1       6.533  -0.309  -1.228  0.00  0.00    +0.000 A 
ATOM     10  C3  UNL     1       6.545  -1.667  -0.917  0.00  0.00    +0.000 A 
ATOM     11  C4  UNL     1       5.345  -2.343  -0.705  0.00  0.00    +0.000 A 
ATOM     12  C5  UNL     1       4.131  -1.662  -0.806  0.00  0.00    +0.000 A 
ATOM     13  C6  UNL     1       4.108  -0.297  -1.123  0.00  0.00    +0.000 A 
ENDBRANCH   7  13
ENDBRANCH   6   7
ENDBRANCH   2   6
ENDBRANCH   1   3
BRANCH   1  14
ATOM     14  N2  UNL     1      -1.520   2.123   0.093  0.00  0.00    +0.000 N 
ATOM     15  H13 UNL     1      -2.209   2.596  -0.489  0.00  0.00    +0.000 HD
BRANCH  14  16
ATOM     16  C11 UNL     1      -2.088   1.012   0.734  0.00  0.00    +0.000 A 
ATOM     17  C12 UNL     1      -1.610   0.473   1.928  0.00  0.00    +0.000 A 
ATOM     18  C13 UNL     1      -2.172  -0.686   2.462  0.00  0.00    +0.000 A 
ATOM     19  C14 UNL     1      -3.205  -1.340   1.791  0.00  0.00    +0.000 A 
ATOM     20  C15 UNL     1      -3.101   0.306   0.060  0.00  0.00    +0.000 A 
ATOM     21  C16 UNL     1      -3.701  -0.872   0.562  0.00  0.00    +0.000 A 
BRANCH  21  22
ATOM     22  C17 UNL     1      -4.859  -1.639  -0.206  0.00  0.00    +0.000 C 
ATOM     23  C18 UNL     1      -6.085  -0.855  -0.701  0.00  0.00    +0.000 C 
ATOM     24  O2  UNL     1      -5.970  -1.426  -2.026  0.00  0.00    +0.000 OA
ATOM     25  C19 UNL     1      -4.679  -1.990  -1.691  0.00  0.00    +0.000 C 
ENDBRANCH  21  22
ENDBRANCH  14  16
ENDBRANCH   1  14
TORSDOF 7
