REMARK  Name = /home/anacleto/Desktop/manuscript_Mpro/naturecomm/supplementary_file_S2/6-chemical-library/molecular_docking/3D_ligand_structure/2819.pdb
REMARK  3 active torsions:
REMARK  status: ('A' for Active; 'I' for Inactive)
REMARK    1  A    between atoms: C5_7  and  C6_9
REMARK    2  A    between atoms: N4_14  and  S1_15
REMARK    3  A    between atoms: S1_15  and  C10_18
REMARK                            x       y       z     vdW  Elec       q    Type
REMARK                         _______ _______ _______ _____ _____    ______ ____
ROOT
ATOM      1  C6  UNL     1      -0.056  -0.783   0.841  0.00  0.00    +0.000 C 
ATOM      2  C7  UNL     1      -0.258  -1.400   2.240  0.00  0.00    +0.000 C 
ATOM      3  N3  UNL     1       0.384  -2.720   2.409  0.00  0.00    +0.000 NA
ATOM      4  C8  UNL     1       1.667  -2.800   1.685  0.00  0.00    +0.000 C 
ATOM      5  C9  UNL     1       2.313  -1.442   1.355  0.00  0.00    +0.000 C 
ATOM      6  N4  UNL     1       1.403  -0.598   0.537  0.00  0.00    +0.000 NA
ATOM      7  H13 UNL     1       0.539  -2.882   3.405  0.00  0.00    +0.000 HD
ENDROOT
BRANCH   1  14
ATOM      8  C1  UNL     1      -2.644   2.006   0.157  0.00  0.00    +0.000 C 
ATOM      9  C2  UNL     1      -3.395   2.145  -1.178  0.00  0.00    +0.000 C 
ATOM     10  N1  UNL     1      -4.444   1.133  -1.405  0.00  0.00    +0.000 NA
ATOM     11  C3  UNL     1      -4.217  -0.092  -0.625  0.00  0.00    +0.000 C 
ATOM     12  C4  UNL     1      -2.739  -0.423  -0.350  0.00  0.00    +0.000 C 
ATOM     13  N2  UNL     1      -2.019   0.686   0.284  0.00  0.00    +0.000 N 
ATOM     14  C5  UNL     1      -0.743   0.595   0.825  0.00  0.00    +0.000 C 
ATOM     15  O1  UNL     1      -0.179   1.579   1.317  0.00  0.00    +0.000 OA
ATOM     16  H5  UNL     1      -4.462   0.910  -2.401  0.00  0.00    +0.000 HD
ENDBRANCH   1  14
BRANCH   6  17
ATOM     17  S1  UNL     1       1.758  -0.456  -1.105  0.00  0.00    +0.000 S 
ATOM     18  O2  UNL     1       0.705   0.286  -1.762  0.00  0.00    +0.000 OA
ATOM     19  O3  UNL     1       2.191  -1.749  -1.588  0.00  0.00    +0.000 OA
BRANCH  17  20
ATOM     20  C10 UNL     1       3.141   0.572  -1.249  0.00  0.00    +0.000 A 
ATOM     21  C11 UNL     1       3.278   1.797  -0.527  0.00  0.00    +0.000 A 
ATOM     22  C12 UNL     1       4.469   2.427  -0.814  0.00  0.00    +0.000 A 
ATOM     23  S2  UNL     1       5.409   1.545  -1.943  0.00  0.00    +0.000 S 
ATOM     24  C13 UNL     1       4.223   0.316  -2.062  0.00  0.00    +0.000 A 
ENDBRANCH  17  20
ENDBRANCH   6  17
TORSDOF 3
