REMARK  Name = /home/anacleto/Desktop/manuscript_Mpro/naturecomm/supplementary_file_S2/6-chemical-library/molecular_docking/3D_ligand_structure/2822.pdb
REMARK  4 active torsions:
REMARK  status: ('A' for Active; 'I' for Inactive)
REMARK    1  A    between atoms: C4_5  and  C5_6
REMARK    2  A    between atoms: C9_13  and  C10_14
REMARK    3  A    between atoms: N4_16  and  C11_17
REMARK    4  A    between atoms: C11_17  and  C12_18
REMARK                            x       y       z     vdW  Elec       q    Type
REMARK                         _______ _______ _______ _____ _____    ______ ____
ROOT
ATOM      1  C5  UNL     1      -2.604  -1.118   1.134  0.00  0.00    +0.000 C 
ATOM      2  O1  UNL     1      -3.540  -1.726   1.669  0.00  0.00    +0.000 OA
ATOM      3  N2  UNL     1      -1.607  -1.810   0.466  0.00  0.00    +0.000 N 
ATOM      4  C6  UNL     1      -1.677  -3.275   0.462  0.00  0.00    +0.000 C 
ATOM      5  C7  UNL     1      -0.613  -3.926  -0.442  0.00  0.00    +0.000 C 
ATOM      6  N3  UNL     1       0.766  -3.520  -0.127  0.00  0.00    +0.000 NA
ATOM      7  C8  UNL     1      -0.387  -1.243  -0.115  0.00  0.00    +0.000 C 
ATOM      8  C9  UNL     1       0.851  -2.083   0.253  0.00  0.00    +0.000 C 
ATOM      9  H13 UNL     1       1.355  -3.665  -0.955  0.00  0.00    +0.000 HD
ENDROOT
BRANCH   1  14
ATOM     10  N1  UNL     1      -1.395   0.930   1.942  0.00  0.00    +0.000 NA
ATOM     11  C1  UNL     1      -1.296   2.331   1.536  0.00  0.00    +0.000 C 
ATOM     12  C2  UNL     1      -1.592   2.283   0.047  0.00  0.00    +0.000 C 
ATOM     13  C3  UNL     1      -2.618   1.166  -0.108  0.00  0.00    +0.000 C 
ATOM     14  C4  UNL     1      -2.586   0.420   1.221  0.00  0.00    +0.000 C 
ATOM     15  H1  UNL     1      -1.553   0.852   2.948  0.00  0.00    +0.000 HD
ENDBRANCH   1  14
BRANCH   8  16
ATOM     16  C10 UNL     1       2.078  -1.437  -0.409  0.00  0.00    +0.000 C 
ATOM     17  O2  UNL     1       2.558  -1.859  -1.459  0.00  0.00    +0.000 OA
ATOM     18  N4  UNL     1       2.563  -0.332   0.258  0.00  0.00    +0.000 N 
ATOM     19  H17 UNL     1       2.042   0.042   1.042  0.00  0.00    +0.000 HD
BRANCH  18  20
ATOM     20  C11 UNL     1       3.591   0.509  -0.309  0.00  0.00    +0.000 C 
BRANCH  20  21
ATOM     21  C12 UNL     1       2.920   1.656  -0.997  0.00  0.00    +0.000 A 
ATOM     22  C13 UNL     1       2.418   1.701  -2.284  0.00  0.00    +0.000 A 
ATOM     23  C14 UNL     1       1.840   2.964  -2.597  0.00  0.00    +0.000 A 
ATOM     24  C15 UNL     1       1.919   3.843  -1.540  0.00  0.00    +0.000 A 
ATOM     25  S1  UNL     1       2.682   3.143  -0.179  0.00  0.00    +0.000 S 
ENDBRANCH  20  21
ENDBRANCH  18  20
ENDBRANCH   8  16
TORSDOF 4
