REMARK  Name = /home/anacleto/Desktop/manuscript_Mpro/naturecomm/supplementary_file_S2/6-chemical-library/molecular_docking/3D_ligand_structure/2826.pdb
REMARK  4 active torsions:
REMARK  status: ('A' for Active; 'I' for Inactive)
REMARK    1  A    between atoms: C4_6  and  N3_7
REMARK    2  A    between atoms: C9_15  and  C10_16
REMARK    3  A    between atoms: C10_16  and  C11_17
REMARK    4  A    between atoms: C11_17  and  C12_18
REMARK                            x       y       z     vdW  Elec       q    Type
REMARK                         _______ _______ _______ _____ _____    ______ ____
ROOT
ATOM      1  N3  UNL     1      -2.589   1.063  -0.122  0.00  0.00    +0.000 N 
ATOM      2  C5  UNL     1      -1.265   0.784   0.078  0.00  0.00    +0.000 C 
ATOM      3  O1  UNL     1      -0.471   1.542   0.631  0.00  0.00    +0.000 OA
ATOM      4  N4  UNL     1      -0.857  -0.448  -0.438  0.00  0.00    +0.000 N 
ATOM      5  C6  UNL     1      -1.752  -1.610  -0.534  0.00  0.00    +0.000 C 
ATOM      6  C7  UNL     1      -1.234  -2.744   0.357  0.00  0.00    +0.000 C 
ATOM      7  O2  UNL     1       0.086  -3.187   0.023  0.00  0.00    +0.000 OA
ATOM      8  C8  UNL     1       0.830  -2.256  -0.775  0.00  0.00    +0.000 C 
ATOM      9  C9  UNL     1       0.590  -0.778  -0.381  0.00  0.00    +0.000 C 
ATOM     10  H4  UNL     1      -3.066   0.573  -0.861  0.00  0.00    +0.000 HD
ENDROOT
BRANCH   1  16
ATOM     11  N1  UNL     1      -4.539   2.267  -0.215  0.00  0.00    +0.000 NA
ATOM     12  C1  UNL     1      -5.289   3.299   0.198  0.00  0.00    +0.000 A 
ATOM     13  N2  UNL     1      -4.938   4.217   1.107  0.00  0.00    +0.000 NA
ATOM     14  C2  UNL     1      -3.713   4.064   1.638  0.00  0.00    +0.000 A 
ATOM     15  C3  UNL     1      -2.855   3.045   1.292  0.00  0.00    +0.000 A 
ATOM     16  C4  UNL     1      -3.317   2.163   0.340  0.00  0.00    +0.000 A 
ENDBRANCH   1  16
BRANCH   9  17
ATOM     17  C10 UNL     1       1.418   0.158  -1.294  0.00  0.00    +0.000 C 
BRANCH  17  18
ATOM     18  C11 UNL     1       2.655   0.742  -0.602  0.00  0.00    +0.000 C 
BRANCH  18  19
ATOM     19  C12 UNL     1       3.702  -0.285  -0.282  0.00  0.00    +0.000 A 
ATOM     20  C13 UNL     1       3.975  -0.871   0.938  0.00  0.00    +0.000 A 
ATOM     21  C14 UNL     1       5.044  -1.809   0.861  0.00  0.00    +0.000 A 
ATOM     22  C15 UNL     1       5.560  -1.899  -0.412  0.00  0.00    +0.000 A 
ATOM     23  S1  UNL     1       4.759  -0.856  -1.504  0.00  0.00    +0.000 S 
ENDBRANCH  18  19
ENDBRANCH  17  18
ENDBRANCH   9  17
TORSDOF 4
