REMARK  Name = /home/anacleto/Desktop/manuscript_Mpro/naturecomm/supplementary_file_S2/6-chemical-library/molecular_docking/3D_ligand_structure/2827.pdb
REMARK  5 active torsions:
REMARK  status: ('A' for Active; 'I' for Inactive)
REMARK    1  A    between atoms: C5_6  and  C6_7
REMARK    2  A    between atoms: C6_7  and  N2_8
REMARK    3  A    between atoms: C7_9  and  C8_11
REMARK    4  A    between atoms: C10_15  and  C11_16
REMARK    5  A    between atoms: C11_16  and  N4_17
REMARK                            x       y       z     vdW  Elec       q    Type
REMARK                         _______ _______ _______ _____ _____    ______ ____
ROOT
ATOM      1  C8  UNL     1       0.427  -0.558   0.415  0.00  0.00    +0.000 A 
ATOM      2  N3  UNL     1      -0.793  -1.046   0.296  0.00  0.00    +0.000 NA
ATOM      3  S1  UNL     1       0.637   0.563   1.705  0.00  0.00    +0.000 S 
ATOM      4  C9  UNL     1      -1.012   0.383   2.124  0.00  0.00    +0.000 A 
ATOM      5  C10 UNL     1      -1.628  -0.512   1.268  0.00  0.00    +0.000 A 
ENDROOT
BRANCH   1   7
ATOM      6  N2  UNL     1       2.749  -0.326  -0.240  0.00  0.00    +0.000 N 
ATOM      7  C7  UNL     1       1.527  -0.935  -0.481  0.00  0.00    +0.000 C 
ATOM      8  O1  UNL     1       1.411  -1.735  -1.410  0.00  0.00    +0.000 OA
ATOM      9  H7  UNL     1       2.797   0.410   0.454  0.00  0.00    +0.000 HD
BRANCH   6  10
ATOM     10  C6  UNL     1       3.872  -0.540  -1.120  0.00  0.00    +0.000 C 
BRANCH  10  16
ATOM     11  C1  UNL     1       5.606   1.284  -1.060  0.00  0.00    +0.000 A 
ATOM     12  N1  UNL     1       6.707   1.908  -0.584  0.00  0.00    +0.000 NA
ATOM     13  C2  UNL     1       7.356   1.305   0.434  0.00  0.00    +0.000 A 
ATOM     14  C3  UNL     1       6.952   0.110   1.003  0.00  0.00    +0.000 A 
ATOM     15  C4  UNL     1       5.812  -0.508   0.497  0.00  0.00    +0.000 A 
ATOM     16  C5  UNL     1       5.116   0.081  -0.563  0.00  0.00    +0.000 A 
ENDBRANCH  10  16
ENDBRANCH   6  10
ENDBRANCH   1   7
BRANCH   5  17
ATOM     17  C11 UNL     1      -3.071  -0.930   1.300  0.00  0.00    +0.000 C 
BRANCH  17  18
ATOM     18  N4  UNL     1      -3.940   0.171   0.849  0.00  0.00    +0.000 NA
ATOM     19  C12 UNL     1      -5.368  -0.146   1.073  0.00  0.00    +0.000 C 
ATOM     20  C13 UNL     1      -6.094  -0.649  -0.184  0.00  0.00    +0.000 C 
ATOM     21  O2  UNL     1      -6.078   0.303  -1.255  0.00  0.00    +0.000 OA
ATOM     22  C14 UNL     1      -4.923   1.153  -1.235  0.00  0.00    +0.000 C 
ATOM     23  C15 UNL     1      -3.703   0.485  -0.584  0.00  0.00    +0.000 C 
ENDBRANCH  17  18
ENDBRANCH   5  17
TORSDOF 5
