REMARK  Name = /home/anacleto/Desktop/manuscript_Mpro/naturecomm/supplementary_file_S2/6-chemical-library/molecular_docking/3D_ligand_structure/2828.pdb
REMARK  5 active torsions:
REMARK  status: ('A' for Active; 'I' for Inactive)
REMARK    1  A    between atoms: C4_5  and  C5_6
REMARK    2  A    between atoms: N1_8  and  C6_9
REMARK    3  A    between atoms: C11_14  and  C12_15
REMARK    4  A    between atoms: C12_15  and  S1_16
REMARK    5  A    between atoms: S1_16  and  C13_17
REMARK                            x       y       z     vdW  Elec       q    Type
REMARK                         _______ _______ _______ _____ _____    ______ ____
ROOT
ATOM      1  C6  UNL     1       2.416   1.044   0.058  0.00  0.00    +0.000 A 
ATOM      2  C7  UNL     1       2.514   2.386   0.422  0.00  0.00    +0.000 A 
ATOM      3  C8  UNL     1       1.391   3.218   0.371  0.00  0.00    +0.000 A 
ATOM      4  C9  UNL     1       0.160   2.717  -0.050  0.00  0.00    +0.000 A 
ATOM      5  C10 UNL     1       1.173   0.549  -0.367  0.00  0.00    +0.000 A 
ATOM      6  C11 UNL     1       0.040   1.377  -0.433  0.00  0.00    +0.000 A 
ENDROOT
BRANCH   1   9
ATOM      7  C5  UNL     1       4.813   0.376   0.439  0.00  0.00    +0.000 C 
ATOM      8  O2  UNL     1       5.253   1.483   0.736  0.00  0.00    +0.000 OA
ATOM      9  N1  UNL     1       3.490   0.129   0.095  0.00  0.00    +0.000 N 
ATOM     10  H4  UNL     1       3.259  -0.816  -0.171  0.00  0.00    +0.000 HD
BRANCH   7  15
ATOM     11  O1  UNL     1       7.005  -0.637   0.641  0.00  0.00    +0.000 OA
ATOM     12  C1  UNL     1       7.601  -1.852   0.566  0.00  0.00    +0.000 A 
ATOM     13  C2  UNL     1       6.673  -2.824   0.286  0.00  0.00    +0.000 A 
ATOM     14  C3  UNL     1       5.425  -2.158   0.185  0.00  0.00    +0.000 A 
ATOM     15  C4  UNL     1       5.663  -0.810   0.407  0.00  0.00    +0.000 A 
ENDBRANCH   7  15
ENDBRANCH   1   9
BRANCH   6  16
ATOM     16  C12 UNL     1      -1.288   0.827  -0.888  0.00  0.00    +0.000 C 
BRANCH  16  17
ATOM     17  S1  UNL     1      -2.139  -0.054   0.460  0.00  0.00    +0.000 S 
BRANCH  17  18
ATOM     18  C13 UNL     1      -3.692  -0.503  -0.407  0.00  0.00    +0.000 C 
ATOM     19  C14 UNL     1      -4.642   0.694  -0.546  0.00  0.00    +0.000 C 
ATOM     20  C15 UNL     1      -5.788   0.602   0.451  0.00  0.00    +0.000 C 
ATOM     21  O3  UNL     1      -6.565  -0.580   0.263  0.00  0.00    +0.000 OA
ATOM     22  C16 UNL     1      -5.821  -1.759  -0.046  0.00  0.00    +0.000 C 
ATOM     23  C17 UNL     1      -4.352  -1.669   0.340  0.00  0.00    +0.000 C 
ENDBRANCH  17  18
ENDBRANCH  16  17
ENDBRANCH   6  16
TORSDOF 5
