REMARK  Name = /home/anacleto/Desktop/manuscript_Mpro/naturecomm/supplementary_file_S2/6-chemical-library/molecular_docking/3D_ligand_structure/2830.pdb
REMARK  6 active torsions:
REMARK  status: ('A' for Active; 'I' for Inactive)
REMARK    1  A    between atoms: C3_5  and  C4_6
REMARK    2  A    between atoms: C4_6  and  C5_7
REMARK    3  A    between atoms: N3_9  and  C6_10
REMARK    4  A    between atoms: C6_10  and  C7_11
REMARK    5  A    between atoms: C7_11  and  S1_16
REMARK    6  A    between atoms: S1_16  and  C12_17
REMARK                            x       y       z     vdW  Elec       q    Type
REMARK                         _______ _______ _______ _____ _____    ______ ____
ROOT
ATOM      1  C6  UNL     1      -0.136  -0.121   0.361  0.00  0.00    +0.000 C 
ENDROOT
BRANCH   1   2
ATOM      2  C7  UNL     1      -1.106  -1.231  -0.109  0.00  0.00    +0.000 C 
ATOM      3  C8  UNL     1      -1.480  -1.091  -1.603  0.00  0.00    +0.000 C 
ATOM      4  C9  UNL     1      -1.485  -2.509  -2.154  0.00  0.00    +0.000 C 
ATOM      5  C10 UNL     1      -0.320  -3.155  -1.429  0.00  0.00    +0.000 C 
ATOM      6  C11 UNL     1      -0.463  -2.646   0.002  0.00  0.00    +0.000 C 
BRANCH   2   7
ATOM      7  S1  UNL     1      -2.631  -1.273   0.973  0.00  0.00    +0.000 S 
BRANCH   7   8
ATOM      8  C12 UNL     1      -3.262   0.389   0.852  0.00  0.00    +0.000 A 
ATOM      9  C13 UNL     1      -2.848   1.369   1.759  0.00  0.00    +0.000 A 
ATOM     10  C14 UNL     1      -3.362   2.665   1.682  0.00  0.00    +0.000 A 
ATOM     11  C15 UNL     1      -4.309   2.983   0.710  0.00  0.00    +0.000 A 
ATOM     12  C16 UNL     1      -4.749   2.004  -0.178  0.00  0.00    +0.000 A 
ATOM     13  C17 UNL     1      -4.233   0.708  -0.102  0.00  0.00    +0.000 A 
ENDBRANCH   7   8
ENDBRANCH   2   7
ENDBRANCH   1   2
BRANCH   1  16
ATOM     14  C5  UNL     1       1.986   0.982  -0.220  0.00  0.00    +0.000 C 
ATOM     15  O1  UNL     1       1.677   2.020   0.363  0.00  0.00    +0.000 OA
ATOM     16  N3  UNL     1       1.151  -0.113  -0.327  0.00  0.00    +0.000 N 
ATOM     17  H6  UNL     1       1.609  -1.002  -0.484  0.00  0.00    +0.000 HD
BRANCH  14  18
ATOM     18  C4  UNL     1       3.358   0.794  -0.854  0.00  0.00    +0.000 C 
BRANCH  18  23
ATOM     19  N1  UNL     1       4.487   1.522   1.275  0.00  0.00    +0.000 N 
ATOM     20  C1  UNL     1       5.536   1.111   2.044  0.00  0.00    +0.000 A 
ATOM     21  N2  UNL     1       6.126   0.056   1.529  0.00  0.00    +0.000 NA
ATOM     22  C2  UNL     1       5.430  -0.228   0.383  0.00  0.00    +0.000 A 
ATOM     23  C3  UNL     1       4.394   0.663   0.204  0.00  0.00    +0.000 A 
ATOM     24  H1  UNL     1       3.863   2.298   1.472  0.00  0.00    +0.000 HD
ENDBRANCH  18  23
ENDBRANCH  14  18
ENDBRANCH   1  16
TORSDOF 6
