REMARK  Name = /home/anacleto/Desktop/manuscript_Mpro/naturecomm/supplementary_file_S2/6-chemical-library/molecular_docking/3D_ligand_structure/2831.pdb
REMARK  6 active torsions:
REMARK  status: ('A' for Active; 'I' for Inactive)
REMARK    1  A    between atoms: C5_6  and  C6_7
REMARK    2  A    between atoms: C6_7  and  N2_8
REMARK    3  A    between atoms: N2_8  and  C7_9
REMARK    4  A    between atoms: C12_14  and  C13_15
REMARK    5  A    between atoms: C13_15  and  S1_16
REMARK    6  A    between atoms: S1_16  and  C14_17
REMARK                            x       y       z     vdW  Elec       q    Type
REMARK                         _______ _______ _______ _____ _____    ______ ____
ROOT
ATOM      1  C7  UNL     1       1.446  -0.064  -0.852  0.00  0.00    +0.000 A 
ATOM      2  C8  UNL     1       1.224   0.881  -1.857  0.00  0.00    +0.000 A 
ATOM      3  C9  UNL     1      -0.033   1.018  -2.453  0.00  0.00    +0.000 A 
ATOM      4  C10 UNL     1      -1.086   0.192  -2.069  0.00  0.00    +0.000 A 
ATOM      5  C11 UNL     1       0.382  -0.915  -0.511  0.00  0.00    +0.000 A 
ATOM      6  C12 UNL     1      -0.896  -0.784  -1.084  0.00  0.00    +0.000 A 
ENDROOT
BRANCH   1   7
ATOM      7  N2  UNL     1       2.698  -0.302  -0.272  0.00  0.00    +0.000 N 
ATOM      8  H7  UNL     1       2.605  -0.734   0.646  0.00  0.00    +0.000 HD
BRANCH   7   9
ATOM      9  C6  UNL     1       3.706   0.751  -0.286  0.00  0.00    +0.000 C 
BRANCH   9  15
ATOM     10  C1  UNL     1       5.375   1.065   1.579  0.00  0.00    +0.000 A 
ATOM     11  N1  UNL     1       6.459   0.741   2.321  0.00  0.00    +0.000 NA
ATOM     12  C2  UNL     1       7.115  -0.388   1.976  0.00  0.00    +0.000 A 
ATOM     13  C3  UNL     1       6.739  -1.205   0.923  0.00  0.00    +0.000 A 
ATOM     14  C4  UNL     1       5.621  -0.844   0.177  0.00  0.00    +0.000 A 
ATOM     15  C5  UNL     1       4.910   0.315   0.504  0.00  0.00    +0.000 A 
ENDBRANCH   9  15
ENDBRANCH   7   9
ENDBRANCH   1   7
BRANCH   6  16
ATOM     16  C13 UNL     1      -2.022  -1.717  -0.707  0.00  0.00    +0.000 C 
BRANCH  16  17
ATOM     17  S1  UNL     1      -2.362  -1.783   1.086  0.00  0.00    +0.000 S 
BRANCH  17  18
ATOM     18  C14 UNL     1      -3.692  -0.538   1.299  0.00  0.00    +0.000 C 
ATOM     19  C15 UNL     1      -5.026  -1.004   0.712  0.00  0.00    +0.000 C 
ATOM     20  C16 UNL     1      -6.095   0.054   0.964  0.00  0.00    +0.000 C 
ATOM     21  O1  UNL     1      -5.689   1.318   0.440  0.00  0.00    +0.000 OA
ATOM     22  C17 UNL     1      -4.500   1.808   1.061  0.00  0.00    +0.000 C 
ATOM     23  C18 UNL     1      -3.336   0.861   0.799  0.00  0.00    +0.000 C 
ENDBRANCH  17  18
ENDBRANCH  16  17
ENDBRANCH   6  16
TORSDOF 6
