REMARK  Name = /home/anacleto/Desktop/manuscript_Mpro/naturecomm/supplementary_file_S2/6-chemical-library/molecular_docking/3D_ligand_structure/2842.pdb
REMARK  3 active torsions:
REMARK  status: ('A' for Active; 'I' for Inactive)
REMARK    1  A    between atoms: C5_6  and  C6_7
REMARK    2  A    between atoms: C6_7  and  N2_8
REMARK    3  A    between atoms: C7_9  and  C8_11
REMARK                            x       y       z     vdW  Elec       q    Type
REMARK                         _______ _______ _______ _____ _____    ______ ____
ROOT
ATOM      1  C8  UNL     1       0.148  -0.279  -2.100  0.00  0.00    +0.000 A 
ATOM      2  C9  UNL     1      -0.212   0.260  -3.309  0.00  0.00    +0.000 A 
ATOM      3  C10 UNL     1      -1.517   0.651  -3.382  0.00  0.00    +0.000 A 
ATOM      4  N3  UNL     1      -2.385   0.528  -2.360  0.00  0.00    +0.000 NA
ATOM      5  C11 UNL     1      -1.947  -0.001  -1.203  0.00  0.00    +0.000 A 
ATOM      6  N4  UNL     1      -0.687  -0.421  -1.040  0.00  0.00    +0.000 NA
ATOM      7  N5  UNL     1      -2.837  -0.144  -0.159  0.00  0.00    +0.000 N 
ATOM      8  C12 UNL     1      -4.150   0.490  -0.309  0.00  0.00    +0.000 C 
ATOM      9  C13 UNL     1      -4.995   0.220   0.946  0.00  0.00    +0.000 C 
ATOM     10  O2  UNL     1      -4.410   0.723   2.158  0.00  0.00    +0.000 OA
ATOM     11  C14 UNL     1      -2.978   0.811   2.107  0.00  0.00    +0.000 C 
ATOM     12  C15 UNL     1      -2.321  -0.250   1.209  0.00  0.00    +0.000 C 
ENDROOT
BRANCH   1  14
ATOM     13  N2  UNL     1       1.778  -1.336  -0.665  0.00  0.00    +0.000 N 
ATOM     14  C7  UNL     1       1.552  -0.752  -1.891  0.00  0.00    +0.000 C 
ATOM     15  O1  UNL     1       2.411  -0.609  -2.753  0.00  0.00    +0.000 OA
ATOM     16  H7  UNL     1       1.004  -1.309  -0.007  0.00  0.00    +0.000 HD
BRANCH  13  17
ATOM     17  C6  UNL     1       3.092  -1.715  -0.212  0.00  0.00    +0.000 C 
BRANCH  17  23
ATOM     18  C1  UNL     1       4.330   0.447   0.125  0.00  0.00    +0.000 A 
ATOM     19  N1  UNL     1       4.874   1.447   0.857  0.00  0.00    +0.000 NA
ATOM     20  C2  UNL     1       4.762   1.347   2.199  0.00  0.00    +0.000 A 
ATOM     21  C3  UNL     1       4.129   0.297   2.842  0.00  0.00    +0.000 A 
ATOM     22  C4  UNL     1       3.579  -0.718   2.065  0.00  0.00    +0.000 A 
ATOM     23  C5  UNL     1       3.683  -0.657   0.672  0.00  0.00    +0.000 A 
ENDBRANCH  17  23
ENDBRANCH  13  17
ENDBRANCH   1  14
TORSDOF 3
