REMARK  Name = /home/anacleto/Desktop/manuscript_Mpro/naturecomm/supplementary_file_S2/6-chemical-library/molecular_docking/3D_ligand_structure/2874.pdb
REMARK  3 active torsions:
REMARK  status: ('A' for Active; 'I' for Inactive)
REMARK    1  A    between atoms: C6_6  and  C7_7
REMARK    2  A    between atoms: C8_8  and  S1_13
REMARK    3  A    between atoms: S1_13  and  N1_16
REMARK                            x       y       z     vdW  Elec       q    Type
REMARK                         _______ _______ _______ _____ _____    ______ ____
ROOT
ATOM      1  C7  UNL     1       1.844  -0.365  -1.033  0.00  0.00    +0.000 A 
ATOM      2  C8  UNL     1       0.534  -0.852  -0.866  0.00  0.00    +0.000 A 
ATOM      3  C9  UNL     1      -0.139  -1.482  -1.928  0.00  0.00    +0.000 A 
ATOM      4  C10 UNL     1       0.467  -1.599  -3.177  0.00  0.00    +0.000 A 
ATOM      5  C11 UNL     1       1.748  -1.096  -3.370  0.00  0.00    +0.000 A 
ATOM      6  C12 UNL     1       2.429  -0.493  -2.310  0.00  0.00    +0.000 A 
ENDROOT
BRANCH   1  12
ATOM      7  C1  UNL     1       3.147  -0.587   1.087  0.00  0.00    +0.000 A 
ATOM      8  C2  UNL     1       3.935  -0.039   2.102  0.00  0.00    +0.000 A 
ATOM      9  C3  UNL     1       4.250   1.318   2.085  0.00  0.00    +0.000 A 
ATOM     10  C4  UNL     1       3.778   2.128   1.055  0.00  0.00    +0.000 A 
ATOM     11  C5  UNL     1       2.989   1.580   0.040  0.00  0.00    +0.000 A 
ATOM     12  C6  UNL     1       2.657   0.216   0.045  0.00  0.00    +0.000 A 
ENDBRANCH   1  12
BRANCH   2  13
ATOM     13  S1  UNL     1      -0.325  -0.683   0.688  0.00  0.00    +0.000 S 
ATOM     14  O1  UNL     1      -0.118  -1.919   1.412  0.00  0.00    +0.000 OA
ATOM     15  O2  UNL     1      -0.035   0.610   1.270  0.00  0.00    +0.000 OA
BRANCH  13  16
ATOM     16  N1  UNL     1      -1.981  -0.617   0.237  0.00  0.00    +0.000 NA
ATOM     17  C13 UNL     1      -2.387   0.629  -0.499  0.00  0.00    +0.000 C 
ATOM     18  C14 UNL     1      -3.251   1.560   0.368  0.00  0.00    +0.000 C 
ATOM     19  N2  UNL     1      -4.497   0.947   0.859  0.00  0.00    +0.000 NA
ATOM     20  C15 UNL     1      -4.338  -0.503   1.073  0.00  0.00    +0.000 C 
ATOM     21  C16 UNL     1      -2.896  -0.938   1.383  0.00  0.00    +0.000 C 
ATOM     22  H14 UNL     1      -5.249   1.098   0.188  0.00  0.00    +0.000 HD
ENDBRANCH  13  16
ENDBRANCH   2  13
TORSDOF 3
