REMARK  Name = /home/anacleto/Desktop/manuscript_Mpro/naturecomm/supplementary_file_S2/6-chemical-library/molecular_docking/3D_ligand_structure/2884.pdb
REMARK  3 active torsions:
REMARK  status: ('A' for Active; 'I' for Inactive)
REMARK    1  A    between atoms: C6_7  and  C7_9
REMARK    2  A    between atoms: C7_9  and  N2_10
REMARK    3  A    between atoms: C9_15  and  C10_16
REMARK                            x       y       z     vdW  Elec       q    Type
REMARK                         _______ _______ _______ _____ _____    ______ ____
ROOT
ATOM      1  N2  UNL     1       1.574  -1.534   1.387  0.00  0.00    +0.000 N 
ATOM      2  C8  UNL     1       1.503  -2.788   1.880  0.00  0.00    +0.000 A 
ATOM      3  O2  UNL     1       0.525  -3.328   2.377  0.00  0.00    +0.000 OA
ATOM      4  O3  UNL     1       2.733  -3.380   1.754  0.00  0.00    +0.000 OA
ATOM      5  N3  UNL     1       3.571  -2.432   1.102  0.00  0.00    +0.000 NA
ATOM      6  C9  UNL     1       2.825  -1.390   0.905  0.00  0.00    +0.000 A 
ENDROOT
BRANCH   6   7
ATOM      7  C10 UNL     1       3.315  -0.180   0.210  0.00  0.00    +0.000 A 
ATOM      8  C11 UNL     1       4.550  -0.211  -0.427  0.00  0.00    +0.000 A 
ATOM      9  N4  UNL     1       5.069   0.865  -1.076  0.00  0.00    +0.000 NA
ATOM     10  C12 UNL     1       4.294   1.972  -1.067  0.00  0.00    +0.000 A 
ATOM     11  C13 UNL     1       3.065   2.008  -0.430  0.00  0.00    +0.000 A 
ATOM     12  N5  UNL     1       2.549   0.943   0.229  0.00  0.00    +0.000 NA
ENDBRANCH   6   7
BRANCH   1  13
ATOM     13  C7  UNL     1       0.412  -0.664   1.318  0.00  0.00    +0.000 C 
BRANCH  13  20
ATOM     14  C1  UNL     1      -2.155   0.624   0.834  0.00  0.00    +0.000 C 
ATOM     15  C2  UNL     1      -3.156   1.624   0.268  0.00  0.00    +0.000 C 
ATOM     16  C3  UNL     1      -4.210   0.951  -0.609  0.00  0.00    +0.000 C 
ATOM     17  C4  UNL     1      -3.691  -0.303  -1.313  0.00  0.00    +0.000 C 
ATOM     18  C5  UNL     1      -2.178  -0.275  -1.499  0.00  0.00    +0.000 C 
ATOM     19  N1  UNL     1      -1.481  -0.137  -0.220  0.00  0.00    +0.000 N 
ATOM     20  C6  UNL     1      -0.246  -0.764  -0.064  0.00  0.00    +0.000 C 
ATOM     21  O1  UNL     1       0.303  -1.360  -0.995  0.00  0.00    +0.000 OA
ENDBRANCH  13  20
ENDBRANCH   1  13
TORSDOF 3
