REMARK  Name = /home/anacleto/Desktop/manuscript_Mpro/naturecomm/supplementary_file_S2/6-chemical-library/molecular_docking/3D_ligand_structure/2885.pdb
REMARK  5 active torsions:
REMARK  status: ('A' for Active; 'I' for Inactive)
REMARK    1  A    between atoms: C5_6  and  C6_8
REMARK    2  A    between atoms: C9_11  and  C10_13
REMARK    3  A    between atoms: C10_13  and  N2_14
REMARK    4  A    between atoms: N2_14  and  C11_15
REMARK    5  A    between atoms: C11_15  and  C12_16
REMARK                            x       y       z     vdW  Elec       q    Type
REMARK                         _______ _______ _______ _____ _____    ______ ____
ROOT
ATOM      1  C6  UNL     1      -1.346  -0.321  -0.235  0.00  0.00    +0.000 C 
ATOM      2  C7  UNL     1      -1.324  -1.358   0.887  0.00  0.00    +0.000 C 
ATOM      3  C8  UNL     1      -0.012  -2.079   0.687  0.00  0.00    +0.000 C 
ATOM      4  C9  UNL     1       0.146  -2.006  -0.819  0.00  0.00    +0.000 C 
ATOM      5  O2  UNL     1      -0.329  -0.701  -1.180  0.00  0.00    +0.000 OA
ENDROOT
BRANCH   1  11
ATOM      6  C1  UNL     1      -3.619   1.064   1.122  0.00  0.00    +0.000 C 
ATOM      7  C2  UNL     1      -4.918   1.847   1.260  0.00  0.00    +0.000 C 
ATOM      8  C3  UNL     1      -5.917   0.988   0.495  0.00  0.00    +0.000 C 
ATOM      9  C4  UNL     1      -5.094   0.479  -0.678  0.00  0.00    +0.000 C 
ATOM     10  N1  UNL     1      -3.742   0.380  -0.155  0.00  0.00    +0.000 N 
ATOM     11  C5  UNL     1      -2.745  -0.240  -0.884  0.00  0.00    +0.000 C 
ATOM     12  O1  UNL     1      -2.976  -0.726  -1.993  0.00  0.00    +0.000 OA
ENDBRANCH   1  11
BRANCH   4  13
ATOM     13  C10 UNL     1       1.565  -2.270  -1.355  0.00  0.00    +0.000 C 
BRANCH  13  14
ATOM     14  N2  UNL     1       2.676  -1.561  -0.699  0.00  0.00    +0.000 NA
ATOM     15  H17 UNL     1       3.551  -1.887  -1.110  0.00  0.00    +0.000 HD
BRANCH  14  16
ATOM     16  C11 UNL     1       2.607  -0.111  -0.900  0.00  0.00    +0.000 C 
BRANCH  16  17
ATOM     17  C12 UNL     1       3.894   0.550  -0.457  0.00  0.00    +0.000 A 
ATOM     18  C13 UNL     1       4.261   0.551   0.897  0.00  0.00    +0.000 A 
ATOM     19  C14 UNL     1       5.448   1.158   1.311  0.00  0.00    +0.000 A 
ATOM     20  C15 UNL     1       6.280   1.770   0.375  0.00  0.00    +0.000 A 
ATOM     21  C16 UNL     1       5.928   1.773  -0.974  0.00  0.00    +0.000 A 
ATOM     22  C17 UNL     1       4.742   1.165  -1.389  0.00  0.00    +0.000 A 
ENDBRANCH  16  17
ENDBRANCH  14  16
ENDBRANCH  13  14
ENDBRANCH   4  13
TORSDOF 5
