REMARK  Name = /home/anacleto/Desktop/manuscript_Mpro/naturecomm/supplementary_file_S2/6-chemical-library/molecular_docking/3D_ligand_structure/2893.pdb
REMARK  3 active torsions:
REMARK  status: ('A' for Active; 'I' for Inactive)
REMARK    1  A    between atoms: C6_7  and  C7_9
REMARK    2  A    between atoms: C9_11  and  C13_15
REMARK    3  A    between atoms: C13_15  and  N2_16
REMARK                            x       y       z     vdW  Elec       q    Type
REMARK                         _______ _______ _______ _____ _____    ______ ____
ROOT
ATOM      1  C7  UNL     1      -0.582  -0.188   0.125  0.00  0.00    +0.000 A 
ATOM      2  C8  UNL     1       0.722  -0.042  -0.360  0.00  0.00    +0.000 A 
ATOM      3  C9  UNL     1       1.469   1.098  -0.036  0.00  0.00    +0.000 A 
ATOM      4  C10 UNL     1       0.894   2.077   0.791  0.00  0.00    +0.000 A 
ATOM      5  C11 UNL     1      -0.399   1.916   1.294  0.00  0.00    +0.000 A 
ATOM      6  C12 UNL     1      -1.137   0.778   0.970  0.00  0.00    +0.000 A 
ENDROOT
BRANCH   1  13
ATOM      7  C1  UNL     1      -3.112  -0.145  -1.464  0.00  0.00    +0.000 C 
ATOM      8  C2  UNL     1      -4.574   0.079  -1.087  0.00  0.00    +0.000 C 
ATOM      9  C3  UNL     1      -5.413  -1.202  -1.123  0.00  0.00    +0.000 C 
ATOM     10  C4  UNL     1      -4.650  -2.387  -1.709  0.00  0.00    +0.000 C 
ATOM     11  C5  UNL     1      -3.304  -2.581  -1.015  0.00  0.00    +0.000 C 
ATOM     12  N1  UNL     1      -2.584  -1.329  -0.792  0.00  0.00    +0.000 N 
ATOM     13  C6  UNL     1      -1.325  -1.423  -0.199  0.00  0.00    +0.000 C 
ATOM     14  O1  UNL     1      -0.790  -2.495   0.080  0.00  0.00    +0.000 OA
ENDBRANCH   1  13
BRANCH   3  15
ATOM     15  C13 UNL     1       2.887   1.259  -0.525  0.00  0.00    +0.000 C 
BRANCH  15  16
ATOM     16  N2  UNL     1       3.851   1.087   0.545  0.00  0.00    +0.000 N 
ATOM     17  C14 UNL     1       4.072  -0.181   1.196  0.00  0.00    +0.000 C 
ATOM     18  C15 UNL     1       4.997   0.183   2.341  0.00  0.00    +0.000 C 
ATOM     19  C16 UNL     1       5.822   1.337   1.783  0.00  0.00    +0.000 C 
ATOM     20  C17 UNL     1       4.887   1.977   0.784  0.00  0.00    +0.000 C 
ATOM     21  O2  UNL     1       5.052   3.067   0.263  0.00  0.00    +0.000 OA
ENDBRANCH  15  16
ENDBRANCH   3  15
TORSDOF 3
