REMARK  Name = /home/anacleto/Desktop/manuscript_Mpro/naturecomm/supplementary_file_S2/6-chemical-library/molecular_docking/3D_ligand_structure/2897.pdb
REMARK  4 active torsions:
REMARK  status: ('A' for Active; 'I' for Inactive)
REMARK    1  A    between atoms: C6_6  and  C7_7
REMARK    2  A    between atoms: C7_7  and  C8_8
REMARK    3  A    between atoms: C13_15  and  C14_16
REMARK    4  A    between atoms: C14_16  and  N2_17
REMARK                            x       y       z     vdW  Elec       q    Type
REMARK                         _______ _______ _______ _____ _____    ______ ____
ROOT
ATOM      1  C8  UNL     1       1.542  -0.266  -0.882  0.00  0.00    +0.000 C 
ATOM      2  O1  UNL     1       2.175  -0.817  -1.782  0.00  0.00    +0.000 OA
ATOM      3  N1  UNL     1       0.217  -0.615  -0.605  0.00  0.00    +0.000 N 
ATOM      4  C9  UNL     1      -0.632   0.079   0.364  0.00  0.00    +0.000 C 
ATOM      5  C10 UNL     1      -0.383  -1.717  -1.358  0.00  0.00    +0.000 C 
ATOM      6  C11 UNL     1      -1.368  -2.499  -0.500  0.00  0.00    +0.000 C 
ATOM      7  C12 UNL     1      -2.487  -1.618   0.058  0.00  0.00    +0.000 C 
ATOM      8  C13 UNL     1      -2.127  -0.121   0.089  0.00  0.00    +0.000 C 
ENDROOT
BRANCH   1   9
ATOM      9  C7  UNL     1       2.146   0.841  -0.021  0.00  0.00    +0.000 C 
BRANCH   9  15
ATOM     10  C1  UNL     1       4.290   1.741  -1.019  0.00  0.00    +0.000 A 
ATOM     11  C2  UNL     1       5.683   1.813  -1.070  0.00  0.00    +0.000 A 
ATOM     12  C3  UNL     1       6.454   1.065  -0.182  0.00  0.00    +0.000 A 
ATOM     13  C4  UNL     1       5.833   0.239   0.752  0.00  0.00    +0.000 A 
ATOM     14  C5  UNL     1       4.440   0.164   0.805  0.00  0.00    +0.000 A 
ATOM     15  C6  UNL     1       3.654   0.923  -0.076  0.00  0.00    +0.000 A 
ENDBRANCH   9  15
ENDBRANCH   1   9
BRANCH   8  16
ATOM     16  C14 UNL     1      -2.963   0.651   1.121  0.00  0.00    +0.000 C 
BRANCH  16  17
ATOM     17  N2  UNL     1      -4.376   0.674   0.811  0.00  0.00    +0.000 N 
ATOM     18  C15 UNL     1      -5.386   0.003   1.431  0.00  0.00    +0.000 A 
ATOM     19  C16 UNL     1      -6.507   0.400   0.743  0.00  0.00    +0.000 A 
ATOM     20  N3  UNL     1      -6.152   1.279  -0.241  0.00  0.00    +0.000 NA
ATOM     21  N4  UNL     1      -4.837   1.445  -0.186  0.00  0.00    +0.000 NA
ENDBRANCH  16  17
ENDBRANCH   8  16
TORSDOF 4
