REMARK  Name = /home/anacleto/Desktop/manuscript_Mpro/naturecomm/supplementary_file_S2/6-chemical-library/molecular_docking/3D_ligand_structure/2903.pdb
REMARK  2 active torsions:
REMARK  status: ('A' for Active; 'I' for Inactive)
REMARK    1  A    between atoms: N2_8  and  C6_9
REMARK    2  A    between atoms: C8_11  and  N3_15
REMARK                            x       y       z     vdW  Elec       q    Type
REMARK                         _______ _______ _______ _____ _____    ______ ____
ROOT
ATOM      1  C6  UNL     1      -0.174   0.063   0.826  0.00  0.00    +0.000 A 
ATOM      2  C7  UNL     1       0.808   0.105  -0.178  0.00  0.00    +0.000 A 
ATOM      3  C8  UNL     1       2.183   0.160   0.120  0.00  0.00    +0.000 A 
ATOM      4  C9  UNL     1       2.552   0.163   1.466  0.00  0.00    +0.000 A 
ATOM      5  C10 UNL     1       1.588   0.117   2.476  0.00  0.00    +0.000 A 
ATOM      6  C11 UNL     1       0.231   0.066   2.158  0.00  0.00    +0.000 A 
ENDROOT
BRANCH   1  14
ATOM      7  C1  UNL     1      -5.109  -0.037   1.175  0.00  0.00    +0.000 C 
ATOM      8  C2  UNL     1      -6.140  -0.036   0.057  0.00  0.00    +0.000 C 
ATOM      9  C3  UNL     1      -5.473  -0.889  -1.014  0.00  0.00    +0.000 C 
ATOM     10  C4  UNL     1      -4.008  -0.491  -0.905  0.00  0.00    +0.000 C 
ATOM     11  N1  UNL     1      -3.831  -0.114   0.489  0.00  0.00    +0.000 N 
ATOM     12  C5  UNL     1      -2.652   0.061   1.192  0.00  0.00    +0.000 C 
ATOM     13  O1  UNL     1      -2.669   0.252   2.405  0.00  0.00    +0.000 OA
ATOM     14  N2  UNL     1      -1.521   0.003   0.410  0.00  0.00    +0.000 N 
ATOM     15  H9  UNL     1      -1.676   0.023  -0.583  0.00  0.00    +0.000 HD
ENDBRANCH   1  14
BRANCH   3  16
ATOM     16  N3  UNL     1       3.096   0.196  -0.940  0.00  0.00    +0.000 N 
ATOM     17  C12 UNL     1       4.484   0.244  -1.024  0.00  0.00    +0.000 A 
ATOM     18  N4  UNL     1       4.968   0.297  -2.279  0.00  0.00    +0.000 NA
ATOM     19  C13 UNL     1       6.307   0.345  -2.423  0.00  0.00    +0.000 A 
ATOM     20  C14 UNL     1       7.184   0.343  -1.370  0.00  0.00    +0.000 A 
ATOM     21  C15 UNL     1       6.600   0.286  -0.130  0.00  0.00    +0.000 A 
ATOM     22  N5  UNL     1       5.269   0.237   0.063  0.00  0.00    +0.000 NA
ATOM     23  H14 UNL     1       2.720   0.223  -1.875  0.00  0.00    +0.000 HD
ENDBRANCH   3  16
TORSDOF 2
