REMARK  Name = /home/anacleto/Desktop/manuscript_Mpro/naturecomm/supplementary_file_S2/6-chemical-library/molecular_docking/3D_ligand_structure/2905.pdb
REMARK  2 active torsions:
REMARK  status: ('A' for Active; 'I' for Inactive)
REMARK    1  A    between atoms: C5_7  and  C6_8
REMARK    2  A    between atoms: N3_13  and  C11_16
REMARK                            x       y       z     vdW  Elec       q    Type
REMARK                         _______ _______ _______ _____ _____    ______ ____
ROOT
ATOM      1  C6  UNL     1       2.384  -0.914   1.084  0.00  0.00    +0.000 C 
ATOM      2  O2  UNL     1       2.663  -1.626   2.047  0.00  0.00    +0.000 OA
ATOM      3  N2  UNL     1       1.092  -0.488   0.814  0.00  0.00    +0.000 N 
ATOM      4  C7  UNL     1       0.040  -0.844   1.768  0.00  0.00    +0.000 C 
ATOM      5  C8  UNL     1      -1.210   0.045   1.646  0.00  0.00    +0.000 C 
ATOM      6  N3  UNL     1      -1.731   0.089   0.266  0.00  0.00    +0.000 N 
ATOM      7  C9  UNL     1      -0.835  -0.378  -0.803  0.00  0.00    +0.000 C 
ATOM      8  C10 UNL     1       0.631  -0.010  -0.498  0.00  0.00    +0.000 C 
ENDROOT
BRANCH   1  15
ATOM      9  N1  UNL     1       3.509   0.878  -0.264  0.00  0.00    +0.000 N 
ATOM     10  C1  UNL     1       4.552   1.354  -1.012  0.00  0.00    +0.000 A 
ATOM     11  C2  UNL     1       5.547   0.571  -1.445  0.00  0.00    +0.000 A 
ATOM     12  C3  UNL     1       5.515  -0.866  -1.061  0.00  0.00    +0.000 A 
ATOM     13  O1  UNL     1       6.379  -1.641  -1.456  0.00  0.00    +0.000 OA
ATOM     14  C4  UNL     1       4.414  -1.331  -0.181  0.00  0.00    +0.000 A 
ATOM     15  C5  UNL     1       3.473  -0.438   0.163  0.00  0.00    +0.000 A 
ATOM     16  H1  UNL     1       2.913   1.537   0.230  0.00  0.00    +0.000 HD
ENDBRANCH   1  15
BRANCH   6  17
ATOM     17  C11 UNL     1      -3.089   0.276   0.044  0.00  0.00    +0.000 A 
ATOM     18  C12 UNL     1      -3.885   0.999   0.950  0.00  0.00    +0.000 A 
ATOM     19  C13 UNL     1      -5.254   1.205   0.738  0.00  0.00    +0.000 A 
ATOM     20  C14 UNL     1      -5.868   0.691  -0.397  0.00  0.00    +0.000 A 
ATOM     21  C15 UNL     1      -5.110  -0.023  -1.316  0.00  0.00    +0.000 A 
ATOM     22  C16 UNL     1      -3.740  -0.222  -1.096  0.00  0.00    +0.000 A 
ENDBRANCH   6  17
TORSDOF 2
