REMARK  Name = /home/anacleto/Desktop/manuscript_Mpro/naturecomm/supplementary_file_S2/6-chemical-library/molecular_docking/3D_ligand_structure/2909.pdb
REMARK  4 active torsions:
REMARK  status: ('A' for Active; 'I' for Inactive)
REMARK    1  A    between atoms: C2_5  and  C4_8
REMARK    2  A    between atoms: C4_8  and  C5_9
REMARK    3  A    between atoms: C7_11  and  O3_15
REMARK    4  A    between atoms: O3_15  and  C11_16
REMARK                            x       y       z     vdW  Elec       q    Type
REMARK                         _______ _______ _______ _____ _____    ______ ____
ROOT
ATOM      1  C5  UNL     1       1.244   0.404  -0.361  0.00  0.00    +0.000 A 
ATOM      2  C6  UNL     1       0.147   0.266   0.500  0.00  0.00    +0.000 A 
ATOM      3  C7  UNL     1      -1.024  -0.350   0.055  0.00  0.00    +0.000 A 
ATOM      4  C8  UNL     1      -1.099  -0.869  -1.239  0.00  0.00    +0.000 A 
ATOM      5  C9  UNL     1      -0.011  -0.735  -2.101  0.00  0.00    +0.000 A 
ATOM      6  C10 UNL     1       1.154  -0.100  -1.666  0.00  0.00    +0.000 A 
ENDROOT
BRANCH   1   7
ATOM      7  C4  UNL     1       2.518   1.057   0.122  0.00  0.00    +0.000 C 
BRANCH   7  12
ATOM      8  N1  UNL     1       5.743   0.106   0.910  0.00  0.00    +0.000 N 
ATOM      9  C1  UNL     1       5.347  -0.957   0.172  0.00  0.00    +0.000 C 
ATOM     10  O1  UNL     1       6.073  -1.783  -0.350  0.00  0.00    +0.000 OA
ATOM     11  N2  UNL     1       3.976  -0.961   0.118  0.00  0.00    +0.000 N 
ATOM     12  C2  UNL     1       3.393   0.094   0.917  0.00  0.00    +0.000 C 
ATOM     13  C3  UNL     1       4.669   0.785   1.397  0.00  0.00    +0.000 C 
ATOM     14  O2  UNL     1       4.726   1.778   2.106  0.00  0.00    +0.000 OA
ATOM     15  H1  UNL     1       6.703   0.332   1.102  0.00  0.00    +0.000 HD
ATOM     16  H2  UNL     1       3.466  -1.731  -0.299  0.00  0.00    +0.000 HD
ENDBRANCH   7  12
ENDBRANCH   1   7
BRANCH   3  17
ATOM     17  O3  UNL     1      -2.046  -0.480   0.968  0.00  0.00    +0.000 OA
BRANCH  17  18
ATOM     18  C11 UNL     1      -3.316  -0.159   0.545  0.00  0.00    +0.000 A 
ATOM     19  C12 UNL     1      -4.341  -1.037   0.898  0.00  0.00    +0.000 A 
ATOM     20  C13 UNL     1      -5.657  -0.754   0.530  0.00  0.00    +0.000 A 
ATOM     21  C14 UNL     1      -5.947   0.414  -0.176  0.00  0.00    +0.000 A 
ATOM     22  C15 UNL     1      -4.924   1.304  -0.508  0.00  0.00    +0.000 A 
ATOM     23  C16 UNL     1      -3.607   1.023  -0.141  0.00  0.00    +0.000 A 
ENDBRANCH  17  18
ENDBRANCH   3  17
TORSDOF 4
