REMARK  Name = /home/anacleto/Desktop/manuscript_Mpro/naturecomm/supplementary_file_S2/6-chemical-library/molecular_docking/3D_ligand_structure/2922.pdb
REMARK  4 active torsions:
REMARK  status: ('A' for Active; 'I' for Inactive)
REMARK    1  A    between atoms: C4_5  and  C5_6
REMARK    2  A    between atoms: N1_8  and  C6_9
REMARK    3  A    between atoms: C9_12  and  O3_15
REMARK    4  A    between atoms: O3_15  and  C12_16
REMARK                            x       y       z     vdW  Elec       q    Type
REMARK                         _______ _______ _______ _____ _____    ______ ____
ROOT
ATOM      1  C6  UNL     1       1.096   0.313   0.576  0.00  0.00    +0.000 A 
ATOM      2  C7  UNL     1       0.484   0.268   1.831  0.00  0.00    +0.000 A 
ATOM      3  C8  UNL     1      -0.882   0.537   1.963  0.00  0.00    +0.000 A 
ATOM      4  C9  UNL     1      -1.649   0.836   0.839  0.00  0.00    +0.000 A 
ATOM      5  C10 UNL     1      -1.046   0.906  -0.416  0.00  0.00    +0.000 A 
ATOM      6  C11 UNL     1       0.320   0.638  -0.545  0.00  0.00    +0.000 A 
ENDROOT
BRANCH   1   9
ATOM      7  C5  UNL     1       3.434  -0.288   1.277  0.00  0.00    +0.000 C 
ATOM      8  O2  UNL     1       3.257  -0.431   2.482  0.00  0.00    +0.000 OA
ATOM      9  N1  UNL     1       2.461   0.056   0.355  0.00  0.00    +0.000 N 
ATOM     10  H4  UNL     1       2.795   0.124  -0.600  0.00  0.00    +0.000 HD
BRANCH   7  15
ATOM     11  O1  UNL     1       4.879  -0.301  -0.691  0.00  0.00    +0.000 OA
ATOM     12  C1  UNL     1       6.184  -0.531  -0.990  0.00  0.00    +0.000 A 
ATOM     13  C2  UNL     1       6.891  -0.849   0.145  0.00  0.00    +0.000 A 
ATOM     14  C3  UNL     1       5.962  -0.811   1.212  0.00  0.00    +0.000 A 
ATOM     15  C4  UNL     1       4.739  -0.472   0.664  0.00  0.00    +0.000 A 
ENDBRANCH   7  15
ENDBRANCH   1   9
BRANCH   4  16
ATOM     16  O3  UNL     1      -2.979   1.122   1.045  0.00  0.00    +0.000 OA
BRANCH  16  17
ATOM     17  C12 UNL     1      -3.888   0.538   0.192  0.00  0.00    +0.000 A 
ATOM     18  C13 UNL     1      -3.877  -0.829  -0.099  0.00  0.00    +0.000 A 
ATOM     19  C14 UNL     1      -4.851  -1.364  -0.944  0.00  0.00    +0.000 A 
ATOM     20  C15 UNL     1      -5.839  -0.539  -1.482  0.00  0.00    +0.000 A 
ATOM     21  C16 UNL     1      -5.862   0.821  -1.170  0.00  0.00    +0.000 A 
ATOM     22  C17 UNL     1      -4.890   1.359  -0.326  0.00  0.00    +0.000 A 
ENDBRANCH  16  17
ENDBRANCH   4  16
TORSDOF 4
