REMARK  Name = /home/anacleto/Desktop/manuscript_Mpro/naturecomm/supplementary_file_S2/6-chemical-library/molecular_docking/3D_ligand_structure/2923.pdb
REMARK  4 active torsions:
REMARK  status: ('A' for Active; 'I' for Inactive)
REMARK    1  A    between atoms: N3_5  and  C3_6
REMARK    2  A    between atoms: C3_6  and  C4_7
REMARK    3  A    between atoms: N4_9  and  C5_10
REMARK    4  A    between atoms: C10_15  and  C11_16
REMARK                            x       y       z     vdW  Elec       q    Type
REMARK                         _______ _______ _______ _____ _____    ______ ____
ROOT
ATOM      1  C5  UNL     1      -0.790  -0.292   0.394  0.00  0.00    +0.000 A 
ATOM      2  C6  UNL     1      -0.390   1.042   0.260  0.00  0.00    +0.000 A 
ATOM      3  C7  UNL     1       0.961   1.397   0.349  0.00  0.00    +0.000 A 
ATOM      4  C8  UNL     1       0.184  -1.262   0.623  0.00  0.00    +0.000 A 
ATOM      5  C9  UNL     1       1.536  -0.905   0.711  0.00  0.00    +0.000 A 
ATOM      6  C10 UNL     1       1.950   0.429   0.576  0.00  0.00    +0.000 A 
ENDROOT
BRANCH   6   7
ATOM      7  C11 UNL     1       3.372   0.799   0.668  0.00  0.00    +0.000 A 
ATOM      8  C12 UNL     1       4.339   0.161  -0.126  0.00  0.00    +0.000 A 
ATOM      9  C13 UNL     1       5.689   0.512  -0.041  0.00  0.00    +0.000 A 
ATOM     10  C14 UNL     1       6.096   1.508   0.843  0.00  0.00    +0.000 A 
ATOM     11  C15 UNL     1       5.154   2.153   1.641  0.00  0.00    +0.000 A 
ATOM     12  C16 UNL     1       3.804   1.801   1.553  0.00  0.00    +0.000 A 
ENDBRANCH   6   7
BRANCH   1  15
ATOM     13  C4  UNL     1      -2.799  -1.795   0.314  0.00  0.00    +0.000 C 
ATOM     14  O1  UNL     1      -2.246  -2.888   0.430  0.00  0.00    +0.000 OA
ATOM     15  N4  UNL     1      -2.169  -0.561   0.295  0.00  0.00    +0.000 N 
ATOM     16  H5  UNL     1      -2.762   0.250   0.118  0.00  0.00    +0.000 HD
BRANCH  13  17
ATOM     17  C3  UNL     1      -4.311  -1.723   0.249  0.00  0.00    +0.000 C 
BRANCH  17  22
ATOM     18  N1  UNL     1      -4.748   0.433  -0.746  0.00  0.00    +0.000 NA
ATOM     19  N2  UNL     1      -5.190   0.927  -1.893  0.00  0.00    +0.000 NA
ATOM     20  C1  UNL     1      -5.501  -0.121  -2.714  0.00  0.00    +0.000 A 
ATOM     21  C2  UNL     1      -5.241  -1.304  -2.066  0.00  0.00    +0.000 A 
ATOM     22  N3  UNL     1      -4.770  -0.909  -0.852  0.00  0.00    +0.000 N 
ENDBRANCH  17  22
ENDBRANCH  13  17
ENDBRANCH   1  15
TORSDOF 4
