REMARK  Name = /home/anacleto/Desktop/manuscript_Mpro/naturecomm/supplementary_file_S2/6-chemical-library/molecular_docking/3D_ligand_structure/2924.pdb
REMARK  4 active torsions:
REMARK  status: ('A' for Active; 'I' for Inactive)
REMARK    1  A    between atoms: C5_6  and  N2_7
REMARK    2  A    between atoms: C6_8  and  C7_10
REMARK    3  A    between atoms: C7_10  and  C8_11
REMARK    4  A    between atoms: C10_13  and  C14_17
REMARK                            x       y       z     vdW  Elec       q    Type
REMARK                         _______ _______ _______ _____ _____    ______ ____
ROOT
ATOM      1  C8  UNL     1      -0.308   1.808   0.654  0.00  0.00    +0.000 A 
ATOM      2  C9  UNL     1      -0.909   0.689   1.267  0.00  0.00    +0.000 A 
ATOM      3  C10 UNL     1      -2.298   0.497   1.227  0.00  0.00    +0.000 A 
ATOM      4  C11 UNL     1      -3.081   1.448   0.562  0.00  0.00    +0.000 A 
ATOM      5  C12 UNL     1      -2.499   2.570  -0.032  0.00  0.00    +0.000 A 
ATOM      6  C13 UNL     1      -1.120   2.753   0.018  0.00  0.00    +0.000 A 
ENDROOT
BRANCH   3   7
ATOM      7  C14 UNL     1      -2.955  -0.649   1.860  0.00  0.00    +0.000 A 
ATOM      8  N3  UNL     1      -4.191  -1.062   1.637  0.00  0.00    +0.000 NA
ATOM      9  C15 UNL     1      -4.396  -2.141   2.453  0.00  0.00    +0.000 A 
ATOM     10  C16 UNL     1      -3.280  -2.393   3.207  0.00  0.00    +0.000 A 
ATOM     11  N4  UNL     1      -2.367  -1.454   2.812  0.00  0.00    +0.000 N 
ATOM     12  H14 UNL     1      -1.419  -1.366   3.150  0.00  0.00    +0.000 HD
ENDBRANCH   3   7
BRANCH   1  13
ATOM     13  C7  UNL     1       1.191   1.995   0.704  0.00  0.00    +0.000 C 
BRANCH  13  15
ATOM     14  N2  UNL     1       2.049   0.683  -1.148  0.00  0.00    +0.000 N 
ATOM     15  C6  UNL     1       1.953   0.763   0.231  0.00  0.00    +0.000 C 
ATOM     16  O1  UNL     1       2.395  -0.055   1.033  0.00  0.00    +0.000 OA
ATOM     17  H5  UNL     1       1.551   1.384  -1.683  0.00  0.00    +0.000 HD
BRANCH  14  23
ATOM     18  C1  UNL     1       3.434  -1.377  -1.345  0.00  0.00    +0.000 A 
ATOM     19  N1  UNL     1       4.066  -2.333  -2.078  0.00  0.00    +0.000 NA
ATOM     20  C2  UNL     1       3.960  -2.238  -3.416  0.00  0.00    +0.000 A 
ATOM     21  C3  UNL     1       3.259  -1.231  -4.059  0.00  0.00    +0.000 A 
ATOM     22  C4  UNL     1       2.625  -0.261  -3.283  0.00  0.00    +0.000 A 
ATOM     23  C5  UNL     1       2.705  -0.322  -1.891  0.00  0.00    +0.000 A 
ENDBRANCH  14  23
ENDBRANCH  13  15
ENDBRANCH   1  13
TORSDOF 4
