REMARK  Name = /home/anacleto/Desktop/manuscript_Mpro/naturecomm/supplementary_file_S2/6-chemical-library/molecular_docking/3D_ligand_structure/2925.pdb
REMARK  4 active torsions:
REMARK  status: ('A' for Active; 'I' for Inactive)
REMARK    1  A    between atoms: C5_6  and  N2_7
REMARK    2  A    between atoms: C6_8  and  C7_10
REMARK    3  A    between atoms: C7_10  and  C8_11
REMARK    4  A    between atoms: C10_13  and  C14_17
REMARK                            x       y       z     vdW  Elec       q    Type
REMARK                         _______ _______ _______ _____ _____    ______ ____
ROOT
ATOM      1  C8  UNL     1      -0.697  -1.451  -1.306  0.00  0.00    +0.000 A 
ATOM      2  C9  UNL     1      -1.529  -0.470  -0.738  0.00  0.00    +0.000 A 
ATOM      3  C10 UNL     1      -2.398  -0.780   0.320  0.00  0.00    +0.000 A 
ATOM      4  C11 UNL     1      -2.425  -2.095   0.801  0.00  0.00    +0.000 A 
ATOM      5  C12 UNL     1      -1.609  -3.079   0.236  0.00  0.00    +0.000 A 
ATOM      6  C13 UNL     1      -0.751  -2.760  -0.814  0.00  0.00    +0.000 A 
ENDROOT
BRANCH   3   7
ATOM      7  C14 UNL     1      -3.249   0.235   0.921  0.00  0.00    +0.000 A 
ATOM      8  C15 UNL     1      -3.830   0.311   2.210  0.00  0.00    +0.000 A 
ATOM      9  N3  UNL     1      -4.569   1.410   2.384  0.00  0.00    +0.000 NA
ATOM     10  N4  UNL     1      -4.465   2.046   1.207  0.00  0.00    +0.000 N 
ATOM     11  C16 UNL     1      -3.691   1.384   0.298  0.00  0.00    +0.000 A 
ATOM     12  H13 UNL     1      -4.954   2.928   1.092  0.00  0.00    +0.000 HD
ENDBRANCH   3   7
BRANCH   1  13
ATOM     13  C7  UNL     1       0.240  -1.095  -2.438  0.00  0.00    +0.000 C 
BRANCH  13  15
ATOM     14  N2  UNL     1       1.933  -0.239  -0.910  0.00  0.00    +0.000 N 
ATOM     15  C6  UNL     1       1.260  -0.014  -2.099  0.00  0.00    +0.000 C 
ATOM     16  O1  UNL     1       1.456   0.918  -2.875  0.00  0.00    +0.000 OA
ATOM     17  H5  UNL     1       1.623  -1.032  -0.357  0.00  0.00    +0.000 HD
BRANCH  14  23
ATOM     18  C1  UNL     1       3.469   0.178   0.903  0.00  0.00    +0.000 A 
ATOM     19  N1  UNL     1       4.456   0.833   1.561  0.00  0.00    +0.000 NA
ATOM     20  C2  UNL     1       4.962   1.923   0.948  0.00  0.00    +0.000 A 
ATOM     21  C3  UNL     1       4.526   2.379  -0.285  0.00  0.00    +0.000 A 
ATOM     22  C4  UNL     1       3.510   1.678  -0.937  0.00  0.00    +0.000 A 
ATOM     23  C5  UNL     1       2.957   0.547  -0.341  0.00  0.00    +0.000 A 
ENDBRANCH  14  23
ENDBRANCH  13  15
ENDBRANCH   1  13
TORSDOF 4
