REMARK  Name = /home/anacleto/Desktop/manuscript_Mpro/naturecomm/supplementary_file_S2/6-chemical-library/molecular_docking/3D_ligand_structure/2934.pdb
REMARK  3 active torsions:
REMARK  status: ('A' for Active; 'I' for Inactive)
REMARK    1  A    between atoms: C5_6  and  N2_7
REMARK    2  A    between atoms: C6_8  and  C7_10
REMARK    3  A    between atoms: C8_11  and  C13_16
REMARK                            x       y       z     vdW  Elec       q    Type
REMARK                         _______ _______ _______ _____ _____    ______ ____
ROOT
ATOM      1  C7  UNL     1      -0.555  -0.984  -1.711  0.00  0.00    +0.000 A 
ATOM      2  C8  UNL     1      -1.584  -1.187  -0.763  0.00  0.00    +0.000 A 
ATOM      3  C9  UNL     1      -2.556  -2.166  -1.053  0.00  0.00    +0.000 A 
ATOM      4  C10 UNL     1      -2.520  -2.905  -2.238  0.00  0.00    +0.000 A 
ATOM      5  C11 UNL     1      -1.512  -2.679  -3.169  0.00  0.00    +0.000 A 
ATOM      6  C12 UNL     1      -0.536  -1.720  -2.909  0.00  0.00    +0.000 A 
ENDROOT
BRANCH   2   7
ATOM      7  C13 UNL     1      -1.711  -0.414   0.485  0.00  0.00    +0.000 A 
ATOM      8  C14 UNL     1      -1.667  -1.056   1.735  0.00  0.00    +0.000 A 
ATOM      9  C15 UNL     1      -1.756  -0.325   2.921  0.00  0.00    +0.000 A 
ATOM     10  C16 UNL     1      -1.897   1.060   2.877  0.00  0.00    +0.000 A 
ATOM     11  C17 UNL     1      -1.954   1.713   1.648  0.00  0.00    +0.000 A 
ATOM     12  C18 UNL     1      -1.867   0.981   0.461  0.00  0.00    +0.000 A 
ENDBRANCH   2   7
BRANCH   1  14
ATOM     13  N2  UNL     1       1.183  -0.034  -0.305  0.00  0.00    +0.000 N 
ATOM     14  C6  UNL     1       0.555  -0.002  -1.535  0.00  0.00    +0.000 C 
ATOM     15  O1  UNL     1       0.845   0.713  -2.488  0.00  0.00    +0.000 OA
ATOM     16  H5  UNL     1       0.832  -0.702   0.370  0.00  0.00    +0.000 HD
BRANCH  13  22
ATOM     17  C1  UNL     1       2.686   0.648   1.453  0.00  0.00    +0.000 A 
ATOM     18  N1  UNL     1       3.683   1.375   2.015  0.00  0.00    +0.000 NA
ATOM     19  C2  UNL     1       4.256   2.309   1.229  0.00  0.00    +0.000 A 
ATOM     20  C3  UNL     1       3.879   2.543  -0.083  0.00  0.00    +0.000 A 
ATOM     21  C4  UNL     1       2.850   1.775  -0.630  0.00  0.00    +0.000 A 
ATOM     22  C5  UNL     1       2.230   0.798   0.143  0.00  0.00    +0.000 A 
ENDBRANCH  13  22
ENDBRANCH   1  14
TORSDOF 3
