REMARK  Name = /home/anacleto/Desktop/manuscript_Mpro/naturecomm/supplementary_file_S2/6-chemical-library/molecular_docking/3D_ligand_structure/2959.pdb
REMARK  5 active torsions:
REMARK  status: ('A' for Active; 'I' for Inactive)
REMARK    1  A    between atoms: C6_6  and  C7_7
REMARK    2  A    between atoms: C7_7  and  N1_8
REMARK    3  A    between atoms: C8_9  and  C9_11
REMARK    4  A    between atoms: C9_11  and  N2_12
REMARK    5  A    between atoms: N3_17  and  C13_18
REMARK                            x       y       z     vdW  Elec       q    Type
REMARK                         _______ _______ _______ _____ _____    ______ ____
ROOT
ATOM      1  N1  UNL     1      -1.174  -0.213  -0.346  0.00  0.00    +0.000 N 
ATOM      2  C8  UNL     1      -0.958  -1.504  -0.773  0.00  0.00    +0.000 C 
ATOM      3  O1  UNL     1      -1.700  -2.099  -1.551  0.00  0.00    +0.000 OA
ATOM      4  H8  UNL     1      -0.604   0.131   0.426  0.00  0.00    +0.000 HD
ENDROOT
BRANCH   1   5
ATOM      5  C7  UNL     1      -2.368   0.522  -0.679  0.00  0.00    +0.000 C 
BRANCH   5  11
ATOM      6  C1  UNL     1      -4.322  -0.653   0.402  0.00  0.00    +0.000 A 
ATOM      7  C2  UNL     1      -5.263  -0.782   1.424  0.00  0.00    +0.000 A 
ATOM      8  C3  UNL     1      -5.284   0.135   2.473  0.00  0.00    +0.000 A 
ATOM      9  C4  UNL     1      -4.360   1.179   2.503  0.00  0.00    +0.000 A 
ATOM     10  C5  UNL     1      -3.418   1.310   1.481  0.00  0.00    +0.000 A 
ATOM     11  C6  UNL     1      -3.397   0.401   0.414  0.00  0.00    +0.000 A 
ENDBRANCH   5  11
ENDBRANCH   1   5
BRANCH   2  12
ATOM     12  C9  UNL     1       0.270  -2.172  -0.148  0.00  0.00    +0.000 C 
BRANCH  12  13
ATOM     13  N2  UNL     1       1.500  -1.453  -0.435  0.00  0.00    +0.000 N 
ATOM     14  C10 UNL     1       1.875  -0.296   0.250  0.00  0.00    +0.000 C 
ATOM     15  O2  UNL     1       1.298   0.162   1.224  0.00  0.00    +0.000 OA
ATOM     16  C11 UNL     1       2.133  -1.492  -1.735  0.00  0.00    +0.000 C 
ATOM     17  C12 UNL     1       3.298  -0.519  -1.600  0.00  0.00    +0.000 C 
ATOM     18  N3  UNL     1       2.961   0.259  -0.433  0.00  0.00    +0.000 N 
BRANCH  18  19
ATOM     19  C13 UNL     1       3.567   1.509  -0.133  0.00  0.00    +0.000 C 
ATOM     20  C14 UNL     1       4.338   1.705   1.145  0.00  0.00    +0.000 C 
ATOM     21  C15 UNL     1       5.060   1.701  -0.168  0.00  0.00    +0.000 C 
ENDBRANCH  18  19
ENDBRANCH  12  13
ENDBRANCH   2  12
TORSDOF 5
