REMARK  Name = /home/anacleto/Desktop/manuscript_Mpro/naturecomm/supplementary_file_S2/6-chemical-library/molecular_docking/3D_ligand_structure/2971.pdb
REMARK  3 active torsions:
REMARK  status: ('A' for Active; 'I' for Inactive)
REMARK    1  A    between atoms: C6_6  and  N1_7
REMARK    2  A    between atoms: C7_8  and  C8_10
REMARK    3  A    between atoms: C9_11  and  C11_15
REMARK                            x       y       z     vdW  Elec       q    Type
REMARK                         _______ _______ _______ _____ _____    ______ ____
ROOT
ATOM      1  C8  UNL     1      -1.489  -1.350   0.428  0.00  0.00    +0.000 A 
ATOM      2  C9  UNL     1      -2.886  -1.048   0.290  0.00  0.00    +0.000 A 
ATOM      3  N2  UNL     1      -3.634  -1.944   0.961  0.00  0.00    +0.000 NA
ATOM      4  N3  UNL     1      -2.755  -2.778   1.520  0.00  0.00    +0.000 N 
ATOM      5  C10 UNL     1      -1.461  -2.470   1.243  0.00  0.00    +0.000 A 
ATOM      6  H13 UNL     1      -3.114  -3.547   2.077  0.00  0.00    +0.000 HD
ENDROOT
BRANCH   2   7
ATOM      7  C11 UNL     1      -3.547   0.041  -0.428  0.00  0.00    +0.000 A 
ATOM      8  C12 UNL     1      -4.735  -0.185  -1.132  0.00  0.00    +0.000 A 
ATOM      9  C13 UNL     1      -5.375   0.870  -1.780  0.00  0.00    +0.000 A 
ATOM     10  C14 UNL     1      -4.811   2.132  -1.693  0.00  0.00    +0.000 A 
ATOM     11  N4  UNL     1      -3.677   2.400  -1.014  0.00  0.00    +0.000 NA
ATOM     12  C15 UNL     1      -3.071   1.349  -0.403  0.00  0.00    +0.000 A 
ENDBRANCH   2   7
BRANCH   1  14
ATOM     13  N1  UNL     1       0.865  -0.931   0.447  0.00  0.00    +0.000 N 
ATOM     14  C7  UNL     1      -0.343  -0.686  -0.178  0.00  0.00    +0.000 C 
ATOM     15  O1  UNL     1      -0.443   0.047  -1.154  0.00  0.00    +0.000 OA
ATOM     16  H12 UNL     1       0.843  -1.359   1.362  0.00  0.00    +0.000 HD
BRANCH  13  22
ATOM     17  C1  UNL     1       2.092   1.202   0.626  0.00  0.00    +0.000 C 
ATOM     18  C2  UNL     1       3.500   1.763   0.837  0.00  0.00    +0.000 C 
ATOM     19  C3  UNL     1       4.503   1.168  -0.142  0.00  0.00    +0.000 C 
ATOM     20  C4  UNL     1       4.609  -0.350   0.005  0.00  0.00    +0.000 C 
ATOM     21  C5  UNL     1       3.317  -1.010   0.492  0.00  0.00    +0.000 C 
ATOM     22  C6  UNL     1       2.078  -0.228   0.055  0.00  0.00    +0.000 C 
ENDBRANCH  13  22
ENDBRANCH   1  14
TORSDOF 3
