REMARK  Name = /home/anacleto/Desktop/manuscript_Mpro/naturecomm/supplementary_file_S2/6-chemical-library/molecular_docking/3D_ligand_structure/2973.pdb
REMARK  3 active torsions:
REMARK  status: ('A' for Active; 'I' for Inactive)
REMARK    1  A    between atoms: C3_5  and  C4_6
REMARK    2  A    between atoms: N2_8  and  C5_9
REMARK    3  A    between atoms: C10_14  and  C11_15
REMARK                            x       y       z     vdW  Elec       q    Type
REMARK                         _______ _______ _______ _____ _____    ______ ____
ROOT
ATOM      1  C5  UNL     1       1.889   0.027  -0.030  0.00  0.00    +0.000 A 
ATOM      2  C6  UNL     1       1.099  -0.107   1.110  0.00  0.00    +0.000 A 
ATOM      3  C7  UNL     1      -0.299  -0.079   1.016  0.00  0.00    +0.000 A 
ATOM      4  C8  UNL     1       1.256   0.188  -1.268  0.00  0.00    +0.000 A 
ATOM      5  C9  UNL     1      -0.140   0.217  -1.363  0.00  0.00    +0.000 A 
ATOM      6  C10 UNL     1      -0.937   0.088  -0.220  0.00  0.00    +0.000 A 
ENDROOT
BRANCH   6   7
ATOM      7  C11 UNL     1      -2.450   0.115  -0.341  0.00  0.00    +0.000 C 
ATOM      8  C12 UNL     1      -3.101   1.174   0.560  0.00  0.00    +0.000 C 
ATOM      9  C13 UNL     1      -4.604   1.297   0.290  0.00  0.00    +0.000 C 
ATOM     10  C14 UNL     1      -5.252  -0.008  -0.175  0.00  0.00    +0.000 C 
ATOM     11  C15 UNL     1      -4.523  -1.230   0.366  0.00  0.00    +0.000 C 
ATOM     12  C16 UNL     1      -3.063  -1.279  -0.095  0.00  0.00    +0.000 C 
ENDBRANCH   6   7
BRANCH   1  15
ATOM     13  C4  UNL     1       4.152  -0.135   1.060  0.00  0.00    +0.000 C 
ATOM     14  O2  UNL     1       3.774  -0.274   2.218  0.00  0.00    +0.000 OA
ATOM     15  N2  UNL     1       3.301   0.010  -0.029  0.00  0.00    +0.000 N 
ATOM     16  H3  UNL     1       3.730   0.118  -0.936  0.00  0.00    +0.000 HD
BRANCH  13  21
ATOM     17  O1  UNL     1       6.458  -0.246   1.739  0.00  0.00    +0.000 OA
ATOM     18  N1  UNL     1       7.751  -0.200   1.245  0.00  0.00    +0.000 NA
ATOM     19  C1  UNL     1       7.621  -0.035  -0.070  0.00  0.00    +0.000 A 
ATOM     20  C2  UNL     1       6.272   0.029  -0.462  0.00  0.00    +0.000 A 
ATOM     21  C3  UNL     1       5.562  -0.109   0.714  0.00  0.00    +0.000 A 
ENDBRANCH  13  21
ENDBRANCH   1  15
TORSDOF 3
