REMARK  Name = /home/anacleto/Desktop/manuscript_Mpro/naturecomm/supplementary_file_S2/6-chemical-library/molecular_docking/3D_ligand_structure/2974.pdb
REMARK  3 active torsions:
REMARK  status: ('A' for Active; 'I' for Inactive)
REMARK    1  A    between atoms: C4_5  and  C5_6
REMARK    2  A    between atoms: N1_8  and  C6_9
REMARK    3  A    between atoms: C9_12  and  N2_15
REMARK                            x       y       z     vdW  Elec       q    Type
REMARK                         _______ _______ _______ _____ _____    ______ ____
ROOT
ATOM      1  C6  UNL     1       1.509  -0.042  -0.154  0.00  0.00    +0.000 A 
ATOM      2  C7  UNL     1       0.712   1.028  -0.567  0.00  0.00    +0.000 A 
ATOM      3  C8  UNL     1      -0.675   0.879  -0.721  0.00  0.00    +0.000 A 
ATOM      4  C9  UNL     1      -1.321  -0.337  -0.468  0.00  0.00    +0.000 A 
ATOM      5  C10 UNL     1      -0.497  -1.400  -0.061  0.00  0.00    +0.000 A 
ATOM      6  C11 UNL     1       0.891  -1.261   0.096  0.00  0.00    +0.000 A 
ENDROOT
BRANCH   4   7
ATOM      7  N2  UNL     1      -2.697  -0.520  -0.616  0.00  0.00    +0.000 N 
ATOM      8  C12 UNL     1      -3.366  -1.301   0.442  0.00  0.00    +0.000 C 
ATOM      9  C13 UNL     1      -4.872  -1.042   0.477  0.00  0.00    +0.000 C 
ATOM     10  C14 UNL     1      -5.187   0.451   0.561  0.00  0.00    +0.000 C 
ATOM     11  C15 UNL     1      -4.318   1.298  -0.374  0.00  0.00    +0.000 C 
ATOM     12  C16 UNL     1      -3.526   0.438  -1.353  0.00  0.00    +0.000 C 
ENDBRANCH   4   7
BRANCH   1  15
ATOM     13  C5  UNL     1       3.879  -0.693   0.386  0.00  0.00    +0.000 C 
ATOM     14  O2  UNL     1       3.663  -1.854   0.720  0.00  0.00    +0.000 OA
ATOM     15  N1  UNL     1       2.894   0.197  -0.025  0.00  0.00    +0.000 N 
ATOM     16  H4  UNL     1       3.192   1.132  -0.253  0.00  0.00    +0.000 HD
BRANCH  13  21
ATOM     17  O1  UNL     1       6.249  -0.926   0.829  0.00  0.00    +0.000 OA
ATOM     18  C1  UNL     1       7.397  -0.210   0.757  0.00  0.00    +0.000 A 
ATOM     19  C2  UNL     1       7.145   1.053   0.281  0.00  0.00    +0.000 A 
ATOM     20  C3  UNL     1       5.747   1.112   0.047  0.00  0.00    +0.000 A 
ATOM     21  C4  UNL     1       5.223  -0.124   0.395  0.00  0.00    +0.000 A 
ENDBRANCH  13  21
ENDBRANCH   1  15
TORSDOF 3
