REMARK  Name = /home/anacleto/Desktop/manuscript_Mpro/naturecomm/supplementary_file_S2/6-chemical-library/molecular_docking/3D_ligand_structure/2980.pdb
REMARK  3 active torsions:
REMARK  status: ('A' for Active; 'I' for Inactive)
REMARK    1  A    between atoms: C5_6  and  C6_7
REMARK    2  A    between atoms: C6_7  and  N2_8
REMARK    3  A    between atoms: C7_9  and  C8_11
REMARK                            x       y       z     vdW  Elec       q    Type
REMARK                         _______ _______ _______ _____ _____    ______ ____
ROOT
ATOM      1  N2  UNL     1      -0.534   0.003   1.604  0.00  0.00    +0.000 N 
ATOM      2  C7  UNL     1      -0.008  -1.274   1.540  0.00  0.00    +0.000 C 
ATOM      3  O1  UNL     1      -0.567  -2.252   2.028  0.00  0.00    +0.000 OA
ATOM      4  H7  UNL     1      -0.048   0.712   1.068  0.00  0.00    +0.000 HD
ENDROOT
BRANCH   2   5
ATOM      5  C8  UNL     1       1.280  -1.342   0.813  0.00  0.00    +0.000 A 
ATOM      6  N3  UNL     1       2.004  -2.507   0.653  0.00  0.00    +0.000 NA
ATOM      7  C9  UNL     1       3.049  -2.128  -0.043  0.00  0.00    +0.000 A 
ATOM      8  N4  UNL     1       2.972  -0.793  -0.305  0.00  0.00    +0.000 N 
ATOM      9  N5  UNL     1       1.849  -0.257   0.234  0.00  0.00    +0.000 NA
ATOM     10  C10 UNL     1       3.836   0.019  -1.002  0.00  0.00    +0.000 A 
ATOM     11  N6  UNL     1       4.957  -0.362  -1.569  0.00  0.00    +0.000 NA
ATOM     12  N7  UNL     1       5.512   0.754  -2.159  0.00  0.00    +0.000 NA
ATOM     13  C11 UNL     1       4.710   1.771  -1.933  0.00  0.00    +0.000 A 
ATOM     14  N8  UNL     1       3.639   1.354  -1.205  0.00  0.00    +0.000 N 
ATOM     15  H10 UNL     1       2.853   1.898  -0.879  0.00  0.00    +0.000 HD
ENDBRANCH   2   5
BRANCH   1  16
ATOM     16  C6  UNL     1      -1.858   0.268   2.108  0.00  0.00    +0.000 C 
BRANCH  16  22
ATOM     17  C1  UNL     1      -3.258   1.631   0.518  0.00  0.00    +0.000 A 
ATOM     18  N1  UNL     1      -4.123   1.810  -0.506  0.00  0.00    +0.000 NA
ATOM     19  C2  UNL     1      -4.606   0.693  -1.093  0.00  0.00    +0.000 A 
ATOM     20  C3  UNL     1      -4.259  -0.591  -0.708  0.00  0.00    +0.000 A 
ATOM     21  C4  UNL     1      -3.363  -0.742   0.346  0.00  0.00    +0.000 A 
ATOM     22  C5  UNL     1      -2.845   0.388   0.986  0.00  0.00    +0.000 A 
ENDBRANCH  16  22
ENDBRANCH   1  16
TORSDOF 3
