REMARK  Name = /home/anacleto/Desktop/manuscript_Mpro/naturecomm/supplementary_file_S2/6-chemical-library/molecular_docking/3D_ligand_structure/2990.pdb
REMARK  2 active torsions:
REMARK  status: ('A' for Active; 'I' for Inactive)
REMARK    1  A    between atoms: C4_6  and  C5_7
REMARK    2  A    between atoms: N4_12  and  C10_15
REMARK                            x       y       z     vdW  Elec       q    Type
REMARK                         _______ _______ _______ _____ _____    ______ ____
ROOT
ATOM      1  C5  UNL     1       2.528  -1.286  -0.969  0.00  0.00    +0.000 C 
ATOM      2  O1  UNL     1       2.781  -2.228  -1.722  0.00  0.00    +0.000 OA
ATOM      3  N3  UNL     1       1.224  -0.809  -0.792  0.00  0.00    +0.000 N 
ATOM      4  C6  UNL     1       0.913   0.598  -0.496  0.00  0.00    +0.000 C 
ATOM      5  C7  UNL     1      -0.455   0.768   0.191  0.00  0.00    +0.000 C 
ATOM      6  N4  UNL     1      -1.518   0.089  -0.593  0.00  0.00    +0.000 N 
ATOM      7  C8  UNL     1      -1.217  -1.342  -0.820  0.00  0.00    +0.000 C 
ATOM      8  C9  UNL     1       0.151  -1.509  -1.506  0.00  0.00    +0.000 C 
ENDROOT
BRANCH   1  14
ATOM      9  N1  UNL     1       3.430  -0.130   1.008  0.00  0.00    +0.000 NA
ATOM     10  C1  UNL     1       4.526   0.341   1.648  0.00  0.00    +0.000 A 
ATOM     11  C2  UNL     1       5.799   0.270   1.104  0.00  0.00    +0.000 A 
ATOM     12  N2  UNL     1       6.039  -0.282  -0.106  0.00  0.00    +0.000 NA
ATOM     13  C3  UNL     1       4.944  -0.769  -0.748  0.00  0.00    +0.000 A 
ATOM     14  C4  UNL     1       3.663  -0.681  -0.215  0.00  0.00    +0.000 A 
ENDBRANCH   1  14
BRANCH   6  15
ATOM     15  C10 UNL     1      -2.817   0.427  -0.174  0.00  0.00    +0.000 A 
ATOM     16  C11 UNL     1      -3.254   1.757  -0.299  0.00  0.00    +0.000 A 
ATOM     17  C12 UNL     1      -4.538   2.150   0.094  0.00  0.00    +0.000 A 
ATOM     18  C13 UNL     1      -5.420   1.214   0.618  0.00  0.00    +0.000 A 
ATOM     19  C14 UNL     1      -5.019  -0.112   0.741  0.00  0.00    +0.000 A 
ATOM     20  C15 UNL     1      -3.733  -0.500   0.344  0.00  0.00    +0.000 A 
ENDBRANCH   6  15
TORSDOF 2
