REMARK  Name = /home/anacleto/Desktop/manuscript_Mpro/naturecomm/supplementary_file_S2/6-chemical-library/molecular_docking/3D_ligand_structure/3007.pdb
REMARK  5 active torsions:
REMARK  status: ('A' for Active; 'I' for Inactive)
REMARK    1  A    between atoms: C5_6  and  N2_7
REMARK    2  A    between atoms: C6_8  and  C7_10
REMARK    3  A    between atoms: C7_10  and  C8_11
REMARK    4  A    between atoms: C10_13  and  N3_17
REMARK    5  A    between atoms: N3_17  and  C14_18
REMARK                            x       y       z     vdW  Elec       q    Type
REMARK                         _______ _______ _______ _____ _____    ______ ____
ROOT
ATOM      1  C7  UNL     1      -0.309   0.922  -1.854  0.00  0.00    +0.000 C 
ENDROOT
BRANCH   1   2
ATOM      2  C8  UNL     1       0.441  -0.345  -1.534  0.00  0.00    +0.000 A 
ATOM      3  C9  UNL     1       1.516  -0.308  -0.625  0.00  0.00    +0.000 A 
ATOM      4  C10 UNL     1       2.232  -1.468  -0.298  0.00  0.00    +0.000 A 
ATOM      5  C11 UNL     1       1.873  -2.669  -0.935  0.00  0.00    +0.000 A 
ATOM      6  C12 UNL     1       0.803  -2.722  -1.835  0.00  0.00    +0.000 A 
ATOM      7  C13 UNL     1       0.088  -1.566  -2.137  0.00  0.00    +0.000 A 
BRANCH   4   8
ATOM      8  N3  UNL     1       3.372  -1.451   0.537  0.00  0.00    +0.000 N 
ATOM      9  H12 UNL     1       3.540  -2.359   0.961  0.00  0.00    +0.000 HD
BRANCH   8  10
ATOM     10  C14 UNL     1       3.708  -0.286   1.350  0.00  0.00    +0.000 C 
ATOM     11  C15 UNL     1       4.436   0.889   0.759  0.00  0.00    +0.000 C 
ATOM     12  C16 UNL     1       5.143  -0.017   1.722  0.00  0.00    +0.000 C 
ENDBRANCH   8  10
ENDBRANCH   4   8
ENDBRANCH   1   2
BRANCH   1  14
ATOM     13  N2  UNL     1      -2.339   0.703  -0.557  0.00  0.00    +0.000 N 
ATOM     14  C6  UNL     1      -1.159   1.413  -0.692  0.00  0.00    +0.000 C 
ATOM     15  O1  UNL     1      -0.798   2.354   0.009  0.00  0.00    +0.000 OA
ATOM     16  H5  UNL     1      -2.472  -0.073  -1.187  0.00  0.00    +0.000 HD
BRANCH  13  22
ATOM     17  C1  UNL     1      -3.369   1.945   1.340  0.00  0.00    +0.000 A 
ATOM     18  N1  UNL     1      -4.400   2.184   2.193  0.00  0.00    +0.000 NA
ATOM     19  C2  UNL     1      -5.485   1.398   2.074  0.00  0.00    +0.000 A 
ATOM     20  C3  UNL     1      -5.592   0.385   1.141  0.00  0.00    +0.000 A 
ATOM     21  C4  UNL     1      -4.519   0.157   0.281  0.00  0.00    +0.000 A 
ATOM     22  C5  UNL     1      -3.378   0.953   0.363  0.00  0.00    +0.000 A 
ENDBRANCH  13  22
ENDBRANCH   1  14
TORSDOF 5
