REMARK  Name = /home/anacleto/Desktop/manuscript_Mpro/naturecomm/supplementary_file_S2/6-chemical-library/molecular_docking/3D_ligand_structure/3015.pdb
REMARK  3 active torsions:
REMARK  status: ('A' for Active; 'I' for Inactive)
REMARK    1  A    between atoms: C6_6  and  C7_7
REMARK    2  A    between atoms: C7_7  and  C8_8
REMARK    3  A    between atoms: N2_14  and  C11_15
REMARK                            x       y       z     vdW  Elec       q    Type
REMARK                         _______ _______ _______ _____ _____    ______ ____
ROOT
ATOM      1  C8  UNL     1      -0.386   0.695  -0.119  0.00  0.00    +0.000 C 
ATOM      2  C9  UNL     1       1.098   0.723   0.241  0.00  0.00    +0.000 C 
ATOM      3  O1  UNL     1       1.556   1.544   1.028  0.00  0.00    +0.000 OA
ATOM      4  N1  UNL     1      -0.416  -0.437  -0.996  0.00  0.00    +0.000 N 
ATOM      5  C10 UNL     1       0.836  -0.957  -1.225  0.00  0.00    +0.000 C 
ATOM      6  O2  UNL     1       0.998  -1.870  -2.018  0.00  0.00    +0.000 OA
ATOM      7  N2  UNL     1       1.753  -0.276  -0.455  0.00  0.00    +0.000 N 
ATOM      8  H9  UNL     1      -1.214  -0.733  -1.546  0.00  0.00    +0.000 HD
ENDROOT
BRANCH   7   9
ATOM      9  C11 UNL     1       3.152  -0.556  -0.403  0.00  0.00    +0.000 A 
ATOM     10  C12 UNL     1       4.041   0.201   0.372  0.00  0.00    +0.000 A 
ATOM     11  C13 UNL     1       5.406  -0.098   0.405  0.00  0.00    +0.000 A 
ATOM     12  C14 UNL     1       5.866  -1.161  -0.345  0.00  0.00    +0.000 A 
ATOM     13  N3  UNL     1       5.062  -1.924  -1.106  0.00  0.00    +0.000 NA
ATOM     14  C15 UNL     1       3.738  -1.607  -1.117  0.00  0.00    +0.000 A 
ENDBRANCH   7   9
BRANCH   1  15
ATOM     15  C7  UNL     1      -1.250   0.531   1.128  0.00  0.00    +0.000 C 
BRANCH  15  21
ATOM     16  C1  UNL     1      -3.418   1.720   0.603  0.00  0.00    +0.000 A 
ATOM     17  C2  UNL     1      -4.774   1.707   0.275  0.00  0.00    +0.000 A 
ATOM     18  C3  UNL     1      -5.448   0.495   0.138  0.00  0.00    +0.000 A 
ATOM     19  C4  UNL     1      -4.768  -0.706   0.332  0.00  0.00    +0.000 A 
ATOM     20  C5  UNL     1      -3.412  -0.695   0.661  0.00  0.00    +0.000 A 
ATOM     21  C6  UNL     1      -2.725   0.518   0.800  0.00  0.00    +0.000 A 
ENDBRANCH  15  21
ENDBRANCH   1  15
TORSDOF 3
