REMARK  Name = /home/anacleto/Desktop/manuscript_Mpro/naturecomm/supplementary_file_S2/6-chemical-library/molecular_docking/3D_ligand_structure/3022.pdb
REMARK  5 active torsions:
REMARK  status: ('A' for Active; 'I' for Inactive)
REMARK    1  A    between atoms: C3_3  and  N1_4
REMARK    2  A    between atoms: C4_5  and  C5_7
REMARK    3  A    between atoms: C5_7  and  N2_8
REMARK    4  A    between atoms: N2_8  and  C6_9
REMARK    5  A    between atoms: C11_14  and  C12_15
REMARK                            x       y       z     vdW  Elec       q    Type
REMARK                         _______ _______ _______ _____ _____    ______ ____
ROOT
ATOM      1  C6  UNL     1      -0.151   0.290   0.417  0.00  0.00    +0.000 A 
ATOM      2  C7  UNL     1       0.499   1.098  -0.518  0.00  0.00    +0.000 A 
ATOM      3  C8  UNL     1       1.871   0.956  -0.772  0.00  0.00    +0.000 A 
ATOM      4  C9  UNL     1       0.604  -0.711   1.042  0.00  0.00    +0.000 A 
ATOM      5  C10 UNL     1       1.975  -0.853   0.797  0.00  0.00    +0.000 A 
ATOM      6  C11 UNL     1       2.633  -0.017  -0.113  0.00  0.00    +0.000 A 
ENDROOT
BRANCH   6   7
ATOM      7  C12 UNL     1       4.070  -0.170  -0.379  0.00  0.00    +0.000 A 
ATOM      8  C13 UNL     1       5.011  -0.054   0.658  0.00  0.00    +0.000 A 
ATOM      9  C14 UNL     1       6.377  -0.208   0.410  0.00  0.00    +0.000 A 
ATOM     10  C15 UNL     1       6.824  -0.483  -0.881  0.00  0.00    +0.000 A 
ATOM     11  C16 UNL     1       5.907  -0.601  -1.923  0.00  0.00    +0.000 A 
ATOM     12  C17 UNL     1       4.542  -0.443  -1.673  0.00  0.00    +0.000 A 
ENDBRANCH   6   7
BRANCH   1  13
ATOM     13  N2  UNL     1      -1.532   0.324   0.654  0.00  0.00    +0.000 N 
ATOM     14  H9  UNL     1      -1.736  -0.048   1.584  0.00  0.00    +0.000 HD
BRANCH  13  15
ATOM     15  C5  UNL     1      -2.262   1.591   0.436  0.00  0.00    +0.000 C 
BRANCH  15  17
ATOM     16  N1  UNL     1      -4.178   0.108   0.273  0.00  0.00    +0.000 N 
ATOM     17  C4  UNL     1      -3.764   1.370   0.660  0.00  0.00    +0.000 C 
ATOM     18  O1  UNL     1      -4.507   2.240   1.105  0.00  0.00    +0.000 OA
ATOM     19  H6  UNL     1      -3.439  -0.533  -0.011  0.00  0.00    +0.000 HD
BRANCH  16  22
ATOM     20  C1  UNL     1      -6.470  -0.271  -0.753  0.00  0.00    +0.000 C 
ATOM     21  C2  UNL     1      -5.958  -1.605  -0.298  0.00  0.00    +0.000 C 
ATOM     22  C3  UNL     1      -5.517  -0.352   0.404  0.00  0.00    +0.000 C 
ENDBRANCH  16  22
ENDBRANCH  15  17
ENDBRANCH  13  15
ENDBRANCH   1  13
TORSDOF 5
