REMARK  Name = /home/anacleto/Desktop/manuscript_Mpro/naturecomm/supplementary_file_S2/6-chemical-library/molecular_docking/3D_ligand_structure/3034.pdb
REMARK  3 active torsions:
REMARK  status: ('A' for Active; 'I' for Inactive)
REMARK    1  A    between atoms: C6_6  and  C7_7
REMARK    2  A    between atoms: C8_8  and  N2_14
REMARK    3  A    between atoms: N2_14  and  C11_15
REMARK                            x       y       z     vdW  Elec       q    Type
REMARK                         _______ _______ _______ _____ _____    ______ ____
ROOT
ATOM      1  C7  UNL     1       1.263  -1.244  -0.007  0.00  0.00    +0.000 C 
ATOM      2  C8  UNL     1      -0.061  -1.139   0.209  0.00  0.00    +0.000 C 
ATOM      3  C9  UNL     1      -0.594  -2.538   0.219  0.00  0.00    +0.000 C 
ATOM      4  O1  UNL     1      -1.711  -2.902   0.535  0.00  0.00    +0.000 OA
ATOM      5  N1  UNL     1       0.419  -3.356  -0.133  0.00  0.00    +0.000 N 
ATOM      6  C10 UNL     1       1.581  -2.679  -0.172  0.00  0.00    +0.000 C 
ATOM      7  O2  UNL     1       2.691  -3.165  -0.288  0.00  0.00    +0.000 OA
ATOM      8  H6  UNL     1       0.355  -4.360  -0.114  0.00  0.00    +0.000 HD
ENDROOT
BRANCH   1  14
ATOM      9  C1  UNL     1       2.012   0.994  -0.814  0.00  0.00    +0.000 A 
ATOM     10  C2  UNL     1       2.945   2.034  -0.840  0.00  0.00    +0.000 A 
ATOM     11  C3  UNL     1       4.122   1.933  -0.102  0.00  0.00    +0.000 A 
ATOM     12  C4  UNL     1       4.369   0.793   0.658  0.00  0.00    +0.000 A 
ATOM     13  C5  UNL     1       3.437  -0.248   0.686  0.00  0.00    +0.000 A 
ATOM     14  C6  UNL     1       2.243  -0.155  -0.042  0.00  0.00    +0.000 A 
ENDBRANCH   1  14
BRANCH   2  15
ATOM     15  N2  UNL     1      -0.809  -0.026   0.526  0.00  0.00    +0.000 N 
ATOM     16  H7  UNL     1      -0.248   0.790   0.763  0.00  0.00    +0.000 HD
BRANCH  15  17
ATOM     17  C11 UNL     1      -2.088   0.341   0.060  0.00  0.00    +0.000 A 
ATOM     18  C12 UNL     1      -2.816  -0.379  -0.892  0.00  0.00    +0.000 A 
ATOM     19  C13 UNL     1      -4.097   0.029  -1.282  0.00  0.00    +0.000 A 
ATOM     20  C14 UNL     1      -4.676   1.160  -0.714  0.00  0.00    +0.000 A 
ATOM     21  C15 UNL     1      -3.977   1.880   0.249  0.00  0.00    +0.000 A 
ATOM     22  C16 UNL     1      -2.699   1.469   0.635  0.00  0.00    +0.000 A 
ENDBRANCH  15  17
ENDBRANCH   2  15
TORSDOF 3
