REMARK  Name = /home/anacleto/Desktop/manuscript_Mpro/naturecomm/supplementary_file_S2/6-chemical-library/molecular_docking/3D_ligand_structure/3038.pdb
REMARK  3 active torsions:
REMARK  status: ('A' for Active; 'I' for Inactive)
REMARK    1  A    between atoms: C6_6  and  C7_7
REMARK    2  A    between atoms: C7_7  and  C8_9
REMARK    3  A    between atoms: C13_14  and  C14_15
REMARK                            x       y       z     vdW  Elec       q    Type
REMARK                         _______ _______ _______ _____ _____    ______ ____
ROOT
ATOM      1  C8  UNL     1      -0.288  -1.295   0.062  0.00  0.00    +0.000 C 
ATOM      2  C9  UNL     1      -0.461  -2.818  -0.071  0.00  0.00    +0.000 C 
ATOM      3  C10 UNL     1      -1.845  -3.178  -0.608  0.00  0.00    +0.000 C 
ATOM      4  C11 UNL     1      -2.943  -2.425   0.079  0.00  0.00    +0.000 C 
ATOM      5  C12 UNL     1      -2.725  -1.329   0.822  0.00  0.00    +0.000 C 
ATOM      6  C13 UNL     1      -1.360  -0.693   1.007  0.00  0.00    +0.000 C 
ENDROOT
BRANCH   6   7
ATOM      7  C14 UNL     1      -1.417   0.823   0.844  0.00  0.00    +0.000 A 
ATOM      8  C15 UNL     1      -2.072   1.426  -0.243  0.00  0.00    +0.000 A 
ATOM      9  C16 UNL     1      -2.078   2.814  -0.391  0.00  0.00    +0.000 A 
ATOM     10  C17 UNL     1      -1.424   3.617   0.541  0.00  0.00    +0.000 A 
ATOM     11  C18 UNL     1      -0.765   3.034   1.621  0.00  0.00    +0.000 A 
ATOM     12  C19 UNL     1      -0.761   1.647   1.772  0.00  0.00    +0.000 A 
ENDBRANCH   6   7
BRANCH   1  13
ATOM     13  C7  UNL     1       1.106  -1.020   0.621  0.00  0.00    +0.000 C 
ATOM     14  O1  UNL     1       1.456  -1.461   1.717  0.00  0.00    +0.000 OA
BRANCH  13  20
ATOM     15  C1  UNL     1       3.458  -0.481   0.047  0.00  0.00    +0.000 A 
ATOM     16  C2  UNL     1       4.430   0.215  -0.674  0.00  0.00    +0.000 A 
ATOM     17  C3  UNL     1       4.047   1.158  -1.625  0.00  0.00    +0.000 A 
ATOM     18  C4  UNL     1       2.694   1.411  -1.850  0.00  0.00    +0.000 A 
ATOM     19  C5  UNL     1       1.719   0.714  -1.130  0.00  0.00    +0.000 A 
ATOM     20  C6  UNL     1       2.095  -0.244  -0.184  0.00  0.00    +0.000 A 
ENDBRANCH  13  20
ENDBRANCH   1  13
TORSDOF 3
