REMARK  Name = /home/anacleto/Desktop/manuscript_Mpro/naturecomm/supplementary_file_S2/6-chemical-library/molecular_docking/3D_ligand_structure/3049.pdb
REMARK  4 active torsions:
REMARK  status: ('A' for Active; 'I' for Inactive)
REMARK    1  A    between atoms: C2_5  and  S2_6
REMARK    2  A    between atoms: S2_6  and  C3_7
REMARK    3  A    between atoms: C3_7  and  C4_9
REMARK    4  A    between atoms: C7_12  and  C8_14
REMARK                            x       y       z     vdW  Elec       q    Type
REMARK                         _______ _______ _______ _____ _____    ______ ____
ROOT
ATOM      1  C4  UNL     1       0.919  -0.852  -0.742  0.00  0.00    +0.000 A 
ATOM      2  C5  UNL     1       0.288  -0.450  -1.908  0.00  0.00    +0.000 A 
ATOM      3  C6  UNL     1      -1.028  -0.043  -1.575  0.00  0.00    +0.000 A 
ATOM      4  C7  UNL     1      -1.199  -0.204  -0.212  0.00  0.00    +0.000 A 
ATOM      5  N3  UNL     1      -0.002  -0.680   0.271  0.00  0.00    +0.000 N 
ATOM      6  H4  UNL     1       0.200  -0.864   1.246  0.00  0.00    +0.000 HD
ENDROOT
BRANCH   4   7
ATOM      7  C8  UNL     1      -2.354   0.074   0.645  0.00  0.00    +0.000 A 
ATOM      8  C9  UNL     1      -2.628  -0.715   1.771  0.00  0.00    +0.000 A 
ATOM      9  C10 UNL     1      -3.732  -0.440   2.583  0.00  0.00    +0.000 A 
ATOM     10  C11 UNL     1      -4.575   0.627   2.279  0.00  0.00    +0.000 A 
ATOM     11  C12 UNL     1      -4.317   1.417   1.162  0.00  0.00    +0.000 A 
ATOM     12  C13 UNL     1      -3.214   1.141   0.349  0.00  0.00    +0.000 A 
ENDBRANCH   4   7
BRANCH   1  13
ATOM     13  C3  UNL     1       2.246  -1.357  -0.461  0.00  0.00    +0.000 C 
ATOM     14  O1  UNL     1       2.613  -1.696   0.659  0.00  0.00    +0.000 OA
BRANCH  13  15
ATOM     15  S2  UNL     1       3.302  -1.531  -1.851  0.00  0.00    +0.000 S 
BRANCH  15  20
ATOM     16  S1  UNL     1       6.175  -0.723  -1.269  0.00  0.00    +0.000 S 
ATOM     17  C1  UNL     1       6.397   0.873  -0.685  0.00  0.00    +0.000 A 
ATOM     18  N1  UNL     1       5.290   1.572  -0.561  0.00  0.00    +0.000 NA
ATOM     19  N2  UNL     1       4.179   0.838  -0.933  0.00  0.00    +0.000 NA
ATOM     20  C2  UNL     1       4.495  -0.383  -1.308  0.00  0.00    +0.000 A 
ENDBRANCH  15  20
ENDBRANCH  13  15
ENDBRANCH   1  13
TORSDOF 4
