REMARK  Name = /home/anacleto/Desktop/manuscript_Mpro/naturecomm/supplementary_file_S2/6-chemical-library/molecular_docking/3D_ligand_structure/3058.pdb
REMARK  3 active torsions:
REMARK  status: ('A' for Active; 'I' for Inactive)
REMARK    1  A    between atoms: C4_5  and  C5_6
REMARK    2  A    between atoms: C5_6  and  C6_7
REMARK    3  A    between atoms: N2_13  and  C9_14
REMARK                            x       y       z     vdW  Elec       q    Type
REMARK                         _______ _______ _______ _____ _____    ______ ____
ROOT
ATOM      1  C6  UNL     1       0.954  -0.425   0.374  0.00  0.00    +0.000 C 
ATOM      2  C7  UNL     1      -0.435  -0.958   0.031  0.00  0.00    +0.000 C 
ATOM      3  O1  UNL     1      -0.598  -2.064  -0.471  0.00  0.00    +0.000 OA
ATOM      4  N1  UNL     1       0.612   0.871   0.874  0.00  0.00    +0.000 N 
ATOM      5  C8  UNL     1      -0.747   1.085   0.908  0.00  0.00    +0.000 C 
ATOM      6  O2  UNL     1      -1.203   2.122   1.363  0.00  0.00    +0.000 OA
ATOM      7  N2  UNL     1      -1.385  -0.017   0.382  0.00  0.00    +0.000 N 
ATOM      8  H7  UNL     1       1.259   1.544   1.268  0.00  0.00    +0.000 HD
ENDROOT
BRANCH   7   9
ATOM      9  C9  UNL     1      -2.797  -0.166   0.229  0.00  0.00    +0.000 A 
ATOM     10  C10 UNL     1      -3.699   0.848   0.578  0.00  0.00    +0.000 A 
ATOM     11  C11 UNL     1      -5.077   0.677   0.418  0.00  0.00    +0.000 A 
ATOM     12  C12 UNL     1      -5.537  -0.519  -0.095  0.00  0.00    +0.000 A 
ATOM     13  N3  UNL     1      -4.721  -1.528  -0.447  0.00  0.00    +0.000 NA
ATOM     14  C13 UNL     1      -3.384  -1.329  -0.279  0.00  0.00    +0.000 A 
ENDBRANCH   7   9
BRANCH   1  15
ATOM     15  C5  UNL     1       1.848  -0.400  -0.864  0.00  0.00    +0.000 C 
BRANCH  15  20
ATOM     16  S1  UNL     1       3.714   1.667  -0.648  0.00  0.00    +0.000 S 
ATOM     17  C1  UNL     1       5.309   1.321  -0.140  0.00  0.00    +0.000 A 
ATOM     18  C2  UNL     1       5.492  -0.020   0.111  0.00  0.00    +0.000 A 
ATOM     19  C3  UNL     1       4.304  -0.773  -0.118  0.00  0.00    +0.000 A 
ATOM     20  C4  UNL     1       3.252   0.021  -0.530  0.00  0.00    +0.000 A 
ENDBRANCH  15  20
ENDBRANCH   1  15
TORSDOF 3
