REMARK  Name = /home/anacleto/Desktop/manuscript_Mpro/naturecomm/supplementary_file_S2/6-chemical-library/molecular_docking/3D_ligand_structure/3075.pdb
REMARK  4 active torsions:
REMARK  status: ('A' for Active; 'I' for Inactive)
REMARK    1  A    between atoms: C4_5  and  C5_6
REMARK    2  A    between atoms: C5_6  and  N1_7
REMARK    3  A    between atoms: N1_7  and  C6_8
REMARK    4  A    between atoms: C11_13  and  C12_14
REMARK                            x       y       z     vdW  Elec       q    Type
REMARK                         _______ _______ _______ _____ _____    ______ ____
ROOT
ATOM      1  C6  UNL     1       1.140  -1.145  -0.642  0.00  0.00    +0.000 A 
ATOM      2  C7  UNL     1       0.799   0.065  -1.252  0.00  0.00    +0.000 A 
ATOM      3  C8  UNL     1      -0.508   0.569  -1.189  0.00  0.00    +0.000 A 
ATOM      4  C9  UNL     1       0.108  -1.872  -0.035  0.00  0.00    +0.000 A 
ATOM      5  C10 UNL     1      -1.199  -1.372   0.032  0.00  0.00    +0.000 A 
ATOM      6  C11 UNL     1      -1.529  -0.136  -0.538  0.00  0.00    +0.000 A 
ENDROOT
BRANCH   6   7
ATOM      7  C12 UNL     1      -2.900   0.394  -0.470  0.00  0.00    +0.000 A 
ATOM      8  C13 UNL     1      -3.584   0.787  -1.632  0.00  0.00    +0.000 A 
ATOM      9  C14 UNL     1      -4.887   1.290  -1.567  0.00  0.00    +0.000 A 
ATOM     10  C15 UNL     1      -5.528   1.409  -0.337  0.00  0.00    +0.000 A 
ATOM     11  C16 UNL     1      -4.868   1.026   0.828  0.00  0.00    +0.000 A 
ATOM     12  C17 UNL     1      -3.566   0.522   0.761  0.00  0.00    +0.000 A 
ENDBRANCH   6   7
BRANCH   1  13
ATOM     13  N1  UNL     1       2.410  -1.727  -0.727  0.00  0.00    +0.000 N 
ATOM     14  H6  UNL     1       2.523  -2.457  -0.028  0.00  0.00    +0.000 HD
BRANCH  13  15
ATOM     15  C5  UNL     1       3.605  -0.885  -0.774  0.00  0.00    +0.000 C 
BRANCH  15  20
ATOM     16  C1  UNL     1       5.069  -0.880   1.327  0.00  0.00    +0.000 A 
ATOM     17  S1  UNL     1       5.343  -0.008   2.772  0.00  0.00    +0.000 S 
ATOM     18  C2  UNL     1       4.118   1.118   2.388  0.00  0.00    +0.000 A 
ATOM     19  C3  UNL     1       3.517   0.834   1.182  0.00  0.00    +0.000 A 
ATOM     20  C4  UNL     1       4.065  -0.331   0.548  0.00  0.00    +0.000 A 
ENDBRANCH  15  20
ENDBRANCH  13  15
ENDBRANCH   1  13
TORSDOF 4
