REMARK  Name = /home/anacleto/Desktop/manuscript_Mpro/naturecomm/supplementary_file_S2/6-chemical-library/molecular_docking/3D_ligand_structure/3083.pdb
REMARK  2 active torsions:
REMARK  status: ('A' for Active; 'I' for Inactive)
REMARK    1  A    between atoms: C6_7  and  C7_9
REMARK    2  A    between atoms: C10_12  and  N3_15
REMARK                            x       y       z     vdW  Elec       q    Type
REMARK                         _______ _______ _______ _____ _____    ______ ____
ROOT
ATOM      1  C7  UNL     1      -0.507  -1.250   0.009  0.00  0.00    +0.000 A 
ATOM      2  C8  UNL     1       0.311  -1.707   1.033  0.00  0.00    +0.000 A 
ATOM      3  C9  UNL     1       1.674  -1.402   0.997  0.00  0.00    +0.000 A 
ATOM      4  C10 UNL     1       2.204  -0.653  -0.057  0.00  0.00    +0.000 A 
ATOM      5  N2  UNL     1       1.404  -0.242  -1.070  0.00  0.00    +0.000 NA
ATOM      6  C11 UNL     1       0.086  -0.555  -1.028  0.00  0.00    +0.000 A 
ENDROOT
BRANCH   1  13
ATOM      7  C1  UNL     1      -4.277  -0.930  -0.336  0.00  0.00    +0.000 C 
ATOM      8  C2  UNL     1      -5.092   0.149  -1.036  0.00  0.00    +0.000 C 
ATOM      9  C3  UNL     1      -5.021   1.488  -0.302  0.00  0.00    +0.000 C 
ATOM     10  C4  UNL     1      -3.749   1.648   0.530  0.00  0.00    +0.000 C 
ATOM     11  C5  UNL     1      -2.573   0.880  -0.065  0.00  0.00    +0.000 C 
ATOM     12  N1  UNL     1      -2.871  -0.550  -0.209  0.00  0.00    +0.000 N 
ATOM     13  C6  UNL     1      -1.944  -1.572   0.001  0.00  0.00    +0.000 C 
ATOM     14  O1  UNL     1      -2.265  -2.745   0.181  0.00  0.00    +0.000 OA
ENDBRANCH   1  13
BRANCH   4  15
ATOM     15  N3  UNL     1       3.539  -0.343  -0.121  0.00  0.00    +0.000 N 
ATOM     16  C12 UNL     1       4.044   0.468  -1.221  0.00  0.00    +0.000 C 
ATOM     17  C13 UNL     1       5.530   0.596  -0.899  0.00  0.00    +0.000 C 
ATOM     18  C14 UNL     1       5.538   0.656   0.621  0.00  0.00    +0.000 C 
ATOM     19  C15 UNL     1       4.437  -0.325   1.025  0.00  0.00    +0.000 C 
ENDBRANCH   4  15
TORSDOF 2
