REMARK  Name = /home/anacleto/Desktop/manuscript_Mpro/naturecomm/supplementary_file_S2/6-chemical-library/molecular_docking/3D_ligand_structure/3085.pdb
REMARK  4 active torsions:
REMARK  status: ('A' for Active; 'I' for Inactive)
REMARK    1  A    between atoms: C3_4  and  C4_5
REMARK    2  A    between atoms: C6_9  and  C7_10
REMARK    3  A    between atoms: N2_12  and  C8_13
REMARK    4  A    between atoms: C8_13  and  C9_14
REMARK                            x       y       z     vdW  Elec       q    Type
REMARK                         _______ _______ _______ _____ _____    ______ ____
ROOT
ATOM      1  C7  UNL     1      -0.539  -1.667   0.167  0.00  0.00    +0.000 C 
ATOM      2  O3  UNL     1      -1.049  -2.634  -0.393  0.00  0.00    +0.000 OA
ATOM      3  N2  UNL     1      -1.239  -0.907   1.090  0.00  0.00    +0.000 N 
ATOM      4  H7  UNL     1      -0.860  -0.023   1.391  0.00  0.00    +0.000 HD
ENDROOT
BRANCH   1   9
ATOM      5  C4  UNL     1       2.823  -0.230  -0.078  0.00  0.00    +0.000 A 
ATOM      6  O2  UNL     1       2.787  -1.146  -1.077  0.00  0.00    +0.000 OA
ATOM      7  N1  UNL     1       1.558  -1.768  -1.090  0.00  0.00    +0.000 NA
ATOM      8  C5  UNL     1       1.616  -0.235   0.578  0.00  0.00    +0.000 A 
ATOM      9  C6  UNL     1       0.839  -1.222  -0.094  0.00  0.00    +0.000 A 
BRANCH   5  13
ATOM     10  C1  UNL     1       4.684   1.371  -0.943  0.00  0.00    +0.000 C 
ATOM     11  O1  UNL     1       6.001   0.913  -0.537  0.00  0.00    +0.000 OA
ATOM     12  C2  UNL     1       5.386  -0.065   0.344  0.00  0.00    +0.000 C 
ATOM     13  C3  UNL     1       4.041   0.663   0.254  0.00  0.00    +0.000 C 
ENDBRANCH   5  13
ENDBRANCH   1   9
BRANCH   3  14
ATOM     14  C8  UNL     1      -2.644  -1.141   1.344  0.00  0.00    +0.000 C 
BRANCH  14  15
ATOM     15  C9  UNL     1      -3.497  -0.181   0.568  0.00  0.00    +0.000 A 
ATOM     16  C10 UNL     1      -3.728  -0.353  -0.800  0.00  0.00    +0.000 A 
ATOM     17  C11 UNL     1      -4.505   0.571  -1.491  0.00  0.00    +0.000 A 
ATOM     18  C12 UNL     1      -5.026   1.645  -0.789  0.00  0.00    +0.000 A 
ATOM     19  N3  UNL     1      -4.822   1.849   0.530  0.00  0.00    +0.000 NA
ATOM     20  C13 UNL     1      -4.067   0.932   1.177  0.00  0.00    +0.000 A 
ENDBRANCH  14  15
ENDBRANCH   3  14
TORSDOF 4
