REMARK  Name = /home/anacleto/Desktop/manuscript_Mpro/naturecomm/supplementary_file_S2/6-chemical-library/molecular_docking/3D_ligand_structure/3088.pdb
REMARK  3 active torsions:
REMARK  status: ('A' for Active; 'I' for Inactive)
REMARK    1  A    between atoms: C6_6  and  N1_7
REMARK    2  A    between atoms: C7_8  and  C8_10
REMARK    3  A    between atoms: N2_12  and  C10_15
REMARK                            x       y       z     vdW  Elec       q    Type
REMARK                         _______ _______ _______ _____ _____    ______ ____
ROOT
ATOM      1  N1  UNL     1       1.852   0.088  -0.350  0.00  0.00    +0.000 N 
ATOM      2  C7  UNL     1       1.309   0.546  -1.543  0.00  0.00    +0.000 C 
ATOM      3  O1  UNL     1       1.957   0.865  -2.534  0.00  0.00    +0.000 OA
ATOM      4  H6  UNL     1       1.207  -0.121   0.396  0.00  0.00    +0.000 HD
ENDROOT
BRANCH   1  10
ATOM      5  C1  UNL     1       3.513  -0.569   1.251  0.00  0.00    +0.000 A 
ATOM      6  C2  UNL     1       4.836  -0.793   1.643  0.00  0.00    +0.000 A 
ATOM      7  C3  UNL     1       5.875  -0.559   0.747  0.00  0.00    +0.000 A 
ATOM      8  C4  UNL     1       5.590  -0.103  -0.537  0.00  0.00    +0.000 A 
ATOM      9  C5  UNL     1       4.265   0.121  -0.929  0.00  0.00    +0.000 A 
ATOM     10  C6  UNL     1       3.215  -0.109  -0.040  0.00  0.00    +0.000 A 
ENDBRANCH   1  10
BRANCH   2  11
ATOM     11  C8  UNL     1      -0.157   0.630  -1.544  0.00  0.00    +0.000 A 
ATOM     12  C9  UNL     1      -1.073   0.273  -0.569  0.00  0.00    +0.000 A 
ATOM     13  N2  UNL     1      -2.289   0.568  -1.119  0.00  0.00    +0.000 N 
ATOM     14  N3  UNL     1      -2.152   1.078  -2.350  0.00  0.00    +0.000 NA
ATOM     15  N4  UNL     1      -0.856   1.120  -2.625  0.00  0.00    +0.000 NA
BRANCH  13  16
ATOM     16  C10 UNL     1      -3.605   0.402  -0.558  0.00  0.00    +0.000 C 
ATOM     17  C11 UNL     1      -3.941  -1.013  -0.128  0.00  0.00    +0.000 C 
ATOM     18  C12 UNL     1      -5.059  -0.773   0.858  0.00  0.00    +0.000 C 
ATOM     19  O2  UNL     1      -4.721   0.434   1.550  0.00  0.00    +0.000 OA
ATOM     20  C13 UNL     1      -3.848   1.209   0.709  0.00  0.00    +0.000 C 
ENDBRANCH  13  16
ENDBRANCH   2  11
TORSDOF 3
