REMARK  Name = /home/anacleto/Desktop/manuscript_Mpro/naturecomm/supplementary_file_S2/6-chemical-library/molecular_docking/3D_ligand_structure/3108.pdb
REMARK  3 active torsions:
REMARK  status: ('A' for Active; 'I' for Inactive)
REMARK    1  A    between atoms: C3_5  and  C4_6
REMARK    2  A    between atoms: C4_6  and  C5_7
REMARK    3  A    between atoms: C9_13  and  C10_14
REMARK                            x       y       z     vdW  Elec       q    Type
REMARK                         _______ _______ _______ _____ _____    ______ ____
ROOT
ATOM      1  C5  UNL     1       0.997   0.268   0.667  0.00  0.00    +0.000 C 
ATOM      2  O1  UNL     1       0.930   1.492   0.531  0.00  0.00    +0.000 OA
ATOM      3  N3  UNL     1      -0.136  -0.509   0.824  0.00  0.00    +0.000 N 
ATOM      4  C6  UNL     1      -0.169  -1.910   1.216  0.00  0.00    +0.000 C 
ATOM      5  C7  UNL     1      -1.643  -2.280   1.229  0.00  0.00    +0.000 C 
ATOM      6  C8  UNL     1      -2.320  -0.963   1.594  0.00  0.00    +0.000 C 
ATOM      7  C9  UNL     1      -1.469   0.093   0.873  0.00  0.00    +0.000 C 
ENDROOT
BRANCH   7   8
ATOM      8  C10 UNL     1      -2.039   0.439  -0.493  0.00  0.00    +0.000 A 
ATOM      9  C11 UNL     1      -1.664  -0.232  -1.668  0.00  0.00    +0.000 A 
ATOM     10  C12 UNL     1      -2.234   0.106  -2.898  0.00  0.00    +0.000 A 
ATOM     11  C13 UNL     1      -3.191   1.116  -2.972  0.00  0.00    +0.000 A 
ATOM     12  C14 UNL     1      -3.578   1.790  -1.817  0.00  0.00    +0.000 A 
ATOM     13  C15 UNL     1      -3.008   1.453  -0.587  0.00  0.00    +0.000 A 
ENDBRANCH   7   8
BRANCH   1  14
ATOM     14  C4  UNL     1       2.327  -0.491   0.671  0.00  0.00    +0.000 C 
BRANCH  14  19
ATOM     15  N1  UNL     1       3.501   1.709   0.218  0.00  0.00    +0.000 N 
ATOM     16  N2  UNL     1       4.715   2.260   0.042  0.00  0.00    +0.000 NA
ATOM     17  C1  UNL     1       5.551   1.228   0.157  0.00  0.00    +0.000 A 
ATOM     18  C2  UNL     1       4.878   0.019   0.408  0.00  0.00    +0.000 A 
ATOM     19  C3  UNL     1       3.540   0.356   0.445  0.00  0.00    +0.000 A 
ATOM     20  H1  UNL     1       2.672   2.303   0.179  0.00  0.00    +0.000 HD
ENDBRANCH  14  19
ENDBRANCH   1  14
TORSDOF 3
