REMARK  Name = /home/anacleto/Desktop/manuscript_Mpro/naturecomm/supplementary_file_S2/6-chemical-library/molecular_docking/3D_ligand_structure/3112.pdb
REMARK  2 active torsions:
REMARK  status: ('A' for Active; 'I' for Inactive)
REMARK    1  A    between atoms: C6_6  and  N1_7
REMARK    2  A    between atoms: C7_8  and  C8_10
REMARK                            x       y       z     vdW  Elec       q    Type
REMARK                         _______ _______ _______ _____ _____    ______ ____
ROOT
ATOM      1  C8  UNL     1       1.033  -1.133  -1.106  0.00  0.00    +0.000 A 
ATOM      2  N2  UNL     1       1.864  -1.940  -1.856  0.00  0.00    +0.000 NA
ATOM      3  C9  UNL     1       3.069  -1.563  -1.499  0.00  0.00    +0.000 A 
ATOM      4  N3  UNL     1       2.986  -0.569  -0.572  0.00  0.00    +0.000 N 
ATOM      5  N4  UNL     1       1.691  -0.268  -0.296  0.00  0.00    +0.000 NA
ATOM      6  C10 UNL     1       3.988   0.118   0.073  0.00  0.00    +0.000 A 
ATOM      7  N5  UNL     1       5.277  -0.070  -0.096  0.00  0.00    +0.000 NA
ATOM      8  N6  UNL     1       5.928   0.817   0.734  0.00  0.00    +0.000 NA
ATOM      9  C11 UNL     1       5.017   1.512   1.378  0.00  0.00    +0.000 A 
ATOM     10  N7  UNL     1       3.777   1.104   0.992  0.00  0.00    +0.000 N 
ATOM     11  H9  UNL     1       2.879   1.445   1.307  0.00  0.00    +0.000 HD
ENDROOT
BRANCH   1  13
ATOM     12  N1  UNL     1      -1.042  -0.278  -0.318  0.00  0.00    +0.000 N 
ATOM     13  C7  UNL     1      -0.450  -1.196  -1.172  0.00  0.00    +0.000 C 
ATOM     14  O1  UNL     1      -1.038  -1.982  -1.907  0.00  0.00    +0.000 OA
ATOM     15  H6  UNL     1      -0.381   0.283   0.209  0.00  0.00    +0.000 HD
BRANCH  12  21
ATOM     16  C1  UNL     1      -3.435  -0.732  -0.752  0.00  0.00    +0.000 A 
ATOM     17  C2  UNL     1      -4.774  -0.434  -0.480  0.00  0.00    +0.000 A 
ATOM     18  C3  UNL     1      -5.100   0.557   0.443  0.00  0.00    +0.000 A 
ATOM     19  C4  UNL     1      -4.087   1.252   1.096  0.00  0.00    +0.000 A 
ATOM     20  C5  UNL     1      -2.749   0.954   0.824  0.00  0.00    +0.000 A 
ATOM     21  C6  UNL     1      -2.411  -0.041  -0.102  0.00  0.00    +0.000 A 
ENDBRANCH  12  21
ENDBRANCH   1  13
TORSDOF 2
