REMARK  Name = /home/anacleto/Desktop/manuscript_Mpro/naturecomm/supplementary_file_S2/6-chemical-library/molecular_docking/3D_ligand_structure/3138.pdb
REMARK  4 active torsions:
REMARK  status: ('A' for Active; 'I' for Inactive)
REMARK    1  A    between atoms: C5_6  and  C6_7
REMARK    2  A    between atoms: C6_7  and  N2_8
REMARK    3  A    between atoms: N2_8  and  C7_9
REMARK    4  A    between atoms: C10_12  and  N3_15
REMARK                            x       y       z     vdW  Elec       q    Type
REMARK                         _______ _______ _______ _____ _____    ______ ____
ROOT
ATOM      1  C7  UNL     1       0.234  -1.229   0.538  0.00  0.00    +0.000 A 
ATOM      2  C8  UNL     1      -0.273  -0.208  -0.268  0.00  0.00    +0.000 A 
ATOM      3  C9  UNL     1      -1.545   0.343  -0.044  0.00  0.00    +0.000 A 
ATOM      4  C10 UNL     1      -2.336  -0.102   1.021  0.00  0.00    +0.000 A 
ATOM      5  C11 UNL     1      -1.823  -1.094   1.862  0.00  0.00    +0.000 A 
ATOM      6  C12 UNL     1      -0.551  -1.634   1.626  0.00  0.00    +0.000 A 
ENDROOT
BRANCH   4   7
ATOM      7  N3  UNL     1      -3.628   0.454   1.249  0.00  0.00    +0.000 N 
ATOM      8  C13 UNL     1      -4.261   1.436   0.516  0.00  0.00    +0.000 A 
ATOM      9  C14 UNL     1      -5.485   1.634   1.111  0.00  0.00    +0.000 A 
ATOM     10  N4  UNL     1      -5.639   0.811   2.186  0.00  0.00    +0.000 NA
ATOM     11  C15 UNL     1      -4.521   0.121   2.248  0.00  0.00    +0.000 A 
ENDBRANCH   4   7
BRANCH   1  12
ATOM     12  N2  UNL     1       1.517  -1.764   0.410  0.00  0.00    +0.000 N 
ATOM     13  H7  UNL     1       1.575  -2.695   0.817  0.00  0.00    +0.000 HD
BRANCH  12  14
ATOM     14  C6  UNL     1       2.255  -1.671  -0.846  0.00  0.00    +0.000 C 
BRANCH  14  20
ATOM     15  C1  UNL     1       3.547   0.301   0.096  0.00  0.00    +0.000 A 
ATOM     16  N1  UNL     1       4.285   1.434   0.004  0.00  0.00    +0.000 NA
ATOM     17  C2  UNL     1       4.515   1.910  -1.237  0.00  0.00    +0.000 A 
ATOM     18  C3  UNL     1       4.049   1.303  -2.390  0.00  0.00    +0.000 A 
ATOM     19  C4  UNL     1       3.299   0.137  -2.265  0.00  0.00    +0.000 A 
ATOM     20  C5  UNL     1       3.022  -0.384  -0.996  0.00  0.00    +0.000 A 
ENDBRANCH  14  20
ENDBRANCH  12  14
ENDBRANCH   1  12
TORSDOF 4
