REMARK  Name = /home/anacleto/Desktop/manuscript_Mpro/naturecomm/supplementary_file_S2/6-chemical-library/molecular_docking/3D_ligand_structure/315.pdb
REMARK  0 active torsions:
REMARK  status: ('A' for Active; 'I' for Inactive)
REMARK                            x       y       z     vdW  Elec       q    Type
REMARK                         _______ _______ _______ _____ _____    ______ ____
ROOT
ATOM      1  C1  UNL     1      -2.095   0.057  -0.059  0.00  0.00    +0.000 A 
ATOM      2  N1  UNL     1      -2.306  -1.262  -0.003  0.00  0.00    +0.000 NA
ATOM      3  O1  UNL     1      -1.039  -1.832   0.058  0.00  0.00    +0.000 OA
ATOM      4  C2  UNL     1      -0.099  -0.848   0.037  0.00  0.00    +0.000 A 
ATOM      5  C3  UNL     1      -0.726   0.381  -0.037  0.00  0.00    +0.000 A 
ATOM      6  C4  UNL     1       1.274  -1.022   0.082  0.00  0.00    +0.000 A 
ATOM      7  C5  UNL     1       1.978   0.170   0.045  0.00  0.00    +0.000 A 
ATOM      8  N2  UNL     1       1.419   1.405  -0.027  0.00  0.00    +0.000 NA
ATOM      9  C6  UNL     1       0.065   1.525  -0.069  0.00  0.00    +0.000 A 
ENDROOT
TORSDOF 0
