REMARK  Name = /home/anacleto/Desktop/manuscript_Mpro/naturecomm/supplementary_file_S2/6-chemical-library/molecular_docking/3D_ligand_structure/3151.pdb
REMARK  3 active torsions:
REMARK  status: ('A' for Active; 'I' for Inactive)
REMARK    1  A    between atoms: C6_6  and  C7_7
REMARK    2  A    between atoms: C7_7  and  N1_8
REMARK    3  A    between atoms: C10_13  and  C11_14
REMARK                            x       y       z     vdW  Elec       q    Type
REMARK                         _______ _______ _______ _____ _____    ______ ____
ROOT
ATOM      1  N1  UNL     1       0.203   0.621   1.441  0.00  0.00    +0.000 N 
ATOM      2  C8  UNL     1       0.443  -0.157   2.596  0.00  0.00    +0.000 A 
ATOM      3  S1  UNL     1      -0.304  -0.155   4.069  0.00  0.00    +0.000 S 
ATOM      4  N2  UNL     1       1.509  -0.999   2.246  0.00  0.00    +0.000 N 
ATOM      5  C9  UNL     1       1.105   0.231   0.461  0.00  0.00    +0.000 A 
ATOM      6  C10 UNL     1       1.883  -0.744   0.952  0.00  0.00    +0.000 A 
ATOM      7  H8  UNL     1       1.926  -1.692   2.852  0.00  0.00    +0.000 HD
ENDROOT
BRANCH   6   8
ATOM      8  C11 UNL     1       2.922  -1.429   0.290  0.00  0.00    +0.000 A 
ATOM      9  C12 UNL     1       3.398  -1.321  -1.008  0.00  0.00    +0.000 A 
ATOM     10  C13 UNL     1       4.444  -2.252  -1.107  0.00  0.00    +0.000 A 
ATOM     11  N3  UNL     1       4.629  -2.908   0.035  0.00  0.00    +0.000 NA
ATOM     12  O1  UNL     1       3.684  -2.401   0.905  0.00  0.00    +0.000 OA
ENDBRANCH   6   8
BRANCH   1  13
ATOM     13  C7  UNL     1      -0.803   1.656   1.255  0.00  0.00    +0.000 C 
BRANCH  13  19
ATOM     14  C1  UNL     1      -1.958   2.003  -0.971  0.00  0.00    +0.000 A 
ATOM     15  C2  UNL     1      -2.919   1.651  -1.921  0.00  0.00    +0.000 A 
ATOM     16  C3  UNL     1      -3.773   0.575  -1.686  0.00  0.00    +0.000 A 
ATOM     17  C4  UNL     1      -3.668  -0.150  -0.500  0.00  0.00    +0.000 A 
ATOM     18  C5  UNL     1      -2.709   0.200   0.451  0.00  0.00    +0.000 A 
ATOM     19  C6  UNL     1      -1.842   1.279   0.225  0.00  0.00    +0.000 A 
ENDBRANCH  13  19
ENDBRANCH   1  13
TORSDOF 3
