REMARK  Name = /home/anacleto/Desktop/manuscript_Mpro/naturecomm/supplementary_file_S2/6-chemical-library/molecular_docking/3D_ligand_structure/3169.pdb
REMARK  4 active torsions:
REMARK  status: ('A' for Active; 'I' for Inactive)
REMARK    1  A    between atoms: C3_3  and  C4_4
REMARK    2  A    between atoms: C6_8  and  C7_9
REMARK    3  A    between atoms: N2_11  and  C8_12
REMARK    4  A    between atoms: C8_12  and  C9_13
REMARK                            x       y       z     vdW  Elec       q    Type
REMARK                         _______ _______ _______ _____ _____    ______ ____
ROOT
ATOM      1  C7  UNL     1       0.063  -1.002   0.589  0.00  0.00    +0.000 C 
ATOM      2  O2  UNL     1       0.140  -1.926  -0.217  0.00  0.00    +0.000 OA
ATOM      3  N2  UNL     1      -1.094  -0.779   1.314  0.00  0.00    +0.000 N 
ATOM      4  H7  UNL     1      -1.186   0.064   1.861  0.00  0.00    +0.000 HD
ENDROOT
BRANCH   1   9
ATOM      5  C4  UNL     1       3.113   0.800   0.598  0.00  0.00    +0.000 A 
ATOM      6  O1  UNL     1       2.305  -0.199   0.128  0.00  0.00    +0.000 OA
ATOM      7  N1  UNL     1       2.566   1.532   1.547  0.00  0.00    +0.000 NA
ATOM      8  C5  UNL     1       1.321   0.981   1.711  0.00  0.00    +0.000 A 
ATOM      9  C6  UNL     1       1.142  -0.079   0.849  0.00  0.00    +0.000 A 
BRANCH   5  12
ATOM     10  C1  UNL     1       5.385  -0.098  -0.422  0.00  0.00    +0.000 C 
ATOM     11  C2  UNL     1       4.837   0.898  -1.405  0.00  0.00    +0.000 C 
ATOM     12  C3  UNL     1       4.554   1.060   0.066  0.00  0.00    +0.000 C 
ENDBRANCH   5  12
ENDBRANCH   1   9
BRANCH   3  13
ATOM     13  C8  UNL     1      -2.293  -1.550   1.076  0.00  0.00    +0.000 C 
BRANCH  13  14
ATOM     14  C9  UNL     1      -3.241  -0.808   0.183  0.00  0.00    +0.000 A 
ATOM     15  C10 UNL     1      -4.261  -0.003   0.698  0.00  0.00    +0.000 A 
ATOM     16  C11 UNL     1      -5.105   0.682  -0.171  0.00  0.00    +0.000 A 
ATOM     17  C12 UNL     1      -4.897   0.545  -1.533  0.00  0.00    +0.000 A 
ATOM     18  N3  UNL     1      -3.918  -0.215  -2.068  0.00  0.00    +0.000 NA
ATOM     19  C13 UNL     1      -3.112  -0.870  -1.202  0.00  0.00    +0.000 A 
ENDBRANCH  13  14
ENDBRANCH   3  13
TORSDOF 4
