REMARK  Name = /home/anacleto/Desktop/manuscript_Mpro/naturecomm/supplementary_file_S2/6-chemical-library/molecular_docking/3D_ligand_structure/3178.pdb
REMARK  2 active torsions:
REMARK  status: ('A' for Active; 'I' for Inactive)
REMARK    1  A    between atoms: C6_6  and  N1_7
REMARK    2  A    between atoms: N2_12  and  C10_13
REMARK                            x       y       z     vdW  Elec       q    Type
REMARK                         _______ _______ _______ _____ _____    ______ ____
ROOT
ATOM      1  N1  UNL     1      -1.011  -0.113  -0.298  0.00  0.00    +0.000 N 
ATOM      2  C7  UNL     1       0.243   0.168   0.307  0.00  0.00    +0.000 C 
ATOM      3  O1  UNL     1       0.426   0.626   1.425  0.00  0.00    +0.000 OA
ATOM      4  C8  UNL     1      -0.815  -0.761  -1.571  0.00  0.00    +0.000 C 
ATOM      5  C9  UNL     1       0.656  -0.573  -1.881  0.00  0.00    +0.000 C 
ATOM      6  N2  UNL     1       1.252  -0.183  -0.629  0.00  0.00    +0.000 N 
ENDROOT
BRANCH   1  12
ATOM      7  C1  UNL     1      -2.486   0.743   1.491  0.00  0.00    +0.000 A 
ATOM      8  C2  UNL     1      -3.763   0.920   2.037  0.00  0.00    +0.000 A 
ATOM      9  C3  UNL     1      -4.883   0.431   1.376  0.00  0.00    +0.000 A 
ATOM     10  C4  UNL     1      -4.726  -0.236   0.167  0.00  0.00    +0.000 A 
ATOM     11  C5  UNL     1      -3.448  -0.411  -0.377  0.00  0.00    +0.000 A 
ATOM     12  C6  UNL     1      -2.300   0.072   0.275  0.00  0.00    +0.000 A 
ENDBRANCH   1  12
BRANCH   6  13
ATOM     13  C10 UNL     1       2.657  -0.056  -0.457  0.00  0.00    +0.000 A 
ATOM     14  C11 UNL     1       3.243   0.297   0.760  0.00  0.00    +0.000 A 
ATOM     15  C12 UNL     1       4.631   0.402   0.877  0.00  0.00    +0.000 A 
ATOM     16  C13 UNL     1       5.411   0.147  -0.235  0.00  0.00    +0.000 A 
ATOM     17  N3  UNL     1       4.901  -0.201  -1.432  0.00  0.00    +0.000 NA
ATOM     18  C14 UNL     1       3.548  -0.292  -1.509  0.00  0.00    +0.000 A 
ENDBRANCH   6  13
TORSDOF 2
