REMARK  Name = /home/anacleto/Desktop/manuscript_Mpro/naturecomm/supplementary_file_S2/6-chemical-library/molecular_docking/3D_ligand_structure/3193.pdb
REMARK  3 active torsions:
REMARK  status: ('A' for Active; 'I' for Inactive)
REMARK    1  A    between atoms: C3_5  and  S2_6
REMARK    2  A    between atoms: S2_6  and  C4_7
REMARK    3  A    between atoms: C5_11  and  C6_12
REMARK                            x       y       z     vdW  Elec       q    Type
REMARK                         _______ _______ _______ _____ _____    ______ ____
ROOT
ATOM      1  C4  UNL     1       1.123  -0.932   0.307  0.00  0.00    +0.000 A 
ATOM      2  O1  UNL     1      -0.245  -0.923   0.409  0.00  0.00    +0.000 OA
ATOM      3  N2  UNL     1       1.573   0.085  -0.400  0.00  0.00    +0.000 NA
ATOM      4  N3  UNL     1       0.473   0.818  -0.791  0.00  0.00    +0.000 NA
ATOM      5  C5  UNL     1      -0.581   0.200  -0.299  0.00  0.00    +0.000 A 
ENDROOT
BRANCH   5   6
ATOM      6  C6  UNL     1      -1.996   0.533  -0.402  0.00  0.00    +0.000 A 
ATOM      7  C7  UNL     1      -2.391   1.672  -1.120  0.00  0.00    +0.000 A 
ATOM      8  C8  UNL     1      -3.740   2.015  -1.235  0.00  0.00    +0.000 A 
ATOM      9  C9  UNL     1      -4.714   1.222  -0.633  0.00  0.00    +0.000 A 
ATOM     10  C10 UNL     1      -4.340   0.087   0.084  0.00  0.00    +0.000 A 
ATOM     11  C11 UNL     1      -2.990  -0.256   0.199  0.00  0.00    +0.000 A 
ENDBRANCH   5   6
BRANCH   1  12
ATOM     12  S2  UNL     1       2.087  -2.184   1.039  0.00  0.00    +0.000 S 
BRANCH  12  17
ATOM     13  S1  UNL     1       4.629  -0.769   1.927  0.00  0.00    +0.000 S 
ATOM     14  C1  UNL     1       5.872  -0.527   0.771  0.00  0.00    +0.000 A 
ATOM     15  N1  UNL     1       5.639  -0.983  -0.440  0.00  0.00    +0.000 NA
ATOM     16  C2  UNL     1       4.376  -1.548  -0.472  0.00  0.00    +0.000 A 
ATOM     17  C3  UNL     1       3.675  -1.523   0.718  0.00  0.00    +0.000 A 
ENDBRANCH  12  17
ENDBRANCH   1  12
TORSDOF 3
