REMARK  Name = /home/anacleto/Desktop/manuscript_Mpro/naturecomm/supplementary_file_S2/6-chemical-library/molecular_docking/3D_ligand_structure/3196.pdb
REMARK  3 active torsions:
REMARK  status: ('A' for Active; 'I' for Inactive)
REMARK    1  A    between atoms: C3_5  and  S2_6
REMARK    2  A    between atoms: S2_6  and  C4_7
REMARK    3  A    between atoms: N4_11  and  C6_12
REMARK                            x       y       z     vdW  Elec       q    Type
REMARK                         _______ _______ _______ _____ _____    ______ ____
ROOT
ATOM      1  C4  UNL     1       0.891  -1.411  -0.583  0.00  0.00    +0.000 A 
ATOM      2  N2  UNL     1       1.590  -2.466  -0.215  0.00  0.00    +0.000 NA
ATOM      3  N3  UNL     1       0.817  -3.213   0.630  0.00  0.00    +0.000 NA
ATOM      4  C5  UNL     1      -0.335  -2.597   0.751  0.00  0.00    +0.000 A 
ATOM      5  N4  UNL     1      -0.354  -1.423   0.026  0.00  0.00    +0.000 N 
ENDROOT
BRANCH   5   6
ATOM      6  C6  UNL     1      -1.444  -0.507  -0.015  0.00  0.00    +0.000 A 
ATOM      7  C7  UNL     1      -2.748  -0.969   0.232  0.00  0.00    +0.000 A 
ATOM      8  C8  UNL     1      -3.831  -0.086   0.204  0.00  0.00    +0.000 A 
ATOM      9  C9  UNL     1      -3.625   1.265  -0.058  0.00  0.00    +0.000 A 
ATOM     10  C10 UNL     1      -2.335   1.736  -0.286  0.00  0.00    +0.000 A 
ATOM     11  C11 UNL     1      -1.247   0.857  -0.261  0.00  0.00    +0.000 A 
ENDBRANCH   5   6
BRANCH   1  12
ATOM     12  S2  UNL     1       1.406  -0.337  -1.842  0.00  0.00    +0.000 S 
BRANCH  12  17
ATOM     13  S1  UNL     1       4.338   0.286  -1.326  0.00  0.00    +0.000 S 
ATOM     14  C1  UNL     1       4.738   1.262   0.026  0.00  0.00    +0.000 A 
ATOM     15  C2  UNL     1       3.587   1.633   0.685  0.00  0.00    +0.000 A 
ATOM     16  N1  UNL     1       2.407   1.162   0.142  0.00  0.00    +0.000 NA
ATOM     17  C3  UNL     1       2.680   0.416  -0.909  0.00  0.00    +0.000 A 
ENDBRANCH  12  17
ENDBRANCH   1  12
TORSDOF 3
