REMARK  Name = /home/anacleto/Desktop/manuscript_Mpro/naturecomm/supplementary_file_S2/6-chemical-library/molecular_docking/3D_ligand_structure/3198.pdb
REMARK  2 active torsions:
REMARK  status: ('A' for Active; 'I' for Inactive)
REMARK    1  A    between atoms: C6_6  and  C7_7
REMARK    2  A    between atoms: C8_8  and  C10_12
REMARK                            x       y       z     vdW  Elec       q    Type
REMARK                         _______ _______ _______ _____ _____    ______ ____
ROOT
ATOM      1  C7  UNL     1      -0.578   1.499   0.359  0.00  0.00    +0.000 A 
ATOM      2  C8  UNL     1       0.812   1.488   0.303  0.00  0.00    +0.000 A 
ATOM      3  S1  UNL     1       1.398   3.089   0.579  0.00  0.00    +0.000 S 
ATOM      4  C9  UNL     1      -0.208   3.637   0.778  0.00  0.00    +0.000 A 
ATOM      5  N1  UNL     1      -1.149   2.731   0.655  0.00  0.00    +0.000 NA
ENDROOT
BRANCH   1  11
ATOM      6  C1  UNL     1      -2.513   0.128   1.042  0.00  0.00    +0.000 A 
ATOM      7  C2  UNL     1      -3.355  -0.976   0.885  0.00  0.00    +0.000 A 
ATOM      8  C3  UNL     1      -3.136  -1.875  -0.157  0.00  0.00    +0.000 A 
ATOM      9  C4  UNL     1      -2.083  -1.668  -1.046  0.00  0.00    +0.000 A 
ATOM     10  C5  UNL     1      -1.242  -0.563  -0.891  0.00  0.00    +0.000 A 
ATOM     11  C6  UNL     1      -1.440   0.337   0.165  0.00  0.00    +0.000 A 
ENDBRANCH   1  11
BRANCH   2  12
ATOM     12  C10 UNL     1       1.775   0.399   0.110  0.00  0.00    +0.000 A 
ATOM     13  C11 UNL     1       2.731   0.451  -0.908  0.00  0.00    +0.000 A 
ATOM     14  C12 UNL     1       3.606  -0.613  -1.049  0.00  0.00    +0.000 A 
ATOM     15  N2  UNL     1       3.591  -1.707  -0.259  0.00  0.00    +0.000 NA
ATOM     16  C13 UNL     1       2.660  -1.738   0.718  0.00  0.00    +0.000 A 
ATOM     17  C14 UNL     1       1.744  -0.724   0.941  0.00  0.00    +0.000 A 
ENDBRANCH   2  12
TORSDOF 2
