REMARK  Name = /home/anacleto/Desktop/manuscript_Mpro/naturecomm/supplementary_file_S2/6-chemical-library/molecular_docking/3D_ligand_structure/32.pdb
REMARK  0 active torsions:
REMARK  status: ('A' for Active; 'I' for Inactive)
REMARK                            x       y       z     vdW  Elec       q    Type
REMARK                         _______ _______ _______ _____ _____    ______ ____
ROOT
ATOM      1  O1  UNL     1       2.397   0.225   0.218  0.00  0.00    +0.000 OA
ATOM      2  C1  UNL     1       1.189   0.166   0.074  0.00  0.00    +0.000 C 
ATOM      3  C2  UNL     1       0.326  -1.067   0.146  0.00  0.00    +0.000 C 
ATOM      4  C3  UNL     1      -1.075  -0.538  -0.023  0.00  0.00    +0.000 C 
ATOM      5  O2  UNL     1      -2.103  -1.190  -0.086  0.00  0.00    +0.000 OA
ATOM      6  N1  UNL     1      -0.976   0.839  -0.108  0.00  0.00    +0.000 N 
ATOM      7  N2  UNL     1       0.344   1.232  -0.176  0.00  0.00    +0.000 N 
ATOM      8  H3  UNL     1      -1.751   1.423  -0.403  0.00  0.00    +0.000 HD
ATOM      9  H4  UNL     1       0.646   2.197  -0.093  0.00  0.00    +0.000 HD
ENDROOT
TORSDOF 0
