REMARK  Name = /home/anacleto/Desktop/manuscript_Mpro/naturecomm/supplementary_file_S2/6-chemical-library/molecular_docking/3D_ligand_structure/3210.pdb
REMARK  3 active torsions:
REMARK  status: ('A' for Active; 'I' for Inactive)
REMARK    1  A    between atoms: C2_5  and  C3_6
REMARK    2  A    between atoms: C3_6  and  N3_7
REMARK    3  A    between atoms: C5_11  and  C7_14
REMARK                            x       y       z     vdW  Elec       q    Type
REMARK                         _______ _______ _______ _____ _____    ______ ____
ROOT
ATOM      1  N3  UNL     1      -1.024  -0.602   0.152  0.00  0.00    +0.000 N 
ATOM      2  C4  UNL     1      -0.595  -1.576  -0.693  0.00  0.00    +0.000 C 
ATOM      3  O1  UNL     1      -1.217  -2.544  -1.095  0.00  0.00    +0.000 OA
ATOM      4  N4  UNL     1       0.715  -1.319  -1.026  0.00  0.00    +0.000 N 
ATOM      5  C5  UNL     1       1.210  -0.120  -0.409  0.00  0.00    +0.000 C 
ATOM      6  C6  UNL     1      -0.018   0.287   0.409  0.00  0.00    +0.000 C 
ATOM      7  O2  UNL     1      -0.089   1.246   1.167  0.00  0.00    +0.000 OA
ATOM      8  H4  UNL     1       1.224  -1.912  -1.667  0.00  0.00    +0.000 HD
ENDROOT
BRANCH   5   9
ATOM      9  C7  UNL     1       2.417  -0.429   0.415  0.00  0.00    +0.000 C 
ATOM     10  C8  UNL     1       3.468   0.625   0.658  0.00  0.00    +0.000 C 
ATOM     11  C9  UNL     1       3.775  -0.546  -0.234  0.00  0.00    +0.000 C 
ENDBRANCH   5   9
BRANCH   1  12
ATOM     12  C3  UNL     1      -2.346  -0.535   0.729  0.00  0.00    +0.000 C 
BRANCH  12  17
ATOM     13  N1  UNL     1      -3.941   0.132  -1.016  0.00  0.00    +0.000 NA
ATOM     14  S1  UNL     1      -4.673   1.545  -1.536  0.00  0.00    +0.000 S 
ATOM     15  N2  UNL     1      -4.006   2.634  -0.453  0.00  0.00    +0.000 NA
ATOM     16  C1  UNL     1      -3.204   1.895   0.316  0.00  0.00    +0.000 A 
ATOM     17  C2  UNL     1      -3.160   0.493   0.011  0.00  0.00    +0.000 A 
ENDBRANCH  12  17
ENDBRANCH   1  12
TORSDOF 3
