REMARK  Name = /home/anacleto/Desktop/manuscript_Mpro/naturecomm/supplementary_file_S2/6-chemical-library/molecular_docking/3D_ligand_structure/3211.pdb
REMARK  3 active torsions:
REMARK  status: ('A' for Active; 'I' for Inactive)
REMARK    1  A    between atoms: C2_5  and  C3_6
REMARK    2  A    between atoms: C3_6  and  N3_7
REMARK    3  A    between atoms: C5_11  and  C7_14
REMARK                            x       y       z     vdW  Elec       q    Type
REMARK                         _______ _______ _______ _____ _____    ______ ____
ROOT
ATOM      1  N3  UNL     1       0.796   0.509  -0.119  0.00  0.00    +0.000 N 
ATOM      2  C4  UNL     1       0.146   1.272   0.799  0.00  0.00    +0.000 C 
ATOM      3  O1  UNL     1       0.481   2.358   1.237  0.00  0.00    +0.000 OA
ATOM      4  N4  UNL     1      -1.012   0.627   1.162  0.00  0.00    +0.000 N 
ATOM      5  C5  UNL     1      -1.178  -0.627   0.481  0.00  0.00    +0.000 C 
ATOM      6  C6  UNL     1       0.079  -0.621  -0.396  0.00  0.00    +0.000 C 
ATOM      7  O2  UNL     1       0.383  -1.485  -1.209  0.00  0.00    +0.000 OA
ATOM      8  H4  UNL     1      -1.635   1.017   1.856  0.00  0.00    +0.000 HD
ENDROOT
BRANCH   5   9
ATOM      9  C7  UNL     1      -2.449  -0.722  -0.305  0.00  0.00    +0.000 C 
ATOM     10  C8  UNL     1      -3.779  -0.309   0.281  0.00  0.00    +0.000 C 
ATOM     11  C9  UNL     1      -3.181   0.484  -0.850  0.00  0.00    +0.000 C 
ENDBRANCH   5   9
BRANCH   1  12
ATOM     12  C3  UNL     1       2.048   0.865  -0.743  0.00  0.00    +0.000 C 
BRANCH  12  17
ATOM     13  N1  UNL     1       3.858   0.662   0.945  0.00  0.00    +0.000 NA
ATOM     14  N2  UNL     1       4.809  -0.137   1.399  0.00  0.00    +0.000 NA
ATOM     15  S1  UNL     1       4.890  -1.589   0.574  0.00  0.00    +0.000 S 
ATOM     16  C1  UNL     1       3.597  -1.175  -0.471  0.00  0.00    +0.000 A 
ATOM     17  C2  UNL     1       3.159   0.091  -0.113  0.00  0.00    +0.000 A 
ENDBRANCH  12  17
ENDBRANCH   1  12
TORSDOF 3
