REMARK  Name = /home/anacleto/Desktop/manuscript_Mpro/naturecomm/supplementary_file_S2/6-chemical-library/molecular_docking/3D_ligand_structure/3223.pdb
REMARK  2 active torsions:
REMARK  status: ('A' for Active; 'I' for Inactive)
REMARK    1  A    between atoms: C4_5  and  C5_6
REMARK    2  A    between atoms: C8_12  and  C9_13
REMARK                            x       y       z     vdW  Elec       q    Type
REMARK                         _______ _______ _______ _____ _____    ______ ____
ROOT
ATOM      1  C5  UNL     1       0.781  -0.572  -1.749  0.00  0.00    +0.000 C 
ATOM      2  O1  UNL     1       1.035  -0.690  -2.948  0.00  0.00    +0.000 OA
ATOM      3  N1  UNL     1      -0.442  -1.143  -1.292  0.00  0.00    +0.000 N 
ATOM      4  N2  UNL     1      -1.064  -2.102  -2.049  0.00  0.00    +0.000 NA
ATOM      5  C6  UNL     1      -2.110  -2.492  -1.323  0.00  0.00    +0.000 A 
ATOM      6  C7  UNL     1      -2.226  -1.784  -0.121  0.00  0.00    +0.000 A 
ATOM      7  C8  UNL     1      -1.180  -0.892  -0.140  0.00  0.00    +0.000 A 
ENDROOT
BRANCH   1  12
ATOM      8  S1  UNL     1       2.426   1.572  -1.309  0.00  0.00    +0.000 S 
ATOM      9  C1  UNL     1       3.308   1.681   0.152  0.00  0.00    +0.000 A 
ATOM     10  C2  UNL     1       3.087   0.598   0.971  0.00  0.00    +0.000 A 
ATOM     11  C3  UNL     1       2.171  -0.330   0.394  0.00  0.00    +0.000 A 
ATOM     12  C4  UNL     1       1.704   0.091  -0.838  0.00  0.00    +0.000 A 
ENDBRANCH   1  12
BRANCH   7  13
ATOM     13  C9  UNL     1      -0.968   0.204   0.941  0.00  0.00    +0.000 C 
ATOM     14  C10 UNL     1      -0.974   1.654   0.531  0.00  0.00    +0.000 C 
ATOM     15  C11 UNL     1      -2.130   1.096   1.304  0.00  0.00    +0.000 C 
ENDBRANCH   7  13
TORSDOF 2
