REMARK  Name = /home/anacleto/Desktop/manuscript_Mpro/naturecomm/supplementary_file_S2/6-chemical-library/molecular_docking/3D_ligand_structure/3224.pdb
REMARK  2 active torsions:
REMARK  status: ('A' for Active; 'I' for Inactive)
REMARK    1  A    between atoms: C4_5  and  C5_6
REMARK    2  A    between atoms: C9_12  and  C10_13
REMARK                            x       y       z     vdW  Elec       q    Type
REMARK                         _______ _______ _______ _____ _____    ______ ____
ROOT
ATOM      1  C5  UNL     1       0.729   0.010   1.047  0.00  0.00    +0.000 C 
ATOM      2  O2  UNL     1       0.337   0.211   2.195  0.00  0.00    +0.000 OA
ATOM      3  N1  UNL     1      -0.132  -0.386   0.027  0.00  0.00    +0.000 N 
ATOM      4  C6  UNL     1       0.260  -1.335  -1.008  0.00  0.00    +0.000 C 
ATOM      5  C7  UNL     1      -0.876  -2.345  -1.041  0.00  0.00    +0.000 C 
ATOM      6  C8  UNL     1      -2.090  -1.481  -0.753  0.00  0.00    +0.000 C 
ATOM      7  C9  UNL     1      -1.571  -0.469   0.283  0.00  0.00    +0.000 C 
ENDROOT
BRANCH   1  12
ATOM      8  C1  UNL     1       3.161   0.180   1.619  0.00  0.00    +0.000 A 
ATOM      9  O1  UNL     1       4.357   0.418   1.024  0.00  0.00    +0.000 OA
ATOM     10  C2  UNL     1       4.103   0.637  -0.291  0.00  0.00    +0.000 A 
ATOM     11  C3  UNL     1       2.755   0.534  -0.542  0.00  0.00    +0.000 A 
ATOM     12  C4  UNL     1       2.130   0.212   0.700  0.00  0.00    +0.000 A 
ENDBRANCH   1  12
BRANCH   7  13
ATOM     13  C10 UNL     1      -2.309   0.838   0.139  0.00  0.00    +0.000 C 
ATOM     14  C11 UNL     1      -1.737   2.188   0.502  0.00  0.00    +0.000 C 
ATOM     15  C12 UNL     1      -1.965   1.837  -0.942  0.00  0.00    +0.000 C 
ENDBRANCH   7  13
TORSDOF 2
