REMARK  Name = /home/anacleto/Desktop/manuscript_Mpro/naturecomm/supplementary_file_S2/6-chemical-library/molecular_docking/3D_ligand_structure/323.pdb
REMARK  0 active torsions:
REMARK  status: ('A' for Active; 'I' for Inactive)
REMARK                            x       y       z     vdW  Elec       q    Type
REMARK                         _______ _______ _______ _____ _____    ______ ____
ROOT
ATOM      1  N1  UNL     1      -1.294  -1.478   0.573  0.00  0.00    +0.000 NA
ATOM      2  C1  UNL     1      -2.310  -0.712   0.234  0.00  0.00    +0.000 A 
ATOM      3  N2  UNL     1      -1.899   0.499  -0.252  0.00  0.00    +0.000 N 
ATOM      4  C2  UNL     1      -0.536   0.512  -0.223  0.00  0.00    +0.000 A 
ATOM      5  C3  UNL     1      -0.178  -0.727   0.293  0.00  0.00    +0.000 A 
ATOM      6  N3  UNL     1       0.268   1.517  -0.614  0.00  0.00    +0.000 NA
ATOM      7  C4  UNL     1       1.579   1.205  -0.454  0.00  0.00    +0.000 A 
ATOM      8  C5  UNL     1       2.079   0.005   0.050  0.00  0.00    +0.000 A 
ATOM      9  C6  UNL     1       1.186  -0.998   0.438  0.00  0.00    +0.000 A 
ATOM     10  H2  UNL     1      -2.480   1.257  -0.576  0.00  0.00    +0.000 HD
ENDROOT
TORSDOF 0
