REMARK  Name = /home/anacleto/Desktop/manuscript_Mpro/naturecomm/supplementary_file_S2/6-chemical-library/molecular_docking/3D_ligand_structure/3246.pdb
REMARK  0 active torsions:
REMARK  status: ('A' for Active; 'I' for Inactive)
REMARK                            x       y       z     vdW  Elec       q    Type
REMARK                         _______ _______ _______ _____ _____    ______ ____
ROOT
ATOM      1  C1  UNL     1       0.593   2.569  -0.712  0.00  0.00    +0.000 A 
ATOM      2  C2  UNL     1       1.957   2.842  -0.554  0.00  0.00    +0.000 A 
ATOM      3  C3  UNL     1       2.878   1.822  -0.226  0.00  0.00    +0.000 A 
ATOM      4  C4  UNL     1       2.462   0.497  -0.078  0.00  0.00    +0.000 A 
ATOM      5  C5  UNL     1       1.098   0.248  -0.243  0.00  0.00    +0.000 A 
ATOM      6  C6  UNL     1       0.175   1.266  -0.537  0.00  0.00    +0.000 A 
ATOM      7  N1  UNL     1       3.341  -0.498   0.395  0.00  0.00    +0.000 N 
ATOM      8  C7  UNL     1       2.759  -1.852   0.340  0.00  0.00    +0.000 C 
ATOM      9  C8  UNL     1       1.276  -1.870   0.794  0.00  0.00    +0.000 C 
ATOM     10  N2  UNL     1       0.464  -1.053  -0.115  0.00  0.00    +0.000 N 
ATOM     11  C9  UNL     1      -0.886  -0.609   0.261  0.00  0.00    +0.000 C 
ATOM     12  C10 UNL     1      -1.166   0.628  -0.627  0.00  0.00    +0.000 C 
ATOM     13  C11 UNL     1      -2.433   1.293  -0.119  0.00  0.00    +0.000 C 
ATOM     14  N3  UNL     1      -3.571   0.356  -0.243  0.00  0.00    +0.000 NA
ATOM     15  C12 UNL     1      -3.326  -0.930   0.433  0.00  0.00    +0.000 C 
ATOM     16  C13 UNL     1      -2.002  -1.611   0.043  0.00  0.00    +0.000 C 
ATOM     17  H4  UNL     1       4.253  -0.423  -0.045  0.00  0.00    +0.000 HD
ATOM     18  H13 UNL     1      -3.735   0.175  -1.235  0.00  0.00    +0.000 HD
ENDROOT
TORSDOF 0
