REMARK  Name = /home/anacleto/Desktop/manuscript_Mpro/naturecomm/supplementary_file_S2/6-chemical-library/molecular_docking/3D_ligand_structure/3247.pdb
REMARK  0 active torsions:
REMARK  status: ('A' for Active; 'I' for Inactive)
REMARK                            x       y       z     vdW  Elec       q    Type
REMARK                         _______ _______ _______ _____ _____    ______ ____
ROOT
ATOM      1  C1  UNL     1       3.126  -0.060  -0.110  0.00  0.00    +0.000 A 
ATOM      2  C2  UNL     1       3.853  -1.253  -0.038  0.00  0.00    +0.000 A 
ATOM      3  C3  UNL     1       3.198  -2.482   0.000  0.00  0.00    +0.000 A 
ATOM      4  C4  UNL     1       1.803  -2.557  -0.031  0.00  0.00    +0.000 A 
ATOM      5  C5  UNL     1       1.081  -1.356  -0.113  0.00  0.00    +0.000 A 
ATOM      6  N1  UNL     1      -0.273  -1.113  -0.134  0.00  0.00    +0.000 N 
ATOM      7  C6  UNL     1      -0.503   0.223  -0.248  0.00  0.00    +0.000 A 
ATOM      8  C7  UNL     1       0.698   0.890  -0.206  0.00  0.00    +0.000 A 
ATOM      9  C8  UNL     1       1.718  -0.104  -0.154  0.00  0.00    +0.000 A 
ATOM     10  C9  UNL     1      -1.354  -2.057   0.090  0.00  0.00    +0.000 C 
ATOM     11  C10 UNL     1      -2.735  -1.411  -0.140  0.00  0.00    +0.000 C 
ATOM     12  N2  UNL     1      -2.828  -0.028   0.367  0.00  0.00    +0.000 NA
ATOM     13  C11 UNL     1      -1.858   0.818  -0.338  0.00  0.00    +0.000 C 
ATOM     14  C12 UNL     1      -1.785   2.253   0.228  0.00  0.00    +0.000 C 
ATOM     15  C13 UNL     1      -0.608   3.031  -0.411  0.00  0.00    +0.000 C 
ATOM     16  C14 UNL     1       0.772   2.379  -0.153  0.00  0.00    +0.000 C 
ATOM     17  H9  UNL     1      -3.763   0.338   0.200  0.00  0.00    +0.000 HD
ENDROOT
TORSDOF 0
