REMARK  Name = /home/anacleto/Desktop/manuscript_Mpro/naturecomm/supplementary_file_S2/6-chemical-library/molecular_docking/3D_ligand_structure/3248.pdb
REMARK  3 active torsions:
REMARK  status: ('A' for Active; 'I' for Inactive)
REMARK    1  A    between atoms: C3_3  and  S1_4
REMARK    2  A    between atoms: S1_4  and  N1_7
REMARK    3  A    between atoms: C4_8  and  C5_10
REMARK                            x       y       z     vdW  Elec       q    Type
REMARK                         _______ _______ _______ _____ _____    ______ ____
ROOT
ATOM      1  C5  UNL     1       1.003   0.011   1.910  0.00  0.00    +0.000 C 
ATOM      2  C6  UNL     1       0.677  -1.473   2.124  0.00  0.00    +0.000 C 
ATOM      3  C7  UNL     1       0.225  -0.459   3.134  0.00  0.00    +0.000 C 
ATOM      4  C8  UNL     1      -0.312  -2.105   1.244  0.00  0.00    +0.000 C 
ATOM      5  C9  UNL     1      -1.462  -2.691   1.613  0.00  0.00    +0.000 C 
ATOM      6  C10 UNL     1      -2.476  -3.170   0.614  0.00  0.00    +0.000 C 
ATOM      7  C11 UNL     1      -3.701  -2.251   0.645  0.00  0.00    +0.000 C 
ATOM      8  C12 UNL     1      -4.551  -2.301  -0.628  0.00  0.00    +0.000 C 
ATOM      9  C13 UNL     1      -3.858  -1.763  -1.885  0.00  0.00    +0.000 C 
ATOM     10  N2  UNL     1      -3.366  -0.407  -1.712  0.00  0.00    +0.000 N 
ATOM     11  C14 UNL     1      -2.019  -0.108  -1.691  0.00  0.00    +0.000 C 
ATOM     12  O4  UNL     1      -1.147  -0.952  -1.858  0.00  0.00    +0.000 OA
ATOM     13  C15 UNL     1      -1.711   1.375  -1.537  0.00  0.00    +0.000 C 
ATOM     14  C16 UNL     1      -0.232   1.730  -1.320  0.00  0.00    +0.000 C 
ATOM     15  C17 UNL     1       0.595   0.818  -0.408  0.00  0.00    +0.000 C 
ATOM     16  O5  UNL     1       1.546   0.163  -0.840  0.00  0.00    +0.000 OA
ATOM     17  N3  UNL     1       0.257   0.795   0.928  0.00  0.00    +0.000 N 
ATOM     18  C18 UNL     1      -0.286   3.168  -0.800  0.00  0.00    +0.000 C 
ATOM     19  C19 UNL     1      -1.635   3.321  -0.094  0.00  0.00    +0.000 C 
ATOM     20  C20 UNL     1      -2.431   2.049  -0.371  0.00  0.00    +0.000 C 
ATOM     21  H20 UNL     1      -4.043   0.343  -1.700  0.00  0.00    +0.000 HD
ATOM     22  H23 UNL     1      -0.375   1.488   1.305  0.00  0.00    +0.000 HD
ENDROOT
BRANCH   1  24
ATOM     23  N1  UNL     1       3.317   0.077   1.099  0.00  0.00    +0.000 N 
ATOM     24  C4  UNL     1       2.444   0.437   2.137  0.00  0.00    +0.000 C 
ATOM     25  O3  UNL     1       2.756   1.060   3.142  0.00  0.00    +0.000 OA
ATOM     26  H6  UNL     1       2.841  -0.184   0.226  0.00  0.00    +0.000 HD
BRANCH  23  27
ATOM     27  S1  UNL     1       4.724   0.921   0.831  0.00  0.00    +0.000 S 
ATOM     28  O1  UNL     1       5.601   0.764   1.969  0.00  0.00    +0.000 OA
ATOM     29  O2  UNL     1       4.352   2.223   0.321  0.00  0.00    +0.000 OA
BRANCH  27  32
ATOM     30  C1  UNL     1       6.268   0.875  -1.521  0.00  0.00    +0.000 C 
ATOM     31  C2  UNL     1       4.954   0.229  -1.880  0.00  0.00    +0.000 C 
ATOM     32  C3  UNL     1       5.553   0.013  -0.515  0.00  0.00    +0.000 C 
ENDBRANCH  27  32
ENDBRANCH  23  27
ENDBRANCH   1  24
TORSDOF 3
