REMARK  Name = /home/anacleto/Desktop/manuscript_Mpro/naturecomm/supplementary_file_S2/6-chemical-library/molecular_docking/3D_ligand_structure/3251.pdb
REMARK  5 active torsions:
REMARK  status: ('A' for Active; 'I' for Inactive)
REMARK    1  A    between atoms: C9_10  and  N2_11
REMARK    2  A    between atoms: C10_12  and  C11_14
REMARK    3  A    between atoms: C11_14  and  N3_15
REMARK    4  A    between atoms: C12_16  and  C13_18
REMARK    5  A    between atoms: C13_18  and  N4_19
REMARK                            x       y       z     vdW  Elec       q    Type
REMARK                         _______ _______ _______ _____ _____    ______ ____
ROOT
ATOM      1  N3  UNL     1       1.126  -0.710   2.839  0.00  0.00    +0.000 N 
ATOM      2  C12 UNL     1       1.702  -1.865   2.349  0.00  0.00    +0.000 C 
ATOM      3  O2  UNL     1       1.051  -2.794   1.877  0.00  0.00    +0.000 OA
ATOM      4  H10 UNL     1       1.730   0.114   2.864  0.00  0.00    +0.000 HD
ENDROOT
BRANCH   1   5
ATOM      5  C11 UNL     1      -0.273  -0.447   2.561  0.00  0.00    +0.000 C 
BRANCH   5   7
ATOM      6  N2  UNL     1      -1.717   0.058   0.670  0.00  0.00    +0.000 N 
ATOM      7  C10 UNL     1      -0.427   0.171   1.161  0.00  0.00    +0.000 C 
ATOM      8  O1  UNL     1       0.516   0.728   0.605  0.00  0.00    +0.000 OA
ATOM      9  H7  UNL     1      -2.365  -0.461   1.243  0.00  0.00    +0.000 HD
BRANCH   6  19
ATOM     10  C1  UNL     1      -4.531  -0.390  -0.132  0.00  0.00    +0.000 A 
ATOM     11  C2  UNL     1      -5.854  -0.576  -0.549  0.00  0.00    +0.000 A 
ATOM     12  C3  UNL     1      -6.276  -0.070  -1.770  0.00  0.00    +0.000 A 
ATOM     13  C4  UNL     1      -5.376   0.619  -2.576  0.00  0.00    +0.000 A 
ATOM     14  C5  UNL     1      -4.043   0.810  -2.167  0.00  0.00    +0.000 A 
ATOM     15  C6  UNL     1      -3.580   0.308  -0.926  0.00  0.00    +0.000 A 
ATOM     16  C7  UNL     1      -3.144   1.499  -2.978  0.00  0.00    +0.000 A 
ATOM     17  N1  UNL     1      -1.855   1.730  -2.668  0.00  0.00    +0.000 NA
ATOM     18  C8  UNL     1      -1.423   1.247  -1.479  0.00  0.00    +0.000 A 
ATOM     19  C9  UNL     1      -2.215   0.540  -0.571  0.00  0.00    +0.000 A 
ENDBRANCH   6  19
ENDBRANCH   5   7
ENDBRANCH   1   5
BRANCH   2  20
ATOM     20  C13 UNL     1       3.226  -1.864   2.359  0.00  0.00    +0.000 C 
BRANCH  20  21
ATOM     21  N4  UNL     1       3.684  -1.147   1.182  0.00  0.00    +0.000 N 
ATOM     22  C14 UNL     1       3.781   0.248   1.259  0.00  0.00    +0.000 A 
ATOM     23  O3  UNL     1       3.496   0.896   2.264  0.00  0.00    +0.000 OA
ATOM     24  C15 UNL     1       3.944  -1.843   0.003  0.00  0.00    +0.000 A 
ATOM     25  N5  UNL     1       4.354  -1.319  -1.115  0.00  0.00    +0.000 NA
ATOM     26  C16 UNL     1       4.488   0.024  -1.038  0.00  0.00    +0.000 A 
ATOM     27  C17 UNL     1       4.239   0.837   0.036  0.00  0.00    +0.000 A 
ATOM     28  N6  UNL     1       4.892   0.849  -2.046  0.00  0.00    +0.000 N 
ATOM     29  N7  UNL     1       4.942   2.151  -1.678  0.00  0.00    +0.000 NA
ATOM     30  C18 UNL     1       4.518   2.135  -0.405  0.00  0.00    +0.000 A 
ATOM     31  H14 UNL     1       5.147   0.591  -2.991  0.00  0.00    +0.000 HD
ENDBRANCH  20  21
ENDBRANCH   2  20
TORSDOF 5
