REMARK  Name = /home/anacleto/Desktop/manuscript_Mpro/naturecomm/supplementary_file_S2/6-chemical-library/molecular_docking/3D_ligand_structure/3252.pdb
REMARK  7 active torsions:
REMARK  status: ('A' for Active; 'I' for Inactive)
REMARK    1  A    between atoms: C6_6  and  C7_7
REMARK    2  A    between atoms: C7_7  and  C8_9
REMARK    3  A    between atoms: C8_9  and  N1_10
REMARK    4  A    between atoms: N1_10  and  C9_11
REMARK    5  A    between atoms: C9_11  and  C10_12
REMARK    6  A    between atoms: C10_12  and  C11_13
REMARK    7  A    between atoms: C11_13  and  N2_14
REMARK                            x       y       z     vdW  Elec       q    Type
REMARK                         _______ _______ _______ _____ _____    ______ ____
ROOT
ATOM      1  N2  UNL     1      -2.479   0.963   0.717  0.00  0.00    +0.000 N 
ATOM      2  C12 UNL     1      -3.414   1.075  -0.344  0.00  0.00    +0.000 A 
ATOM      3  C13 UNL     1      -3.817  -0.012  -1.130  0.00  0.00    +0.000 A 
ATOM      4  C14 UNL     1      -3.952   2.343  -0.640  0.00  0.00    +0.000 A 
ATOM      5  C15 UNL     1      -4.846   2.532  -1.695  0.00  0.00    +0.000 A 
ATOM      6  C16 UNL     1      -5.224   1.450  -2.478  0.00  0.00    +0.000 A 
ATOM      7  C17 UNL     1      -4.714   0.184  -2.197  0.00  0.00    +0.000 A 
ATOM      8  C18 UNL     1      -2.424  -0.002   1.758  0.00  0.00    +0.000 A 
ATOM      9  C19 UNL     1      -3.018  -1.282   1.709  0.00  0.00    +0.000 A 
ATOM     10  C20 UNL     1      -3.770  -1.853   0.527  0.00  0.00    +0.000 C 
ATOM     11  C21 UNL     1      -3.302  -1.393  -0.844  0.00  0.00    +0.000 C 
ATOM     12  C22 UNL     1      -2.948  -2.132   2.841  0.00  0.00    +0.000 A 
ATOM     13  C23 UNL     1      -2.292  -1.751   4.007  0.00  0.00    +0.000 A 
ATOM     14  C24 UNL     1      -1.712  -0.498   4.075  0.00  0.00    +0.000 A 
ATOM     15  C25 UNL     1      -1.789   0.359   2.973  0.00  0.00    +0.000 A 
ENDROOT
BRANCH   1  16
ATOM     16  C11 UNL     1      -1.203   1.657   0.395  0.00  0.00    +0.000 C 
BRANCH  16  17
ATOM     17  C10 UNL     1      -0.197   0.718  -0.286  0.00  0.00    +0.000 C 
BRANCH  17  18
ATOM     18  C9  UNL     1       1.126   1.442  -0.543  0.00  0.00    +0.000 C 
BRANCH  18  19
ATOM     19  N1  UNL     1       2.115   0.634  -1.257  0.00  0.00    +0.000 NA
ATOM     20  H8  UNL     1       1.677   0.191  -2.070  0.00  0.00    +0.000 HD
BRANCH  19  21
ATOM     21  C8  UNL     1       2.696  -0.421  -0.419  0.00  0.00    +0.000 C 
BRANCH  21  22
ATOM     22  C7  UNL     1       3.729  -1.193  -1.232  0.00  0.00    +0.000 C 
ATOM     23  O1  UNL     1       3.407  -2.161  -1.923  0.00  0.00    +0.000 OA
BRANCH  22  29
ATOM     24  C1  UNL     1       6.145  -1.709  -1.506  0.00  0.00    +0.000 A 
ATOM     25  C2  UNL     1       7.494  -1.354  -1.465  0.00  0.00    +0.000 A 
ATOM     26  C3  UNL     1       7.862  -0.056  -1.114  0.00  0.00    +0.000 A 
ATOM     27  C4  UNL     1       6.884   0.891  -0.807  0.00  0.00    +0.000 A 
ATOM     28  C5  UNL     1       5.533   0.538  -0.841  0.00  0.00    +0.000 A 
ATOM     29  C6  UNL     1       5.157  -0.768  -1.183  0.00  0.00    +0.000 A 
ENDBRANCH  22  29
ENDBRANCH  21  22
ENDBRANCH  19  21
ENDBRANCH  18  19
ENDBRANCH  17  18
ENDBRANCH  16  17
ENDBRANCH   1  16
TORSDOF 7
