REMARK  Name = /home/anacleto/Desktop/manuscript_Mpro/naturecomm/supplementary_file_S2/6-chemical-library/molecular_docking/3D_ligand_structure/3256.pdb
REMARK  3 active torsions:
REMARK  status: ('A' for Active; 'I' for Inactive)
REMARK    1  A    between atoms: C2_5  and  C4_7
REMARK    2  A    between atoms: C4_7  and  S2_8
REMARK    3  A    between atoms: S2_8  and  N1_11
REMARK                            x       y       z     vdW  Elec       q    Type
REMARK                         _______ _______ _______ _____ _____    ______ ____
ROOT
ATOM      1  N1  UNL     1       0.035  -0.086  -0.632  0.00  0.00    +0.000 NA
ATOM      2  C5  UNL     1      -0.675   0.951   0.155  0.00  0.00    +0.000 C 
ATOM      3  C6  UNL     1      -0.213  -1.463  -0.158  0.00  0.00    +0.000 C 
ATOM      4  C7  UNL     1      -1.612  -1.703   0.378  0.00  0.00    +0.000 A 
ATOM      5  C8  UNL     1      -1.954  -3.005   0.785  0.00  0.00    +0.000 A 
ATOM      6  C9  UNL     1      -3.215  -3.280   1.307  0.00  0.00    +0.000 A 
ATOM      7  C10 UNL     1      -4.150  -2.258   1.432  0.00  0.00    +0.000 A 
ATOM      8  C11 UNL     1      -3.827  -0.961   1.032  0.00  0.00    +0.000 A 
ATOM      9  C12 UNL     1      -2.560  -0.662   0.502  0.00  0.00    +0.000 A 
ATOM     10  C13 UNL     1      -2.189   0.742   0.025  0.00  0.00    +0.000 C 
ATOM     11  C14 UNL     1      -2.872   1.865   0.796  0.00  0.00    +0.000 C 
ATOM     12  O5  UNL     1      -2.613   2.241   1.928  0.00  0.00    +0.000 OA
ATOM     13  N2  UNL     1      -3.877   2.392   0.008  0.00  0.00    +0.000 N 
ATOM     14  C15 UNL     1      -4.031   1.688  -1.229  0.00  0.00    +0.000 C 
ATOM     15  C16 UNL     1      -2.691   0.999  -1.416  0.00  0.00    +0.000 C 
ATOM     16  H16 UNL     1      -4.515   3.088   0.377  0.00  0.00    +0.000 HD
ENDROOT
BRANCH   1  17
ATOM     17  S2  UNL     1       1.577   0.266  -1.200  0.00  0.00    +0.000 S 
ATOM     18  O3  UNL     1       1.532   1.570  -1.822  0.00  0.00    +0.000 OA
ATOM     19  O4  UNL     1       2.063  -0.892  -1.917  0.00  0.00    +0.000 OA
BRANCH  17  20
ATOM     20  C4  UNL     1       2.543   0.415   0.305  0.00  0.00    +0.000 C 
BRANCH  20  25
ATOM     21  O1  UNL     1       6.977  -0.852   0.805  0.00  0.00    +0.000 OA
ATOM     22  S1  UNL     1       6.270   0.245   0.181  0.00  0.00    +0.000 S 
ATOM     23  O2  UNL     1       6.934   1.347  -0.479  0.00  0.00    +0.000 OA
ATOM     24  C1  UNL     1       4.933   0.807   1.197  0.00  0.00    +0.000 C 
ATOM     25  C2  UNL     1       3.984   0.776  -0.031  0.00  0.00    +0.000 C 
ATOM     26  C3  UNL     1       4.853  -0.315  -0.720  0.00  0.00    +0.000 C 
ENDBRANCH  20  25
ENDBRANCH  17  20
ENDBRANCH   1  17
TORSDOF 3
