REMARK  Name = /home/anacleto/Desktop/manuscript_Mpro/naturecomm/supplementary_file_S2/6-chemical-library/molecular_docking/3D_ligand_structure/3257.pdb
REMARK  3 active torsions:
REMARK  status: ('A' for Active; 'I' for Inactive)
REMARK    1  A    between atoms: C5_6  and  C6_7
REMARK    2  A    between atoms: C6_7  and  S1_8
REMARK    3  A    between atoms: S1_8  and  N1_11
REMARK                            x       y       z     vdW  Elec       q    Type
REMARK                         _______ _______ _______ _____ _____    ______ ____
ROOT
ATOM      1  N1  UNL     1      -0.477   0.198  -0.880  0.00  0.00    +0.000 NA
ATOM      2  C7  UNL     1      -1.223   0.789   0.248  0.00  0.00    +0.000 C 
ATOM      3  C8  UNL     1      -0.667  -1.255  -1.024  0.00  0.00    +0.000 C 
ATOM      4  C9  UNL     1      -2.089  -1.722  -0.800  0.00  0.00    +0.000 A 
ATOM      5  C10 UNL     1      -2.408  -3.049  -1.144  0.00  0.00    +0.000 A 
ATOM      6  C11 UNL     1      -3.706  -3.531  -1.004  0.00  0.00    +0.000 A 
ATOM      7  C12 UNL     1      -4.704  -2.690  -0.530  0.00  0.00    +0.000 A 
ATOM      8  C13 UNL     1      -4.399  -1.374  -0.176  0.00  0.00    +0.000 A 
ATOM      9  C14 UNL     1      -3.086  -0.876  -0.271  0.00  0.00    +0.000 A 
ATOM     10  C15 UNL     1      -2.748   0.558   0.123  0.00  0.00    +0.000 C 
ATOM     11  C16 UNL     1      -3.333   1.592  -0.844  0.00  0.00    +0.000 C 
ATOM     12  O4  UNL     1      -3.396   1.537  -2.060  0.00  0.00    +0.000 OA
ATOM     13  N2  UNL     1      -3.795   2.669  -0.106  0.00  0.00    +0.000 N 
ATOM     14  C17 UNL     1      -3.581   2.518   1.297  0.00  0.00    +0.000 C 
ATOM     15  C18 UNL     1      -3.404   1.018   1.462  0.00  0.00    +0.000 C 
ATOM     16  H20 UNL     1      -4.141   3.497  -0.577  0.00  0.00    +0.000 HD
ENDROOT
BRANCH   1  17
ATOM     17  S1  UNL     1       1.060   0.804  -1.228  0.00  0.00    +0.000 S 
ATOM     18  O2  UNL     1       0.994   2.247  -1.148  0.00  0.00    +0.000 OA
ATOM     19  O3  UNL     1       1.542   0.134  -2.415  0.00  0.00    +0.000 OA
BRANCH  17  20
ATOM     20  C6  UNL     1       2.035   0.229   0.170  0.00  0.00    +0.000 C 
BRANCH  20  26
ATOM     21  C1  UNL     1       4.166   0.517   1.515  0.00  0.00    +0.000 C 
ATOM     22  C2  UNL     1       5.042  -0.725   1.433  0.00  0.00    +0.000 C 
ATOM     23  O1  UNL     1       6.077  -0.611   0.458  0.00  0.00    +0.000 OA
ATOM     24  C3  UNL     1       5.784   0.243  -0.648  0.00  0.00    +0.000 C 
ATOM     25  C4  UNL     1       4.304   0.253  -0.999  0.00  0.00    +0.000 C 
ATOM     26  C5  UNL     1       3.465   0.797   0.171  0.00  0.00    +0.000 C 
ENDBRANCH  20  26
ENDBRANCH  17  20
ENDBRANCH   1  17
TORSDOF 3
