REMARK  Name = /home/anacleto/Desktop/manuscript_Mpro/naturecomm/supplementary_file_S2/6-chemical-library/molecular_docking/3D_ligand_structure/326.pdb
REMARK  0 active torsions:
REMARK  status: ('A' for Active; 'I' for Inactive)
REMARK                            x       y       z     vdW  Elec       q    Type
REMARK                         _______ _______ _______ _____ _____    ______ ____
ROOT
ATOM      1  C1  UNL     1       1.762   1.049  -0.035  0.00  0.00    +0.000 A 
ATOM      2  N1  UNL     1       2.635   0.035  -0.100  0.00  0.00    +0.000 NA
ATOM      3  N2  UNL     1       1.837  -1.056  -0.103  0.00  0.00    +0.000 N 
ATOM      4  C2  UNL     1       0.505  -0.765  -0.043  0.00  0.00    +0.000 A 
ATOM      5  C3  UNL     1       0.419   0.617   0.003  0.00  0.00    +0.000 A 
ATOM      6  N3  UNL     1      -0.508  -1.653  -0.032  0.00  0.00    +0.000 NA
ATOM      7  C4  UNL     1      -1.720  -1.053   0.033  0.00  0.00    +0.000 A 
ATOM      8  C5  UNL     1      -1.948   0.319   0.085  0.00  0.00    +0.000 A 
ATOM      9  C6  UNL     1      -0.857   1.193   0.070  0.00  0.00    +0.000 A 
ATOM     10  H2  UNL     1       2.255  -1.976  -0.148  0.00  0.00    +0.000 HD
ENDROOT
TORSDOF 0
