REMARK  Name = /home/anacleto/Desktop/manuscript_Mpro/naturecomm/supplementary_file_S2/6-chemical-library/molecular_docking/3D_ligand_structure/3266.pdb
REMARK  2 active torsions:
REMARK  status: ('A' for Active; 'I' for Inactive)
REMARK    1  A    between atoms: C9_12  and  C10_13
REMARK    2  A    between atoms: N1_15  and  C11_16
REMARK                            x       y       z     vdW  Elec       q    Type
REMARK                         _______ _______ _______ _____ _____    ______ ____
ROOT
ATOM      1  C10 UNL     1       0.368   0.279   0.004  0.00  0.00    +0.000 C 
ATOM      2  O3  UNL     1       0.827   0.388   1.135  0.00  0.00    +0.000 OA
ATOM      3  N1  UNL     1       0.762  -0.632  -0.961  0.00  0.00    +0.000 N 
ATOM      4  H10 UNL     1       0.138  -0.768  -1.749  0.00  0.00    +0.000 HD
ENDROOT
BRANCH   1  16
ATOM      5  C1  UNL     1      -2.407  -0.730   0.058  0.00  0.00    +0.000 A 
ATOM      6  C2  UNL     1      -3.692  -1.227   0.302  0.00  0.00    +0.000 A 
ATOM      7  C3  UNL     1      -4.784  -0.367   0.336  0.00  0.00    +0.000 A 
ATOM      8  C4  UNL     1      -4.591   0.993   0.129  0.00  0.00    +0.000 A 
ATOM      9  C5  UNL     1      -3.302   1.490  -0.112  0.00  0.00    +0.000 A 
ATOM     10  C6  UNL     1      -2.177   0.643  -0.151  0.00  0.00    +0.000 A 
ATOM     11  S1  UNL     1      -3.177   3.247  -0.341  0.00  0.00    +0.000 S 
ATOM     12  O1  UNL     1      -3.877   3.550  -1.575  0.00  0.00    +0.000 OA
ATOM     13  O2  UNL     1      -3.565   3.853   0.918  0.00  0.00    +0.000 OA
ATOM     14  C7  UNL     1      -1.459   3.587  -0.606  0.00  0.00    +0.000 C 
ATOM     15  C8  UNL     1      -0.571   2.584   0.099  0.00  0.00    +0.000 C 
ATOM     16  C9  UNL     1      -0.786   1.174  -0.476  0.00  0.00    +0.000 C 
ENDBRANCH   1  16
BRANCH   3  17
ATOM     17  C11 UNL     1       1.814  -1.537  -0.893  0.00  0.00    +0.000 A 
ATOM     18  C12 UNL     1       1.959  -2.633  -1.774  0.00  0.00    +0.000 A 
ATOM     19  N2  UNL     1       3.029  -3.380  -1.524  0.00  0.00    +0.000 NA
ATOM     20  N3  UNL     1       3.628  -2.770  -0.470  0.00  0.00    +0.000 N 
ATOM     21  C13 UNL     1       2.927  -1.614  -0.080  0.00  0.00    +0.000 A 
ATOM     22  C14 UNL     1       4.794  -3.196   0.171  0.00  0.00    +0.000 A 
ATOM     23  C15 UNL     1       5.304  -2.488   1.190  0.00  0.00    +0.000 A 
ATOM     24  C16 UNL     1       4.640  -1.260   1.579  0.00  0.00    +0.000 A 
ATOM     25  C17 UNL     1       3.513  -0.841   0.971  0.00  0.00    +0.000 A 
ENDBRANCH   3  17
TORSDOF 2
