REMARK  Name = /home/anacleto/Desktop/manuscript_Mpro/naturecomm/supplementary_file_S2/6-chemical-library/molecular_docking/3D_ligand_structure/327.pdb
REMARK  0 active torsions:
REMARK  status: ('A' for Active; 'I' for Inactive)
REMARK                            x       y       z     vdW  Elec       q    Type
REMARK                         _______ _______ _______ _____ _____    ______ ____
ROOT
ATOM      1  C1  UNL     1       1.547  -1.201   0.161  0.00  0.00    +0.000 A 
ATOM      2  N1  UNL     1       2.487  -0.254   0.086  0.00  0.00    +0.000 NA
ATOM      3  N2  UNL     1       1.776   0.881  -0.048  0.00  0.00    +0.000 N 
ATOM      4  C2  UNL     1       0.422   0.691  -0.061  0.00  0.00    +0.000 A 
ATOM      5  C3  UNL     1       0.238  -0.679   0.076  0.00  0.00    +0.000 A 
ATOM      6  C4  UNL     1      -0.639   1.574  -0.178  0.00  0.00    +0.000 A 
ATOM      7  N3  UNL     1      -1.899   1.080  -0.157  0.00  0.00    +0.000 NA
ATOM      8  C5  UNL     1      -2.082  -0.255  -0.024  0.00  0.00    +0.000 A 
ATOM      9  C6  UNL     1      -1.063  -1.190   0.097  0.00  0.00    +0.000 A 
ATOM     10  H2  UNL     1       2.282   1.757  -0.127  0.00  0.00    +0.000 HD
ENDROOT
TORSDOF 0
