REMARK  Name = /home/anacleto/Desktop/manuscript_Mpro/naturecomm/supplementary_file_S2/6-chemical-library/molecular_docking/3D_ligand_structure/3270.pdb
REMARK  3 active torsions:
REMARK  status: ('A' for Active; 'I' for Inactive)
REMARK    1  A    between atoms: C5_7  and  N2_10
REMARK    2  A    between atoms: N3_13  and  C9_14
REMARK    3  A    between atoms: C9_14  and  C10_15
REMARK                            x       y       z     vdW  Elec       q    Type
REMARK                         _______ _______ _______ _____ _____    ______ ____
ROOT
ATOM      1  N2  UNL     1      -1.733  -0.267  -1.356  0.00  0.00    +0.000 N 
ATOM      2  C8  UNL     1      -0.528   0.390  -1.479  0.00  0.00    +0.000 C 
ATOM      3  O2  UNL     1      -0.284   1.538  -1.134  0.00  0.00    +0.000 OA
ATOM      4  N3  UNL     1       0.410  -0.424  -2.082  0.00  0.00    +0.000 N 
ATOM      5  H5  UNL     1      -1.814  -1.121  -1.888  0.00  0.00    +0.000 HD
ATOM      6  H6  UNL     1       0.298  -1.414  -1.928  0.00  0.00    +0.000 HD
ENDROOT
BRANCH   1  13
ATOM      7  N1  UNL     1      -6.367   1.530   1.149  0.00  0.00    +0.000 NA
ATOM      8  C1  UNL     1      -5.811   2.615   1.646  0.00  0.00    +0.000 A 
ATOM      9  O1  UNL     1      -4.492   2.789   1.353  0.00  0.00    +0.000 OA
ATOM     10  C2  UNL     1      -4.187   1.699   0.588  0.00  0.00    +0.000 A 
ATOM     11  C3  UNL     1      -5.335   0.935   0.469  0.00  0.00    +0.000 A 
ATOM     12  C4  UNL     1      -2.956   1.384   0.020  0.00  0.00    +0.000 A 
ATOM     13  C5  UNL     1      -2.907   0.199  -0.726  0.00  0.00    +0.000 A 
ATOM     14  C6  UNL     1      -4.056  -0.603  -0.861  0.00  0.00    +0.000 A 
ATOM     15  C7  UNL     1      -5.282  -0.249  -0.272  0.00  0.00    +0.000 A 
ENDBRANCH   1  13
BRANCH   4  16
ATOM     16  C9  UNL     1       1.774   0.030  -2.258  0.00  0.00    +0.000 C 
BRANCH  16  17
ATOM     17  C10 UNL     1       2.650  -0.433  -1.118  0.00  0.00    +0.000 A 
ATOM     18  C11 UNL     1       2.657   0.283   0.093  0.00  0.00    +0.000 A 
ATOM     19  C12 UNL     1       3.439  -1.608  -1.255  0.00  0.00    +0.000 A 
ATOM     20  C13 UNL     1       4.244  -2.076  -0.209  0.00  0.00    +0.000 A 
ATOM     21  C14 UNL     1       4.228  -1.348   0.955  0.00  0.00    +0.000 A 
ATOM     22  C15 UNL     1       3.454  -0.200   1.103  0.00  0.00    +0.000 A 
ATOM     23  N4  UNL     1       4.909  -1.562   2.148  0.00  0.00    +0.000 N 
ATOM     24  C16 UNL     1       4.563  -0.547   3.053  0.00  0.00    +0.000 A 
ATOM     25  O3  UNL     1       4.970  -0.422   4.193  0.00  0.00    +0.000 OA
ATOM     26  N5  UNL     1       3.657   0.292   2.387  0.00  0.00    +0.000 N 
ATOM     27  H12 UNL     1       5.549  -2.308   2.364  0.00  0.00    +0.000 HD
ATOM     28  H13 UNL     1       3.238   1.109   2.800  0.00  0.00    +0.000 HD
ENDBRANCH  16  17
ENDBRANCH   4  16
TORSDOF 3
