REMARK  Name = /home/anacleto/Desktop/manuscript_Mpro/naturecomm/supplementary_file_S2/6-chemical-library/molecular_docking/3D_ligand_structure/3273.pdb
REMARK  2 active torsions:
REMARK  status: ('A' for Active; 'I' for Inactive)
REMARK    1  A    between atoms: C7_7  and  C10_12
REMARK    2  A    between atoms: N2_14  and  C11_15
REMARK                            x       y       z     vdW  Elec       q    Type
REMARK                         _______ _______ _______ _____ _____    ______ ____
ROOT
ATOM      1  C10 UNL     1      -0.893  -1.563  -0.086  0.00  0.00    +0.000 C 
ATOM      2  O2  UNL     1      -0.984  -2.573  -0.776  0.00  0.00    +0.000 OA
ATOM      3  N2  UNL     1       0.260  -0.812   0.101  0.00  0.00    +0.000 N 
ATOM      4  H9  UNL     1       0.168   0.011   0.682  0.00  0.00    +0.000 HD
ENDROOT
BRANCH   1  11
ATOM      5  C1  UNL     1      -5.002   1.267  -0.360  0.00  0.00    +0.000 A 
ATOM      6  C2  UNL     1      -4.431   2.058  -1.354  0.00  0.00    +0.000 A 
ATOM      7  C3  UNL     1      -3.102   1.858  -1.721  0.00  0.00    +0.000 A 
ATOM      8  C4  UNL     1      -2.334   0.872  -1.095  0.00  0.00    +0.000 A 
ATOM      9  C5  UNL     1      -2.892   0.059  -0.096  0.00  0.00    +0.000 A 
ATOM     10  C6  UNL     1      -4.242   0.272   0.266  0.00  0.00    +0.000 A 
ATOM     11  C7  UNL     1      -2.092  -0.990   0.666  0.00  0.00    +0.000 C 
ATOM     12  C8  UNL     1      -3.028  -2.141   1.054  0.00  0.00    +0.000 C 
ATOM     13  N1  UNL     1      -4.178  -1.643   1.779  0.00  0.00    +0.000 N 
ATOM     14  C9  UNL     1      -4.891  -0.561   1.321  0.00  0.00    +0.000 C 
ATOM     15  O1  UNL     1      -6.002  -0.302   1.764  0.00  0.00    +0.000 OA
ATOM     16  H8  UNL     1      -4.714  -2.270   2.368  0.00  0.00    +0.000 HD
ENDBRANCH   1  11
BRANCH   3  17
ATOM     17  C11 UNL     1       1.540  -1.042  -0.463  0.00  0.00    +0.000 A 
ATOM     18  C12 UNL     1       1.819  -2.105  -1.325  0.00  0.00    +0.000 A 
ATOM     19  N3  UNL     1       3.023  -2.336  -1.901  0.00  0.00    +0.000 NA
ATOM     20  C13 UNL     1       4.005  -1.461  -1.618  0.00  0.00    +0.000 A 
ATOM     21  C14 UNL     1       3.853  -0.360  -0.782  0.00  0.00    +0.000 A 
ATOM     22  C15 UNL     1       2.601  -0.157  -0.163  0.00  0.00    +0.000 A 
ATOM     23  C16 UNL     1       5.040   0.532  -0.534  0.00  0.00    +0.000 C 
ATOM     24  C17 UNL     1       4.654   1.888   0.046  0.00  0.00    +0.000 C 
ATOM     25  C18 UNL     1       3.706   1.696   1.218  0.00  0.00    +0.000 C 
ATOM     26  C19 UNL     1       2.408   1.030   0.759  0.00  0.00    +0.000 C 
ENDBRANCH   3  17
TORSDOF 2
