REMARK  Name = /home/anacleto/Desktop/manuscript_Mpro/naturecomm/supplementary_file_S2/6-chemical-library/molecular_docking/3D_ligand_structure/3275.pdb
REMARK  2 active torsions:
REMARK  status: ('A' for Active; 'I' for Inactive)
REMARK    1  A    between atoms: C9_10  and  C10_11
REMARK    2  A    between atoms: N1_13  and  C11_14
REMARK                            x       y       z     vdW  Elec       q    Type
REMARK                         _______ _______ _______ _____ _____    ______ ____
ROOT
ATOM      1  C10 UNL     1      -0.545  -0.619  -0.419  0.00  0.00    +0.000 C 
ATOM      2  O2  UNL     1      -0.656  -1.763  -0.845  0.00  0.00    +0.000 OA
ATOM      3  N1  UNL     1       0.659   0.002  -0.086  0.00  0.00    +0.000 N 
ATOM      4  H10 UNL     1       0.571   0.949   0.248  0.00  0.00    +0.000 HD
ENDROOT
BRANCH   3   5
ATOM      5  C11 UNL     1       1.948  -0.512  -0.146  0.00  0.00    +0.000 A 
ATOM      6  C12 UNL     1       2.225  -1.759  -0.565  0.00  0.00    +0.000 A 
ATOM      7  C13 UNL     1       3.598  -2.302  -0.626  0.00  0.00    +0.000 A 
ATOM      8  O3  UNL     1       3.816  -3.445  -1.012  0.00  0.00    +0.000 OA
ATOM      9  N2  UNL     1       4.603  -1.471  -0.235  0.00  0.00    +0.000 N 
ATOM     10  C14 UNL     1       4.396  -0.165   0.212  0.00  0.00    +0.000 A 
ATOM     11  C15 UNL     1       3.090   0.358   0.274  0.00  0.00    +0.000 A 
ATOM     12  C16 UNL     1       5.511   0.591   0.588  0.00  0.00    +0.000 A 
ATOM     13  C17 UNL     1       5.344   1.896   1.038  0.00  0.00    +0.000 A 
ATOM     14  C18 UNL     1       4.065   2.439   1.111  0.00  0.00    +0.000 A 
ATOM     15  C19 UNL     1       2.950   1.680   0.734  0.00  0.00    +0.000 A 
ATOM     16  H12 UNL     1       5.535  -1.860  -0.284  0.00  0.00    +0.000 HD
ENDBRANCH   3   5
BRANCH   1  26
ATOM     17  C1  UNL     1      -3.167  -1.438   0.945  0.00  0.00    +0.000 A 
ATOM     18  C2  UNL     1      -4.389  -2.071   1.178  0.00  0.00    +0.000 A 
ATOM     19  C3  UNL     1      -5.532  -1.652   0.502  0.00  0.00    +0.000 A 
ATOM     20  C4  UNL     1      -5.453  -0.592  -0.399  0.00  0.00    +0.000 A 
ATOM     21  C5  UNL     1      -4.234   0.051  -0.622  0.00  0.00    +0.000 A 
ATOM     22  C6  UNL     1      -3.068  -0.382   0.023  0.00  0.00    +0.000 A 
ATOM     23  O1  UNL     1      -4.270   1.092  -1.511  0.00  0.00    +0.000 OA
ATOM     24  C7  UNL     1      -3.155   1.978  -1.425  0.00  0.00    +0.000 C 
ATOM     25  C8  UNL     1      -1.839   1.226  -1.455  0.00  0.00    +0.000 C 
ATOM     26  C9  UNL     1      -1.749   0.316  -0.228  0.00  0.00    +0.000 C 
ENDBRANCH   1  26
TORSDOF 2
