REMARK  Name = /home/anacleto/Desktop/manuscript_Mpro/naturecomm/supplementary_file_S2/6-chemical-library/molecular_docking/3D_ligand_structure/3279.pdb
REMARK  2 active torsions:
REMARK  status: ('A' for Active; 'I' for Inactive)
REMARK    1  A    between atoms: C9_11  and  C10_12
REMARK    2  A    between atoms: N2_14  and  C11_15
REMARK                            x       y       z     vdW  Elec       q    Type
REMARK                         _______ _______ _______ _____ _____    ______ ____
ROOT
ATOM      1  C10 UNL     1      -0.539  -1.908   0.335  0.00  0.00    +0.000 C 
ATOM      2  O2  UNL     1      -0.564  -3.018  -0.193  0.00  0.00    +0.000 OA
ATOM      3  N2  UNL     1       0.413  -0.938   0.067  0.00  0.00    +0.000 N 
ATOM      4  H9  UNL     1       0.280  -0.044   0.512  0.00  0.00    +0.000 HD
ENDROOT
BRANCH   1  15
ATOM      5  C1  UNL     1      -1.194   0.805   2.367  0.00  0.00    +0.000 A 
ATOM      6  C2  UNL     1      -1.472   2.171   2.325  0.00  0.00    +0.000 A 
ATOM      7  C3  UNL     1      -2.450   2.661   1.458  0.00  0.00    +0.000 A 
ATOM      8  C4  UNL     1      -3.170   1.785   0.644  0.00  0.00    +0.000 A 
ATOM      9  C5  UNL     1      -2.907   0.419   0.705  0.00  0.00    +0.000 A 
ATOM     10  C6  UNL     1      -1.898  -0.077   1.535  0.00  0.00    +0.000 A 
ATOM     11  N1  UNL     1      -3.661  -0.471  -0.061  0.00  0.00    +0.000 N 
ATOM     12  C7  UNL     1      -3.662  -1.831   0.120  0.00  0.00    +0.000 C 
ATOM     13  O1  UNL     1      -4.389  -2.549  -0.561  0.00  0.00    +0.000 OA
ATOM     14  C8  UNL     1      -2.834  -2.360   1.271  0.00  0.00    +0.000 C 
ATOM     15  C9  UNL     1      -1.548  -1.548   1.447  0.00  0.00    +0.000 C 
ATOM     16  H5  UNL     1      -4.325  -0.127  -0.744  0.00  0.00    +0.000 HD
ENDBRANCH   1  15
BRANCH   3  17
ATOM     17  C11 UNL     1       1.513  -1.019  -0.830  0.00  0.00    +0.000 A 
ATOM     18  C12 UNL     1       1.845  -2.189  -1.517  0.00  0.00    +0.000 A 
ATOM     19  N3  UNL     1       2.897  -2.317  -2.359  0.00  0.00    +0.000 NA
ATOM     20  C13 UNL     1       3.663  -1.224  -2.537  0.00  0.00    +0.000 A 
ATOM     21  C14 UNL     1       3.443   0.005  -1.919  0.00  0.00    +0.000 A 
ATOM     22  C15 UNL     1       2.340   0.128  -1.040  0.00  0.00    +0.000 A 
ATOM     23  C16 UNL     1       4.299   1.094  -2.168  0.00  0.00    +0.000 A 
ATOM     24  C17 UNL     1       4.080   2.326  -1.559  0.00  0.00    +0.000 A 
ATOM     25  C18 UNL     1       3.004   2.482  -0.698  0.00  0.00    +0.000 A 
ATOM     26  C19 UNL     1       2.148   1.404  -0.443  0.00  0.00    +0.000 A 
ENDBRANCH   3  17
TORSDOF 2
