REMARK  Name = /home/anacleto/Desktop/manuscript_Mpro/naturecomm/supplementary_file_S2/6-chemical-library/molecular_docking/3D_ligand_structure/3283.pdb
REMARK  2 active torsions:
REMARK  status: ('A' for Active; 'I' for Inactive)
REMARK    1  A    between atoms: C8_9  and  C10_11
REMARK    2  A    between atoms: N2_13  and  N3_14
REMARK                            x       y       z     vdW  Elec       q    Type
REMARK                         _______ _______ _______ _____ _____    ______ ____
ROOT
ATOM      1  C10 UNL     1      -0.288   0.858  -0.283  0.00  0.00    +0.000 C 
ATOM      2  O1  UNL     1       0.058   0.399  -1.368  0.00  0.00    +0.000 OA
ATOM      3  N2  UNL     1       0.436   1.776   0.481  0.00  0.00    +0.000 N 
ATOM      4  H7  UNL     1      -0.133   2.401   1.044  0.00  0.00    +0.000 HD
ENDROOT
BRANCH   3   5
ATOM      5  N3  UNL     1       1.515   2.416  -0.059  0.00  0.00    +0.000 NA
ATOM      6  C11 UNL     1       2.585   1.752  -0.420  0.00  0.00    +0.000 A 
ATOM      7  C12 UNL     1       3.540   2.524  -1.273  0.00  0.00    +0.000 A 
ATOM      8  C13 UNL     1       4.504   1.864  -1.921  0.00  0.00    +0.000 A 
ATOM      9  N4  UNL     1       4.713   0.518  -1.827  0.00  0.00    +0.000 N 
ATOM     10  C14 UNL     1       4.051  -0.231  -0.839  0.00  0.00    +0.000 A 
ATOM     11  C15 UNL     1       2.998   0.341  -0.092  0.00  0.00    +0.000 A 
ATOM     12  C16 UNL     1       4.434  -1.557  -0.597  0.00  0.00    +0.000 A 
ATOM     13  C17 UNL     1       3.833  -2.290   0.426  0.00  0.00    +0.000 A 
ATOM     14  C18 UNL     1       2.854  -1.700   1.220  0.00  0.00    +0.000 A 
ATOM     15  C19 UNL     1       2.446  -0.387   0.971  0.00  0.00    +0.000 A 
ATOM     16  H10 UNL     1       5.561   0.137  -2.227  0.00  0.00    +0.000 HD
ENDBRANCH   3   5
BRANCH   1  25
ATOM     17  C1  UNL     1      -4.850  -0.912  -0.928  0.00  0.00    +0.000 A 
ATOM     18  C2  UNL     1      -6.073  -1.301  -0.395  0.00  0.00    +0.000 A 
ATOM     19  C3  UNL     1      -6.245  -1.199   0.973  0.00  0.00    +0.000 A 
ATOM     20  N1  UNL     1      -5.295  -0.746   1.822  0.00  0.00    +0.000 NA
ATOM     21  C4  UNL     1      -4.114  -0.372   1.303  0.00  0.00    +0.000 A 
ATOM     22  C5  UNL     1      -3.841  -0.436  -0.080  0.00  0.00    +0.000 A 
ATOM     23  C6  UNL     1      -3.115   0.092   2.148  0.00  0.00    +0.000 A 
ATOM     24  C7  UNL     1      -1.865   0.497   1.663  0.00  0.00    +0.000 A 
ATOM     25  C8  UNL     1      -1.601   0.447   0.292  0.00  0.00    +0.000 A 
ATOM     26  C9  UNL     1      -2.589  -0.032  -0.576  0.00  0.00    +0.000 A 
ENDBRANCH   1  25
TORSDOF 2
