REMARK  Name = /home/anacleto/Desktop/manuscript_Mpro/naturecomm/supplementary_file_S2/6-chemical-library/molecular_docking/3D_ligand_structure/3288.pdb
REMARK  3 active torsions:
REMARK  status: ('A' for Active; 'I' for Inactive)
REMARK    1  A    between atoms: C3_3  and  C4_4
REMARK    2  A    between atoms: C4_4  and  S1_5
REMARK    3  A    between atoms: S1_5  and  N1_8
REMARK                            x       y       z     vdW  Elec       q    Type
REMARK                         _______ _______ _______ _____ _____    ______ ____
ROOT
ATOM      1  N1  UNL     1       0.318  -0.046  -0.851  0.00  0.00    +0.000 NA
ATOM      2  C5  UNL     1      -0.303  -0.992   0.103  0.00  0.00    +0.000 C 
ATOM      3  C6  UNL     1       0.067   1.372  -0.517  0.00  0.00    +0.000 C 
ATOM      4  C7  UNL     1      -1.332   1.643   0.005  0.00  0.00    +0.000 A 
ATOM      5  C8  UNL     1      -1.717   2.977   0.219  0.00  0.00    +0.000 A 
ATOM      6  C9  UNL     1      -2.988   3.283   0.700  0.00  0.00    +0.000 A 
ATOM      7  C10 UNL     1      -3.890   2.260   0.974  0.00  0.00    +0.000 A 
ATOM      8  C11 UNL     1      -3.524   0.930   0.769  0.00  0.00    +0.000 A 
ATOM      9  C12 UNL     1      -2.241   0.601   0.296  0.00  0.00    +0.000 A 
ATOM     10  C13 UNL     1      -1.831  -0.848   0.035  0.00  0.00    +0.000 C 
ATOM     11  C14 UNL     1      -2.398  -1.830   1.043  0.00  0.00    +0.000 C 
ATOM     12  O3  UNL     1      -2.104  -1.905   2.225  0.00  0.00    +0.000 OA
ATOM     13  N2  UNL     1      -3.299  -2.631   0.423  0.00  0.00    +0.000 N 
ATOM     14  C15 UNL     1      -3.365  -2.431  -0.914  0.00  0.00    +0.000 C 
ATOM     15  O4  UNL     1      -4.082  -3.057  -1.677  0.00  0.00    +0.000 OA
ATOM     16  C16 UNL     1      -2.405  -1.346  -1.307  0.00  0.00    +0.000 C 
ATOM     17  H16 UNL     1      -3.815  -3.358   0.894  0.00  0.00    +0.000 HD
ENDROOT
BRANCH   1  18
ATOM     18  S1  UNL     1       1.855  -0.425  -1.449  0.00  0.00    +0.000 S 
ATOM     19  O1  UNL     1       1.801  -1.806  -1.881  0.00  0.00    +0.000 OA
ATOM     20  O2  UNL     1       2.227   0.634  -2.365  0.00  0.00    +0.000 OA
BRANCH  18  21
ATOM     21  C4  UNL     1       2.895  -0.321   0.023  0.00  0.00    +0.000 C 
BRANCH  21  24
ATOM     22  C1  UNL     1       5.260   0.349  -0.880  0.00  0.00    +0.000 C 
ATOM     23  C2  UNL     1       5.457  -0.323   0.450  0.00  0.00    +0.000 C 
ATOM     24  C3  UNL     1       4.279  -0.698  -0.416  0.00  0.00    +0.000 C 
ENDBRANCH  21  24
ENDBRANCH  18  21
ENDBRANCH   1  18
TORSDOF 3
