REMARK  Name = /home/anacleto/Desktop/manuscript_Mpro/naturecomm/supplementary_file_S2/6-chemical-library/molecular_docking/3D_ligand_structure/329.pdb
REMARK  0 active torsions:
REMARK  status: ('A' for Active; 'I' for Inactive)
REMARK                            x       y       z     vdW  Elec       q    Type
REMARK                         _______ _______ _______ _____ _____    ______ ____
ROOT
ATOM      1  C1  UNL     1       1.950  -0.962  -0.163  0.00  0.00    +0.000 A 
ATOM      2  N1  UNL     1       2.624   0.179   0.032  0.00  0.00    +0.000 NA
ATOM      3  N2  UNL     1       1.644   1.092   0.188  0.00  0.00    +0.000 N 
ATOM      4  C2  UNL     1       0.379   0.579   0.099  0.00  0.00    +0.000 A 
ATOM      5  C3  UNL     1       0.554  -0.778  -0.133  0.00  0.00    +0.000 A 
ATOM      6  C4  UNL     1      -0.889   1.149   0.196  0.00  0.00    +0.000 A 
ATOM      7  C5  UNL     1      -1.954   0.262   0.044  0.00  0.00    +0.000 A 
ATOM      8  C6  UNL     1      -1.697  -1.085  -0.187  0.00  0.00    +0.000 A 
ATOM      9  N3  UNL     1      -0.473  -1.649  -0.283  0.00  0.00    +0.000 NA
ATOM     10  H2  UNL     1       1.911   2.055   0.353  0.00  0.00    +0.000 HD
ENDROOT
TORSDOF 0
