REMARK  Name = /home/anacleto/Desktop/manuscript_Mpro/naturecomm/supplementary_file_S2/6-chemical-library/molecular_docking/3D_ligand_structure/3292.pdb
REMARK  3 active torsions:
REMARK  status: ('A' for Active; 'I' for Inactive)
REMARK    1  A    between atoms: C6_9  and  C8_11
REMARK    2  A    between atoms: N2_13  and  C9_14
REMARK    3  A    between atoms: C9_14  and  C10_15
REMARK                            x       y       z     vdW  Elec       q    Type
REMARK                         _______ _______ _______ _____ _____    ______ ____
ROOT
ATOM      1  C8  UNL     1       0.841  -0.965  -0.718  0.00  0.00    +0.000 C 
ATOM      2  O2  UNL     1       0.838  -2.190  -0.764  0.00  0.00    +0.000 OA
ATOM      3  N2  UNL     1      -0.286  -0.204  -0.921  0.00  0.00    +0.000 N 
ATOM      4  H5  UNL     1      -0.188   0.781  -1.137  0.00  0.00    +0.000 HD
ENDROOT
BRANCH   1  13
ATOM      5  N1  UNL     1       5.782  -0.539  -0.686  0.00  0.00    +0.000 N 
ATOM      6  C1  UNL     1       6.542   0.524  -0.271  0.00  0.00    +0.000 A 
ATOM      7  S1  UNL     1       8.189   0.628  -0.274  0.00  0.00    +0.000 S 
ATOM      8  O1  UNL     1       5.773   1.590   0.187  0.00  0.00    +0.000 OA
ATOM      9  C2  UNL     1       4.488   1.092   0.018  0.00  0.00    +0.000 A 
ATOM     10  C3  UNL     1       4.474  -0.186  -0.505  0.00  0.00    +0.000 A 
ATOM     11  C4  UNL     1       3.321   1.753   0.330  0.00  0.00    +0.000 A 
ATOM     12  C5  UNL     1       2.116   1.079   0.090  0.00  0.00    +0.000 A 
ATOM     13  C6  UNL     1       2.110  -0.228  -0.460  0.00  0.00    +0.000 A 
ATOM     14  C7  UNL     1       3.316  -0.882  -0.755  0.00  0.00    +0.000 A 
ATOM     15  H1  UNL     1       6.141  -1.409  -1.051  0.00  0.00    +0.000 HD
ENDBRANCH   1  13
BRANCH   3  16
ATOM     16  C9  UNL     1      -1.526  -0.819  -1.340  0.00  0.00    +0.000 C 
BRANCH  16  17
ATOM     17  C10 UNL     1      -2.636   0.082  -0.954  0.00  0.00    +0.000 A 
ATOM     18  N3  UNL     1      -2.921   1.243  -1.516  0.00  0.00    +0.000 NA
ATOM     19  N4  UNL     1      -4.009   1.780  -0.870  0.00  0.00    +0.000 NA
ATOM     20  N5  UNL     1      -3.517  -0.154   0.080  0.00  0.00    +0.000 N 
ATOM     21  C11 UNL     1      -4.367   0.945   0.079  0.00  0.00    +0.000 A 
ATOM     22  C12 UNL     1      -3.631  -1.204   0.992  0.00  0.00    +0.000 A 
ATOM     23  C13 UNL     1      -4.611  -1.169   1.912  0.00  0.00    +0.000 A 
ATOM     24  C14 UNL     1      -5.526  -0.037   1.928  0.00  0.00    +0.000 A 
ATOM     25  C15 UNL     1      -5.406   0.977   1.049  0.00  0.00    +0.000 A 
ENDBRANCH  16  17
ENDBRANCH   3  16
TORSDOF 3
