REMARK  Name = /home/anacleto/Desktop/manuscript_Mpro/naturecomm/supplementary_file_S2/6-chemical-library/molecular_docking/3D_ligand_structure/3304.pdb
REMARK  2 active torsions:
REMARK  status: ('A' for Active; 'I' for Inactive)
REMARK    1  A    between atoms: C5_6  and  N2_7
REMARK    2  A    between atoms: N3_10  and  C7_11
REMARK                            x       y       z     vdW  Elec       q    Type
REMARK                         _______ _______ _______ _____ _____    ______ ____
ROOT
ATOM      1  C7  UNL     1      -0.705  -0.210   0.035  0.00  0.00    +0.000 C 
ATOM      2  C8  UNL     1      -1.593  -1.077   0.932  0.00  0.00    +0.000 C 
ATOM      3  C9  UNL     1      -3.052  -0.797   0.601  0.00  0.00    +0.000 C 
ATOM      4  C10 UNL     1      -3.567  -1.317  -0.777  0.00  0.00    +0.000 C 
ATOM      5  C11 UNL     1      -4.851  -1.772  -0.061  0.00  0.00    +0.000 C 
ATOM      6  C12 UNL     1      -4.038  -1.819   1.245  0.00  0.00    +0.000 C 
ATOM      7  C13 UNL     1      -1.211   1.216  -0.030  0.00  0.00    +0.000 A 
ATOM      8  C14 UNL     1      -2.504   1.531   0.406  0.00  0.00    +0.000 A 
ATOM      9  O2  UNL     1      -3.364   0.586   0.909  0.00  0.00    +0.000 OA
ATOM     10  C15 UNL     1      -2.982   2.840   0.361  0.00  0.00    +0.000 A 
ATOM     11  C16 UNL     1      -2.182   3.854  -0.161  0.00  0.00    +0.000 A 
ATOM     12  C17 UNL     1      -0.908   3.555  -0.639  0.00  0.00    +0.000 A 
ATOM     13  C18 UNL     1      -0.428   2.244  -0.581  0.00  0.00    +0.000 A 
ENDROOT
BRANCH   1  17
ATOM     14  N2  UNL     1       2.917  -0.454   0.421  0.00  0.00    +0.000 N 
ATOM     15  C6  UNL     1       1.736  -0.497  -0.286  0.00  0.00    +0.000 C 
ATOM     16  O1  UNL     1       1.611  -0.715  -1.483  0.00  0.00    +0.000 OA
ATOM     17  N3  UNL     1       0.662  -0.274   0.548  0.00  0.00    +0.000 N 
ATOM     18  H5  UNL     1       2.823  -0.466   1.426  0.00  0.00    +0.000 HD
ATOM     19  H6  UNL     1       0.838   0.287   1.368  0.00  0.00    +0.000 HD
BRANCH  14  25
ATOM     20  C1  UNL     1       5.294  -0.626   0.804  0.00  0.00    +0.000 A 
ATOM     21  N1  UNL     1       6.598  -0.723   0.448  0.00  0.00    +0.000 NA
ATOM     22  C2  UNL     1       6.856  -0.762  -0.875  0.00  0.00    +0.000 A 
ATOM     23  C3  UNL     1       5.874  -0.704  -1.849  0.00  0.00    +0.000 A 
ATOM     24  C4  UNL     1       4.541  -0.602  -1.448  0.00  0.00    +0.000 A 
ATOM     25  C5  UNL     1       4.226  -0.565  -0.092  0.00  0.00    +0.000 A 
ENDBRANCH  14  25
ENDBRANCH   1  17
TORSDOF 2
