REMARK  Name = /home/anacleto/Desktop/manuscript_Mpro/naturecomm/supplementary_file_S2/6-chemical-library/molecular_docking/3D_ligand_structure/3306.pdb
REMARK  2 active torsions:
REMARK  status: ('A' for Active; 'I' for Inactive)
REMARK    1  A    between atoms: C5_6  and  C6_7
REMARK    2  A    between atoms: C6_7  and  C7_8
REMARK                            x       y       z     vdW  Elec       q    Type
REMARK                         _______ _______ _______ _____ _____    ______ ____
ROOT
ATOM      1  C7  UNL     1       1.439  -0.174  -0.363  0.00  0.00    +0.000 C 
ATOM      2  O1  UNL     1       1.958  -1.249  -0.668  0.00  0.00    +0.000 OA
ATOM      3  N2  UNL     1       0.084   0.078  -0.592  0.00  0.00    +0.000 N 
ATOM      4  C8  UNL     1      -0.587   1.341  -0.269  0.00  0.00    +0.000 C 
ATOM      5  C9  UNL     1      -2.052   1.130   0.138  0.00  0.00    +0.000 C 
ATOM      6  C10 UNL     1      -2.672   2.506   0.566  0.00  0.00    +0.000 C 
ATOM      7  C11 UNL     1      -3.987   2.063  -0.093  0.00  0.00    +0.000 C 
ATOM      8  C12 UNL     1      -3.152   1.129  -0.983  0.00  0.00    +0.000 C 
ATOM      9  C13 UNL     1      -0.699  -0.966  -1.240  0.00  0.00    +0.000 C 
ATOM     10  C14 UNL     1      -1.531  -1.761  -0.266  0.00  0.00    +0.000 A 
ATOM     11  C15 UNL     1      -2.193  -1.197   0.833  0.00  0.00    +0.000 A 
ATOM     12  O2  UNL     1      -2.165   0.131   1.184  0.00  0.00    +0.000 OA
ATOM     13  C16 UNL     1      -2.934  -2.003   1.705  0.00  0.00    +0.000 A 
ATOM     14  C17 UNL     1      -3.053  -3.372   1.477  0.00  0.00    +0.000 A 
ATOM     15  C18 UNL     1      -2.424  -3.943   0.377  0.00  0.00    +0.000 A 
ATOM     16  C19 UNL     1      -1.671  -3.145  -0.486  0.00  0.00    +0.000 A 
ENDROOT
BRANCH   1  17
ATOM     17  C6  UNL     1       2.248   0.946   0.287  0.00  0.00    +0.000 C 
BRANCH  17  23
ATOM     18  C1  UNL     1       4.281  -0.243   1.198  0.00  0.00    +0.000 A 
ATOM     19  N1  UNL     1       5.606  -0.488   1.317  0.00  0.00    +0.000 NA
ATOM     20  C2  UNL     1       6.428   0.224   0.518  0.00  0.00    +0.000 A 
ATOM     21  C3  UNL     1       5.988   1.176  -0.386  0.00  0.00    +0.000 A 
ATOM     22  C4  UNL     1       4.620   1.420  -0.475  0.00  0.00    +0.000 A 
ATOM     23  C5  UNL     1       3.735   0.704   0.335  0.00  0.00    +0.000 A 
ENDBRANCH  17  23
ENDBRANCH   1  17
TORSDOF 2
