REMARK  Name = /home/anacleto/Desktop/manuscript_Mpro/naturecomm/supplementary_file_S2/6-chemical-library/molecular_docking/3D_ligand_structure/3311.pdb
REMARK  4 active torsions:
REMARK  status: ('A' for Active; 'I' for Inactive)
REMARK    1  A    between atoms: C5_6  and  C6_9
REMARK    2  A    between atoms: C6_9  and  C7_10
REMARK    3  A    between atoms: C7_10  and  N4_11
REMARK    4  A    between atoms: C8_12  and  C9_14
REMARK                            x       y       z     vdW  Elec       q    Type
REMARK                         _______ _______ _______ _____ _____    ______ ____
ROOT
ATOM      1  N4  UNL     1       0.764  -0.627   0.523  0.00  0.00    +0.000 N 
ATOM      2  C8  UNL     1       0.896  -0.031  -0.713  0.00  0.00    +0.000 C 
ATOM      3  O1  UNL     1       0.016   0.631  -1.250  0.00  0.00    +0.000 OA
ATOM      4  H11 UNL     1       1.475  -1.273   0.848  0.00  0.00    +0.000 HD
ENDROOT
BRANCH   2   5
ATOM      5  C9  UNL     1       2.163  -0.310  -1.426  0.00  0.00    +0.000 A 
ATOM      6  C10 UNL     1       2.036  -0.849  -2.705  0.00  0.00    +0.000 A 
ATOM      7  C11 UNL     1       3.192  -1.171  -3.376  0.00  0.00    +0.000 A 
ATOM      8  N5  UNL     1       4.426  -0.991  -2.863  0.00  0.00    +0.000 NA
ATOM      9  C12 UNL     1       4.545  -0.440  -1.642  0.00  0.00    +0.000 A 
ATOM     10  C13 UNL     1       3.435  -0.059  -0.860  0.00  0.00    +0.000 A 
ATOM     11  C14 UNL     1       5.823  -0.235  -1.138  0.00  0.00    +0.000 A 
ATOM     12  C15 UNL     1       6.041   0.351   0.111  0.00  0.00    +0.000 A 
ATOM     13  C16 UNL     1       4.959   0.753   0.879  0.00  0.00    +0.000 A 
ATOM     14  C17 UNL     1       3.666   0.555   0.398  0.00  0.00    +0.000 A 
ENDBRANCH   2   5
BRANCH   1  15
ATOM     15  C7  UNL     1      -0.450  -0.473   1.302  0.00  0.00    +0.000 C 
BRANCH  15  16
ATOM     16  C6  UNL     1      -1.596  -1.337   0.776  0.00  0.00    +0.000 C 
BRANCH  16  22
ATOM     17  C1  UNL     1      -5.726   1.098   1.370  0.00  0.00    +0.000 C 
ATOM     18  C2  UNL     1      -4.904   1.860   0.294  0.00  0.00    +0.000 C 
ATOM     19  C3  UNL     1      -3.796   0.892  -0.172  0.00  0.00    +0.000 C 
ATOM     20  N1  UNL     1      -3.721  -0.026   0.937  0.00  0.00    +0.000 N 
ATOM     21  C4  UNL     1      -4.760   0.077   1.800  0.00  0.00    +0.000 A 
ATOM     22  C5  UNL     1      -2.875  -0.958   1.417  0.00  0.00    +0.000 A 
ATOM     23  N2  UNL     1      -3.394  -1.423   2.543  0.00  0.00    +0.000 NA
ATOM     24  N3  UNL     1      -4.598  -0.763   2.787  0.00  0.00    +0.000 NA
ENDBRANCH  16  22
ENDBRANCH  15  16
ENDBRANCH   1  15
TORSDOF 4
