REMARK  Name = /home/anacleto/Desktop/manuscript_Mpro/naturecomm/supplementary_file_S2/6-chemical-library/molecular_docking/3D_ligand_structure/3312.pdb
REMARK  2 active torsions:
REMARK  status: ('A' for Active; 'I' for Inactive)
REMARK    1  A    between atoms: N1_7  and  C7_10
REMARK    2  A    between atoms: C7_10  and  C8_11
REMARK                            x       y       z     vdW  Elec       q    Type
REMARK                         _______ _______ _______ _____ _____    ______ ____
ROOT
ATOM      1  C8  UNL     1       0.086  -0.337   0.948  0.00  0.00    +0.000 C 
ATOM      2  O1  UNL     1      -0.190  -1.538   0.864  0.00  0.00    +0.000 OA
ATOM      3  N4  UNL     1       1.267   0.244   0.451  0.00  0.00    +0.000 N 
ATOM      4  C9  UNL     1       1.378   1.707   0.335  0.00  0.00    +0.000 C 
ATOM      5  C10 UNL     1       2.531   2.319  -0.438  0.00  0.00    +0.000 C 
ATOM      6  O2  UNL     1       2.633   3.532  -0.616  0.00  0.00    +0.000 OA
ATOM      7  N5  UNL     1       3.487   1.472  -0.896  0.00  0.00    +0.000 N 
ATOM      8  C11 UNL     1       3.460   0.094  -0.690  0.00  0.00    +0.000 A 
ATOM      9  C12 UNL     1       2.388  -0.534  -0.025  0.00  0.00    +0.000 A 
ATOM     10  C13 UNL     1       4.554  -0.638  -1.176  0.00  0.00    +0.000 A 
ATOM     11  C14 UNL     1       4.612  -2.014  -0.993  0.00  0.00    +0.000 A 
ATOM     12  C15 UNL     1       3.582  -2.654  -0.319  0.00  0.00    +0.000 A 
ATOM     13  C16 UNL     1       2.488  -1.922   0.162  0.00  0.00    +0.000 A 
ATOM     14  H9  UNL     1       4.258   1.904  -1.390  0.00  0.00    +0.000 HD
ENDROOT
BRANCH   1  15
ATOM     15  C7  UNL     1      -0.918   0.555   1.657  0.00  0.00    +0.000 C 
BRANCH  15  22
ATOM     16  C1  UNL     1      -4.941   0.803  -1.082  0.00  0.00    +0.000 A 
ATOM     17  C2  UNL     1      -5.348  -0.534  -0.994  0.00  0.00    +0.000 A 
ATOM     18  C3  UNL     1      -4.601  -1.463  -0.267  0.00  0.00    +0.000 A 
ATOM     19  C4  UNL     1      -3.425  -1.094   0.397  0.00  0.00    +0.000 A 
ATOM     20  C5  UNL     1      -3.038   0.246   0.294  0.00  0.00    +0.000 A 
ATOM     21  C6  UNL     1      -3.766   1.189  -0.422  0.00  0.00    +0.000 A 
ATOM     22  N1  UNL     1      -1.984   0.975   0.778  0.00  0.00    +0.000 N 
ATOM     23  N2  UNL     1      -2.068   2.272   0.417  0.00  0.00    +0.000 NA
ATOM     24  N3  UNL     1      -3.150   2.409  -0.337  0.00  0.00    +0.000 NA
ENDBRANCH  15  22
ENDBRANCH   1  15
TORSDOF 2
