REMARK  Name = /home/anacleto/Desktop/manuscript_Mpro/naturecomm/supplementary_file_S2/6-chemical-library/molecular_docking/3D_ligand_structure/333.pdb
REMARK  0 active torsions:
REMARK  status: ('A' for Active; 'I' for Inactive)
REMARK                            x       y       z     vdW  Elec       q    Type
REMARK                         _______ _______ _______ _____ _____    ______ ____
ROOT
ATOM      1  C1  UNL     1      -1.414   1.002   0.171  0.00  0.00    +0.000 A 
ATOM      2  C2  UNL     1      -2.142  -0.136  -0.113  0.00  0.00    +0.000 A 
ATOM      3  N1  UNL     1      -1.254  -1.164  -0.310  0.00  0.00    +0.000 N 
ATOM      4  C3  UNL     1       0.025  -0.704  -0.157  0.00  0.00    +0.000 A 
ATOM      5  C4  UNL     1      -0.039   0.648   0.144  0.00  0.00    +0.000 A 
ATOM      6  N2  UNL     1       1.132  -1.453  -0.283  0.00  0.00    +0.000 NA
ATOM      7  C5  UNL     1       2.243  -0.722  -0.075  0.00  0.00    +0.000 A 
ATOM      8  N3  UNL     1       2.333   0.591   0.223  0.00  0.00    +0.000 NA
ATOM      9  C6  UNL     1       1.180   1.292   0.336  0.00  0.00    +0.000 A 
ATOM     10  H3  UNL     1      -1.482  -2.122  -0.534  0.00  0.00    +0.000 HD
ENDROOT
TORSDOF 0
