REMARK  Name = /home/anacleto/Desktop/manuscript_Mpro/naturecomm/supplementary_file_S2/6-chemical-library/molecular_docking/3D_ligand_structure/3337.pdb
REMARK  2 active torsions:
REMARK  status: ('A' for Active; 'I' for Inactive)
REMARK    1  A    between atoms: C11_12  and  C12_14
REMARK    2  A    between atoms: C12_14  and  C13_15
REMARK                            x       y       z     vdW  Elec       q    Type
REMARK                         _______ _______ _______ _____ _____    ______ ____
ROOT
ATOM      1  C1  UNL     1      -4.908   0.483   1.107  0.00  0.00    +0.000 A 
ATOM      2  C2  UNL     1      -4.730   1.259   2.253  0.00  0.00    +0.000 A 
ATOM      3  C3  UNL     1      -3.453   1.648   2.624  0.00  0.00    +0.000 A 
ATOM      4  C4  UNL     1      -2.362   1.276   1.839  0.00  0.00    +0.000 A 
ATOM      5  C5  UNL     1      -2.520   0.509   0.667  0.00  0.00    +0.000 A 
ATOM      6  C6  UNL     1      -3.820   0.087   0.298  0.00  0.00    +0.000 A 
ATOM      7  N1  UNL     1      -1.361   0.251  -0.142  0.00  0.00    +0.000 N 
ATOM      8  C7  UNL     1      -1.565   0.388  -1.588  0.00  0.00    +0.000 C 
ATOM      9  C8  UNL     1      -2.060  -0.896  -2.234  0.00  0.00    +0.000 C 
ATOM     10  C9  UNL     1      -3.436  -1.304  -1.820  0.00  0.00    +0.000 C 
ATOM     11  C10 UNL     1      -4.164  -0.865  -0.783  0.00  0.00    +0.000 C 
ATOM     12  C11 UNL     1      -0.131  -0.094   0.449  0.00  0.00    +0.000 C 
ATOM     13  O1  UNL     1       0.007  -0.283   1.660  0.00  0.00    +0.000 OA
ENDROOT
BRANCH  12  14
ATOM     14  C12 UNL     1       1.055  -0.248  -0.506  0.00  0.00    +0.000 C 
BRANCH  14  15
ATOM     15  C13 UNL     1       2.310  -0.740   0.138  0.00  0.00    +0.000 A 
ATOM     16  C14 UNL     1       2.488  -1.934   0.873  0.00  0.00    +0.000 A 
ATOM     17  N2  UNL     1       3.742  -2.124   1.280  0.00  0.00    +0.000 NA
ATOM     18  N3  UNL     1       4.414  -1.027   0.851  0.00  0.00    +0.000 N 
ATOM     19  C15 UNL     1       3.568  -0.169   0.138  0.00  0.00    +0.000 A 
ATOM     20  C16 UNL     1       5.766  -0.741   1.046  0.00  0.00    +0.000 A 
ATOM     21  C17 UNL     1       6.298   0.385   0.544  0.00  0.00    +0.000 A 
ATOM     22  C18 UNL     1       5.441   1.290  -0.202  0.00  0.00    +0.000 A 
ATOM     23  C19 UNL     1       4.135   1.026  -0.397  0.00  0.00    +0.000 A 
ENDBRANCH  14  15
ENDBRANCH  12  14
TORSDOF 2
