REMARK  Name = /home/anacleto/Desktop/manuscript_Mpro/naturecomm/supplementary_file_S2/6-chemical-library/molecular_docking/3D_ligand_structure/3343.pdb
REMARK  2 active torsions:
REMARK  status: ('A' for Active; 'I' for Inactive)
REMARK    1  A    between atoms: C8_10  and  C9_11
REMARK    2  A    between atoms: N2_13  and  C10_14
REMARK                            x       y       z     vdW  Elec       q    Type
REMARK                         _______ _______ _______ _____ _____    ______ ____
ROOT
ATOM      1  C9  UNL     1       0.672   0.062   1.006  0.00  0.00    +0.000 C 
ATOM      2  O2  UNL     1       0.865  -0.676   1.970  0.00  0.00    +0.000 OA
ATOM      3  N2  UNL     1      -0.558   0.235   0.385  0.00  0.00    +0.000 N 
ATOM      4  H7  UNL     1      -0.569   0.860  -0.417  0.00  0.00    +0.000 HD
ENDROOT
BRANCH   1  14
ATOM      5  C1  UNL     1       3.876   0.002   1.726  0.00  0.00    +0.000 A 
ATOM      6  C2  UNL     1       5.191  -0.445   1.566  0.00  0.00    +0.000 A 
ATOM      7  C3  UNL     1       5.794  -0.475   0.295  0.00  0.00    +0.000 A 
ATOM      8  C4  UNL     1       5.093  -0.057  -0.837  0.00  0.00    +0.000 A 
ATOM      9  C5  UNL     1       3.798   0.378  -0.652  0.00  0.00    +0.000 A 
ATOM     10  C6  UNL     1       3.182   0.406   0.599  0.00  0.00    +0.000 A 
ATOM     11  N1  UNL     1       2.921   0.841  -1.619  0.00  0.00    +0.000 N 
ATOM     12  C7  UNL     1       1.701   1.184  -1.060  0.00  0.00    +0.000 C 
ATOM     13  O1  UNL     1       0.721   1.588  -1.671  0.00  0.00    +0.000 OA
ATOM     14  C8  UNL     1       1.781   0.953   0.456  0.00  0.00    +0.000 C 
ATOM     15  H5  UNL     1       3.118   0.902  -2.608  0.00  0.00    +0.000 HD
ENDBRANCH   1  14
BRANCH   3  16
ATOM     16  C10 UNL     1      -1.792  -0.397   0.696  0.00  0.00    +0.000 A 
ATOM     17  C11 UNL     1      -1.941  -1.279   1.769  0.00  0.00    +0.000 A 
ATOM     18  N3  UNL     1      -3.098  -1.896   2.108  0.00  0.00    +0.000 NA
ATOM     19  C12 UNL     1      -4.170  -1.624   1.340  0.00  0.00    +0.000 A 
ATOM     20  C13 UNL     1      -4.162  -0.766   0.242  0.00  0.00    +0.000 A 
ATOM     21  C14 UNL     1      -2.945  -0.128  -0.104  0.00  0.00    +0.000 A 
ATOM     22  C15 UNL     1      -5.335  -0.544  -0.503  0.00  0.00    +0.000 A 
ATOM     23  C16 UNL     1      -5.330   0.309  -1.602  0.00  0.00    +0.000 A 
ATOM     24  C17 UNL     1      -4.154   0.946  -1.968  0.00  0.00    +0.000 A 
ATOM     25  C18 UNL     1      -2.982   0.733  -1.234  0.00  0.00    +0.000 A 
ENDBRANCH   3  16
TORSDOF 2
