REMARK  Name = /home/anacleto/Desktop/manuscript_Mpro/naturecomm/supplementary_file_S2/6-chemical-library/molecular_docking/3D_ligand_structure/3348.pdb
REMARK  3 active torsions:
REMARK  status: ('A' for Active; 'I' for Inactive)
REMARK    1  A    between atoms: C5_8  and  C7_11
REMARK    2  A    between atoms: N3_13  and  C8_14
REMARK    3  A    between atoms: C8_14  and  C9_15
REMARK                            x       y       z     vdW  Elec       q    Type
REMARK                         _______ _______ _______ _____ _____    ______ ____
ROOT
ATOM      1  C7  UNL     1       0.057   0.671   0.915  0.00  0.00    +0.000 C 
ATOM      2  O2  UNL     1      -0.513   1.713   1.230  0.00  0.00    +0.000 OA
ATOM      3  N3  UNL     1      -0.561  -0.551   0.956  0.00  0.00    +0.000 N 
ATOM      4  H4  UNL     1      -0.051  -1.373   0.635  0.00  0.00    +0.000 HD
ENDROOT
BRANCH   1  12
ATOM      5  S1  UNL     1       5.707   0.866  -0.933  0.00  0.00    +0.000 S 
ATOM      6  C1  UNL     1       5.594  -0.861  -1.136  0.00  0.00    +0.000 A 
ATOM      7  C2  UNL     1       4.384  -1.318  -0.794  0.00  0.00    +0.000 A 
ATOM      8  N1  UNL     1       3.515  -0.335  -0.368  0.00  0.00    +0.000 N 
ATOM      9  C3  UNL     1       4.047   0.935  -0.370  0.00  0.00    +0.000 A 
ATOM     10  C4  UNL     1       2.218  -0.557   0.039  0.00  0.00    +0.000 A 
ATOM     11  O1  UNL     1       1.685  -1.667   0.073  0.00  0.00    +0.000 OA
ATOM     12  C5  UNL     1       1.473   0.664   0.450  0.00  0.00    +0.000 A 
ATOM     13  C6  UNL     1       2.131   1.835   0.392  0.00  0.00    +0.000 A 
ATOM     14  N2  UNL     1       3.434   2.010  -0.016  0.00  0.00    +0.000 NA
ENDBRANCH   1  12
BRANCH   3  15
ATOM     15  C8  UNL     1      -1.948  -0.717   1.307  0.00  0.00    +0.000 C 
BRANCH  15  16
ATOM     16  C9  UNL     1      -2.715  -0.903   0.060  0.00  0.00    +0.000 A 
ATOM     17  C10 UNL     1      -3.046  -2.043  -0.662  0.00  0.00    +0.000 A 
ATOM     18  N4  UNL     1      -3.796  -1.749  -1.783  0.00  0.00    +0.000 NA
ATOM     19  N5  UNL     1      -3.288   0.115  -0.655  0.00  0.00    +0.000 N 
ATOM     20  C11 UNL     1      -3.908  -0.451  -1.730  0.00  0.00    +0.000 A 
ATOM     21  C12 UNL     1      -3.391   1.486  -0.573  0.00  0.00    +0.000 A 
ATOM     22  C13 UNL     1      -4.100   1.993  -1.596  0.00  0.00    +0.000 A 
ATOM     23  S2  UNL     1      -4.677   0.751  -2.720  0.00  0.00    +0.000 S 
ENDBRANCH  15  16
ENDBRANCH   3  15
TORSDOF 3
