REMARK  Name = /home/anacleto/Desktop/manuscript_Mpro/naturecomm/supplementary_file_S2/6-chemical-library/molecular_docking/3D_ligand_structure/3357.pdb
REMARK  2 active torsions:
REMARK  status: ('A' for Active; 'I' for Inactive)
REMARK    1  A    between atoms: C6_8  and  C8_10
REMARK    2  A    between atoms: N2_12  and  N3_13
REMARK                            x       y       z     vdW  Elec       q    Type
REMARK                         _______ _______ _______ _____ _____    ______ ____
ROOT
ATOM      1  C8  UNL     1      -1.128   0.605  -1.574  0.00  0.00    +0.000 C 
ATOM      2  O2  UNL     1      -0.976   0.392  -2.775  0.00  0.00    +0.000 OA
ATOM      3  N2  UNL     1      -0.203   1.301  -0.815  0.00  0.00    +0.000 N 
ATOM      4  H5  UNL     1      -0.136   1.162   0.192  0.00  0.00    +0.000 HD
ENDROOT
BRANCH   3   5
ATOM      5  N3  UNL     1       1.037   1.548  -1.438  0.00  0.00    +0.000 N 
ATOM      6  C9  UNL     1       2.184   1.200  -0.805  0.00  0.00    +0.000 A 
ATOM      7  N4  UNL     1       2.266   0.951   0.484  0.00  0.00    +0.000 NA
ATOM      8  S1  UNL     1       3.653   1.042  -1.681  0.00  0.00    +0.000 S 
ATOM      9  C10 UNL     1       4.475   0.617  -0.234  0.00  0.00    +0.000 A 
ATOM     10  C11 UNL     1       3.568   0.621   0.824  0.00  0.00    +0.000 A 
ATOM     11  C12 UNL     1       5.814   0.301  -0.031  0.00  0.00    +0.000 A 
ATOM     12  N5  UNL     1       6.247  -0.008   1.214  0.00  0.00    +0.000 NA
ATOM     13  C13 UNL     1       5.368  -0.004   2.237  0.00  0.00    +0.000 A 
ATOM     14  C14 UNL     1       4.024   0.300   2.110  0.00  0.00    +0.000 A 
ATOM     15  H6  UNL     1       0.998   1.399  -2.451  0.00  0.00    +0.000 HD
ENDBRANCH   3   5
BRANCH   1  23
ATOM     16  N1  UNL     1      -4.935  -2.583  -1.027  0.00  0.00    +0.000 NA
ATOM     17  C1  UNL     1      -5.808  -2.563  -0.042  0.00  0.00    +0.000 A 
ATOM     18  O1  UNL     1      -5.626  -1.579   0.885  0.00  0.00    +0.000 OA
ATOM     19  C2  UNL     1      -4.525  -0.912   0.432  0.00  0.00    +0.000 A 
ATOM     20  C3  UNL     1      -4.107  -1.529  -0.737  0.00  0.00    +0.000 A 
ATOM     21  C4  UNL     1      -3.912   0.191   1.010  0.00  0.00    +0.000 A 
ATOM     22  C5  UNL     1      -2.787   0.686   0.333  0.00  0.00    +0.000 A 
ATOM     23  C6  UNL     1      -2.320   0.083  -0.851  0.00  0.00    +0.000 A 
ATOM     24  C7  UNL     1      -2.985  -1.027  -1.407  0.00  0.00    +0.000 A 
ENDBRANCH   1  23
TORSDOF 2
