REMARK  Name = /home/anacleto/Desktop/manuscript_Mpro/naturecomm/supplementary_file_S2/6-chemical-library/molecular_docking/3D_ligand_structure/3360.pdb
REMARK  3 active torsions:
REMARK  status: ('A' for Active; 'I' for Inactive)
REMARK    1  A    between atoms: C4_6  and  C6_9
REMARK    2  A    between atoms: C6_9  and  N3_10
REMARK    3  A    between atoms: C7_11  and  C8_13
REMARK                            x       y       z     vdW  Elec       q    Type
REMARK                         _______ _______ _______ _____ _____    ______ ____
ROOT
ATOM      1  N3  UNL     1      -1.045   0.154  -1.102  0.00  0.00    +0.000 N 
ATOM      2  C7  UNL     1       0.058   0.982  -1.075  0.00  0.00    +0.000 C 
ATOM      3  O1  UNL     1       0.001   2.195  -1.231  0.00  0.00    +0.000 OA
ATOM      4  H6  UNL     1      -0.957  -0.791  -0.758  0.00  0.00    +0.000 HD
ENDROOT
BRANCH   2   5
ATOM      5  C8  UNL     1       1.367   0.329  -0.805  0.00  0.00    +0.000 A 
ATOM      6  C9  UNL     1       2.370   1.080  -0.182  0.00  0.00    +0.000 A 
ATOM      7  C10 UNL     1       1.629  -0.990  -1.177  0.00  0.00    +0.000 A 
ATOM      8  C11 UNL     1       2.880  -1.547  -0.902  0.00  0.00    +0.000 A 
ATOM      9  C12 UNL     1       3.875  -0.814  -0.269  0.00  0.00    +0.000 A 
ATOM     10  C13 UNL     1       3.614   0.532   0.096  0.00  0.00    +0.000 A 
ATOM     11  N4  UNL     1       5.065  -1.393  -0.020  0.00  0.00    +0.000 NA
ATOM     12  C14 UNL     1       5.990  -0.622   0.594  0.00  0.00    +0.000 A 
ATOM     13  C15 UNL     1       5.738   0.687   0.950  0.00  0.00    +0.000 A 
ATOM     14  N5  UNL     1       4.550   1.282   0.709  0.00  0.00    +0.000 NA
ENDBRANCH   2   5
BRANCH   1  15
ATOM     15  C6  UNL     1      -2.379   0.690  -1.232  0.00  0.00    +0.000 C 
BRANCH  15  21
ATOM     16  S1  UNL     1      -5.643  -0.789   2.379  0.00  0.00    +0.000 S 
ATOM     17  C1  UNL     1      -5.736  -1.574   0.794  0.00  0.00    +0.000 A 
ATOM     18  C2  UNL     1      -4.828  -1.103  -0.079  0.00  0.00    +0.000 A 
ATOM     19  N1  UNL     1      -4.046  -0.118   0.484  0.00  0.00    +0.000 N 
ATOM     20  C3  UNL     1      -4.335   0.184   1.782  0.00  0.00    +0.000 A 
ATOM     21  C4  UNL     1      -3.006   0.687   0.105  0.00  0.00    +0.000 A 
ATOM     22  C5  UNL     1      -2.750   1.452   1.239  0.00  0.00    +0.000 A 
ATOM     23  N2  UNL     1      -3.584   1.120   2.288  0.00  0.00    +0.000 NA
ENDBRANCH  15  21
ENDBRANCH   1  15
TORSDOF 3
