REMARK  Name = /home/anacleto/Desktop/manuscript_Mpro/naturecomm/supplementary_file_S2/6-chemical-library/molecular_docking/3D_ligand_structure/3361.pdb
REMARK  3 active torsions:
REMARK  status: ('A' for Active; 'I' for Inactive)
REMARK    1  A    between atoms: C5_8  and  C7_10
REMARK    2  A    between atoms: N4_12  and  C8_13
REMARK    3  A    between atoms: C8_13  and  C9_14
REMARK                            x       y       z     vdW  Elec       q    Type
REMARK                         _______ _______ _______ _____ _____    ______ ____
ROOT
ATOM      1  C7  UNL     1       1.490  -1.236  -1.167  0.00  0.00    +0.000 C 
ATOM      2  O1  UNL     1       1.531  -1.219  -2.391  0.00  0.00    +0.000 OA
ATOM      3  N4  UNL     1       0.532  -1.917  -0.449  0.00  0.00    +0.000 N 
ATOM      4  H5  UNL     1       0.364  -1.636   0.509  0.00  0.00    +0.000 HD
ENDROOT
BRANCH   1  12
ATOM      5  N1  UNL     1       4.739   2.505  -0.569  0.00  0.00    +0.000 NA
ATOM      6  N2  UNL     1       5.504   2.822   0.469  0.00  0.00    +0.000 NA
ATOM      7  N3  UNL     1       5.273   1.914   1.430  0.00  0.00    +0.000 N 
ATOM      8  C1  UNL     1       4.348   0.985   1.044  0.00  0.00    +0.000 A 
ATOM      9  C2  UNL     1       4.022   1.385  -0.245  0.00  0.00    +0.000 A 
ATOM     10  C3  UNL     1       3.791  -0.129   1.672  0.00  0.00    +0.000 A 
ATOM     11  C4  UNL     1       2.850  -0.855   0.929  0.00  0.00    +0.000 A 
ATOM     12  C5  UNL     1       2.488  -0.467  -0.373  0.00  0.00    +0.000 A 
ATOM     13  C6  UNL     1       3.082   0.653  -0.979  0.00  0.00    +0.000 A 
ATOM     14  H1  UNL     1       5.776   1.994   2.305  0.00  0.00    +0.000 HD
ENDBRANCH   1  12
BRANCH   3  15
ATOM     15  C8  UNL     1      -0.618  -2.497  -1.120  0.00  0.00    +0.000 C 
BRANCH  15  16
ATOM     16  C9  UNL     1      -1.779  -1.560  -0.964  0.00  0.00    +0.000 A 
ATOM     17  N5  UNL     1      -2.142  -1.028   0.188  0.00  0.00    +0.000 NA
ATOM     18  S1  UNL     1      -2.730  -1.118  -2.321  0.00  0.00    +0.000 S 
ATOM     19  C10 UNL     1      -3.707  -0.121  -1.315  0.00  0.00    +0.000 A 
ATOM     20  C11 UNL     1      -3.238  -0.202  -0.002  0.00  0.00    +0.000 A 
ATOM     21  C12 UNL     1      -4.811   0.676  -1.661  0.00  0.00    +0.000 A 
ATOM     22  C13 UNL     1      -5.446   1.403  -0.649  0.00  0.00    +0.000 A 
ATOM     23  C14 UNL     1      -4.997   1.337   0.666  0.00  0.00    +0.000 A 
ATOM     24  C15 UNL     1      -3.897   0.539   1.000  0.00  0.00    +0.000 A 
ENDBRANCH  15  16
ENDBRANCH   3  15
TORSDOF 3
