REMARK  Name = /home/anacleto/Desktop/manuscript_Mpro/naturecomm/supplementary_file_S2/6-chemical-library/molecular_docking/3D_ligand_structure/3370.pdb
REMARK  1 active torsions:
REMARK  status: ('A' for Active; 'I' for Inactive)
REMARK    1  A    between atoms: C3_5  and  C4_6
REMARK                            x       y       z     vdW  Elec       q    Type
REMARK                         _______ _______ _______ _____ _____    ______ ____
ROOT
ATOM      1  C4  UNL     1       2.231  -1.128   0.538  0.00  0.00    +0.000 C 
ATOM      2  O1  UNL     1       2.364  -2.159   1.194  0.00  0.00    +0.000 OA
ATOM      3  N3  UNL     1       1.016  -0.447   0.475  0.00  0.00    +0.000 N 
ATOM      4  C5  UNL     1      -0.179  -1.169   0.889  0.00  0.00    +0.000 C 
ATOM      5  C6  UNL     1       0.985   0.978   0.783  0.00  0.00    +0.000 C 
ATOM      6  C7  UNL     1      -0.319   1.633   0.397  0.00  0.00    +0.000 A 
ATOM      7  C8  UNL     1      -0.367   3.038   0.348  0.00  0.00    +0.000 A 
ATOM      8  C9  UNL     1      -1.535   3.698  -0.026  0.00  0.00    +0.000 A 
ATOM      9  C10 UNL     1      -2.665   2.963  -0.362  0.00  0.00    +0.000 A 
ATOM     10  C11 UNL     1      -2.635   1.568  -0.305  0.00  0.00    +0.000 A 
ATOM     11  C12 UNL     1      -1.478   0.880   0.104  0.00  0.00    +0.000 A 
ATOM     12  C13 UNL     1      -1.438  -0.645   0.162  0.00  0.00    +0.000 C 
ATOM     13  C14 UNL     1      -1.445  -1.270  -1.237  0.00  0.00    +0.000 C 
ATOM     14  O2  UNL     1      -0.775  -0.941  -2.202  0.00  0.00    +0.000 OA
ATOM     15  N4  UNL     1      -2.314  -2.347  -1.232  0.00  0.00    +0.000 N 
ATOM     16  C15 UNL     1      -2.828  -2.631   0.070  0.00  0.00    +0.000 C 
ATOM     17  C16 UNL     1      -2.691  -1.305   0.800  0.00  0.00    +0.000 C 
ATOM     18  H12 UNL     1      -2.350  -2.969  -2.032  0.00  0.00    +0.000 HD
ENDROOT
BRANCH   1  23
ATOM     19  N1  UNL     1       3.115   0.053  -1.468  0.00  0.00    +0.000 N 
ATOM     20  N2  UNL     1       4.261   0.484  -2.026  0.00  0.00    +0.000 NA
ATOM     21  C1  UNL     1       5.204   0.023  -1.203  0.00  0.00    +0.000 A 
ATOM     22  C2  UNL     1       4.663  -0.662  -0.101  0.00  0.00    +0.000 A 
ATOM     23  C3  UNL     1       3.295  -0.586  -0.267  0.00  0.00    +0.000 A 
ATOM     24  H1  UNL     1       2.236   0.226  -1.948  0.00  0.00    +0.000 HD
ENDBRANCH   1  23
TORSDOF 1
