REMARK  Name = /home/anacleto/Desktop/manuscript_Mpro/naturecomm/supplementary_file_S2/6-chemical-library/molecular_docking/3D_ligand_structure/3373.pdb
REMARK  2 active torsions:
REMARK  status: ('A' for Active; 'I' for Inactive)
REMARK    1  A    between atoms: C9_10  and  C10_11
REMARK    2  A    between atoms: N1_13  and  C11_14
REMARK                            x       y       z     vdW  Elec       q    Type
REMARK                         _______ _______ _______ _____ _____    ______ ____
ROOT
ATOM      1  C10 UNL     1      -0.433  -1.239  -0.690  0.00  0.00    +0.000 C 
ATOM      2  O2  UNL     1      -0.337  -1.813  -1.770  0.00  0.00    +0.000 OA
ATOM      3  N1  UNL     1       0.606  -0.600  -0.028  0.00  0.00    +0.000 N 
ATOM      4  H10 UNL     1       0.385  -0.151   0.851  0.00  0.00    +0.000 HD
ENDROOT
BRANCH   1  14
ATOM      5  C1  UNL     1      -2.096   1.282  -0.638  0.00  0.00    +0.000 A 
ATOM      6  C2  UNL     1      -2.926   2.349  -0.991  0.00  0.00    +0.000 A 
ATOM      7  C3  UNL     1      -4.306   2.176  -1.035  0.00  0.00    +0.000 A 
ATOM      8  C4  UNL     1      -4.856   0.936  -0.721  0.00  0.00    +0.000 A 
ATOM      9  C5  UNL     1      -4.030  -0.130  -0.358  0.00  0.00    +0.000 A 
ATOM     10  C6  UNL     1      -2.635   0.020  -0.332  0.00  0.00    +0.000 A 
ATOM     11  O1  UNL     1      -4.684  -1.299  -0.073  0.00  0.00    +0.000 OA
ATOM     12  C7  UNL     1      -3.892  -2.309   0.550  0.00  0.00    +0.000 C 
ATOM     13  C8  UNL     1      -2.535  -2.457  -0.108  0.00  0.00    +0.000 C 
ATOM     14  C9  UNL     1      -1.760  -1.150   0.074  0.00  0.00    +0.000 C 
ENDBRANCH   1  14
BRANCH   3  15
ATOM     15  C11 UNL     1       1.944  -0.490  -0.459  0.00  0.00    +0.000 A 
ATOM     16  C12 UNL     1       2.461  -1.035  -1.635  0.00  0.00    +0.000 A 
ATOM     17  N2  UNL     1       3.766  -0.939  -2.033  0.00  0.00    +0.000 NA
ATOM     18  C13 UNL     1       4.613  -0.266  -1.228  0.00  0.00    +0.000 A 
ATOM     19  C14 UNL     1       4.191   0.319  -0.057  0.00  0.00    +0.000 A 
ATOM     20  C15 UNL     1       2.850   0.209   0.328  0.00  0.00    +0.000 A 
ATOM     21  C16 UNL     1       5.001   1.056   0.956  0.00  0.00    +0.000 C 
ATOM     22  C17 UNL     1       3.897   1.770   1.746  0.00  0.00    +0.000 C 
ATOM     23  C18 UNL     1       2.647   0.883   1.652  0.00  0.00    +0.000 C 
ENDBRANCH   3  15
TORSDOF 2
