REMARK  Name = /home/anacleto/Desktop/manuscript_Mpro/naturecomm/supplementary_file_S2/6-chemical-library/molecular_docking/3D_ligand_structure/339.pdb
REMARK  0 active torsions:
REMARK  status: ('A' for Active; 'I' for Inactive)
REMARK                            x       y       z     vdW  Elec       q    Type
REMARK                         _______ _______ _______ _____ _____    ______ ____
ROOT
ATOM      1  N1  UNL     1       2.063   0.854   0.213  0.00  0.00    +0.000 NA
ATOM      2  C1  UNL     1       2.585  -0.352   0.148  0.00  0.00    +0.000 A 
ATOM      3  O1  UNL     1       1.695  -1.375   0.002  0.00  0.00    +0.000 OA
ATOM      4  C2  UNL     1       0.485  -0.743  -0.029  0.00  0.00    +0.000 A 
ATOM      5  C3  UNL     1       0.716   0.619   0.101  0.00  0.00    +0.000 A 
ATOM      6  C4  UNL     1      -0.769  -1.325  -0.163  0.00  0.00    +0.000 A 
ATOM      7  C5  UNL     1      -1.852  -0.437  -0.164  0.00  0.00    +0.000 A 
ATOM      8  C6  UNL     1      -1.663   0.946  -0.035  0.00  0.00    +0.000 A 
ATOM      9  C7  UNL     1      -0.378   1.494   0.099  0.00  0.00    +0.000 A 
ENDROOT
TORSDOF 0
