REMARK  Name = /home/anacleto/Desktop/manuscript_Mpro/naturecomm/supplementary_file_S2/6-chemical-library/molecular_docking/3D_ligand_structure/3408.pdb
REMARK  2 active torsions:
REMARK  status: ('A' for Active; 'I' for Inactive)
REMARK    1  A    between atoms: C2_5  and  C3_6
REMARK    2  A    between atoms: C3_6  and  N3_7
REMARK                            x       y       z     vdW  Elec       q    Type
REMARK                         _______ _______ _______ _____ _____    ______ ____
ROOT
ATOM      1  N3  UNL     1       1.510  -0.905  -0.359  0.00  0.00    +0.000 N 
ATOM      2  C4  UNL     1       1.312  -0.960   0.987  0.00  0.00    +0.000 C 
ATOM      3  O1  UNL     1       1.957  -1.604   1.797  0.00  0.00    +0.000 OA
ATOM      4  N4  UNL     1       0.237  -0.167   1.309  0.00  0.00    +0.000 N 
ATOM      5  C5  UNL     1       0.547  -0.138  -0.960  0.00  0.00    +0.000 C 
ATOM      6  O2  UNL     1       0.451   0.073  -2.161  0.00  0.00    +0.000 OA
ATOM      7  C6  UNL     1      -0.384   0.386   0.137  0.00  0.00    +0.000 C 
ATOM      8  C7  UNL     1      -1.825  -0.017   0.020  0.00  0.00    +0.000 A 
ATOM      9  C8  UNL     1      -2.656   1.059   0.363  0.00  0.00    +0.000 A 
ATOM     10  C9  UNL     1      -1.852   2.263   0.745  0.00  0.00    +0.000 C 
ATOM     11  C10 UNL     1      -0.473   1.920   0.160  0.00  0.00    +0.000 C 
ATOM     12  C11 UNL     1      -4.035   0.927   0.371  0.00  0.00    +0.000 A 
ATOM     13  C12 UNL     1      -4.584  -0.306   0.015  0.00  0.00    +0.000 A 
ATOM     14  C13 UNL     1      -3.756  -1.386  -0.329  0.00  0.00    +0.000 A 
ATOM     15  C14 UNL     1      -2.366  -1.248  -0.323  0.00  0.00    +0.000 A 
ATOM     16  H4  UNL     1      -0.165  -0.177   2.237  0.00  0.00    +0.000 HD
ENDROOT
BRANCH   1  17
ATOM     17  C3  UNL     1       2.571  -1.591  -1.055  0.00  0.00    +0.000 C 
BRANCH  17  22
ATOM     18  S1  UNL     1       4.234   0.231  -2.397  0.00  0.00    +0.000 S 
ATOM     19  N1  UNL     1       5.605   0.817  -1.638  0.00  0.00    +0.000 NA
ATOM     20  N2  UNL     1       5.766   0.334  -0.418  0.00  0.00    +0.000 NA
ATOM     21  C1  UNL     1       4.749  -0.542  -0.080  0.00  0.00    +0.000 A 
ATOM     22  C2  UNL     1       3.788  -0.739  -1.054  0.00  0.00    +0.000 A 
ENDBRANCH  17  22
ENDBRANCH   1  17
TORSDOF 2
