REMARK  Name = /home/anacleto/Desktop/manuscript_Mpro/naturecomm/supplementary_file_S2/6-chemical-library/molecular_docking/3D_ligand_structure/3429.pdb
REMARK  1 active torsions:
REMARK  status: ('A' for Active; 'I' for Inactive)
REMARK    1  A    between atoms: N1_12  and  C12_16
REMARK                            x       y       z     vdW  Elec       q    Type
REMARK                         _______ _______ _______ _____ _____    ______ ____
ROOT
ATOM      1  C1  UNL     1      -1.947  -1.209  -0.023  0.00  0.00    +0.000 A 
ATOM      2  C2  UNL     1      -3.159  -1.889  -0.160  0.00  0.00    +0.000 A 
ATOM      3  C3  UNL     1      -4.365  -1.183  -0.295  0.00  0.00    +0.000 A 
ATOM      4  C4  UNL     1      -4.377   0.213  -0.295  0.00  0.00    +0.000 A 
ATOM      5  C5  UNL     1      -3.172   0.880  -0.146  0.00  0.00    +0.000 A 
ATOM      6  C6  UNL     1      -2.938   2.359  -0.149  0.00  0.00    +0.000 C 
ATOM      7  C7  UNL     1      -1.524   2.454   0.444  0.00  0.00    +0.000 C 
ATOM      8  C8  UNL     1      -1.966   0.179  -0.014  0.00  0.00    +0.000 A 
ATOM      9  C9  UNL     1      -0.816   1.141   0.082  0.00  0.00    +0.000 C 
ATOM     10  C10 UNL     1       0.286   0.746   1.066  0.00  0.00    +0.000 C 
ATOM     11  O1  UNL     1       0.163   0.622   2.278  0.00  0.00    +0.000 OA
ATOM     12  N1  UNL     1       1.438   0.538   0.347  0.00  0.00    +0.000 N 
ATOM     13  C11 UNL     1       1.200   0.718  -0.981  0.00  0.00    +0.000 C 
ATOM     14  O2  UNL     1       1.949   0.471  -1.911  0.00  0.00    +0.000 OA
ATOM     15  N2  UNL     1      -0.073   1.211  -1.147  0.00  0.00    +0.000 N 
ATOM     16  H9  UNL     1      -0.498   1.167  -2.064  0.00  0.00    +0.000 HD
ENDROOT
BRANCH  12  17
ATOM     17  C12 UNL     1       2.618  -0.074   0.922  0.00  0.00    +0.000 C 
ATOM     18  C13 UNL     1       2.589  -1.572   0.636  0.00  0.00    +0.000 C 
ATOM     19  O3  UNL     1       1.670  -2.344   0.858  0.00  0.00    +0.000 OA
ATOM     20  C14 UNL     1       3.973   0.376   0.369  0.00  0.00    +0.000 C 
ATOM     21  C15 UNL     1       4.455  -0.775  -0.496  0.00  0.00    +0.000 C 
ATOM     22  N3  UNL     1       3.770  -1.925   0.011  0.00  0.00    +0.000 N 
ATOM     23  H15 UNL     1       3.816  -2.840  -0.422  0.00  0.00    +0.000 HD
ENDBRANCH  12  17
TORSDOF 1
