REMARK  Name = /home/anacleto/Desktop/manuscript_Mpro/naturecomm/supplementary_file_S2/6-chemical-library/molecular_docking/3D_ligand_structure/3431.pdb
REMARK  1 active torsions:
REMARK  status: ('A' for Active; 'I' for Inactive)
REMARK    1  A    between atoms: C9_10  and  C10_12
REMARK                            x       y       z     vdW  Elec       q    Type
REMARK                         _______ _______ _______ _____ _____    ______ ____
ROOT
ATOM      1  C1  UNL     1      -3.585   0.709   1.554  0.00  0.00    +0.000 C 
ATOM      2  C2  UNL     1      -4.097   1.782   0.593  0.00  0.00    +0.000 C 
ATOM      3  C3  UNL     1      -3.499   1.678  -0.811  0.00  0.00    +0.000 C 
ATOM      4  C4  UNL     1      -2.152   0.965  -0.809  0.00  0.00    +0.000 C 
ATOM      5  C5  UNL     1      -2.283  -0.477  -0.295  0.00  0.00    +0.000 C 
ATOM      6  C6  UNL     1      -3.330  -0.617   0.832  0.00  0.00    +0.000 C 
ATOM      7  N1  UNL     1      -1.039  -0.993   0.278  0.00  0.00    +0.000 N 
ATOM      8  C7  UNL     1      -1.229  -1.443   1.646  0.00  0.00    +0.000 C 
ATOM      9  C8  UNL     1      -2.728  -1.677   1.754  0.00  0.00    +0.000 C 
ATOM     10  C9  UNL     1       0.115  -1.125  -0.478  0.00  0.00    +0.000 C 
ATOM     11  O1  UNL     1       0.115  -0.868  -1.684  0.00  0.00    +0.000 OA
ENDROOT
BRANCH  10  12
ATOM     12  C10 UNL     1       1.392  -1.646   0.239  0.00  0.00    +0.000 C 
ATOM     13  C11 UNL     1       2.595  -1.772  -0.718  0.00  0.00    +0.000 C 
ATOM     14  N2  UNL     1       1.741  -0.831   1.435  0.00  0.00    +0.000 NA
ATOM     15  C12 UNL     1       2.081   0.541   1.030  0.00  0.00    +0.000 C 
ATOM     16  C13 UNL     1       3.151   0.601  -0.031  0.00  0.00    +0.000 A 
ATOM     17  C14 UNL     1       3.371  -0.487  -0.894  0.00  0.00    +0.000 A 
ATOM     18  C15 UNL     1       3.896   1.776  -0.205  0.00  0.00    +0.000 A 
ATOM     19  C16 UNL     1       4.865   1.861  -1.206  0.00  0.00    +0.000 A 
ATOM     20  C17 UNL     1       5.092   0.775  -2.048  0.00  0.00    +0.000 A 
ATOM     21  C18 UNL     1       4.350  -0.395  -1.893  0.00  0.00    +0.000 A 
ATOM     22  H18 UNL     1       2.581  -1.234   1.851  0.00  0.00    +0.000 HD
ENDBRANCH  10  12
TORSDOF 1
