REMARK  Name = /home/anacleto/Desktop/manuscript_Mpro/naturecomm/supplementary_file_S2/6-chemical-library/molecular_docking/3D_ligand_structure/3433.pdb
REMARK  2 active torsions:
REMARK  status: ('A' for Active; 'I' for Inactive)
REMARK    1  A    between atoms: C2_5  and  C3_6
REMARK    2  A    between atoms: C3_6  and  N3_7
REMARK                            x       y       z     vdW  Elec       q    Type
REMARK                         _______ _______ _______ _____ _____    ______ ____
ROOT
ATOM      1  N3  UNL     1       1.415  -0.836   0.850  0.00  0.00    +0.000 N 
ATOM      2  C4  UNL     1       1.420  -1.394  -0.391  0.00  0.00    +0.000 C 
ATOM      3  O2  UNL     1       2.175  -2.256  -0.806  0.00  0.00    +0.000 OA
ATOM      4  N4  UNL     1       0.400  -0.840  -1.126  0.00  0.00    +0.000 N 
ATOM      5  C5  UNL     1       0.406   0.080   0.971  0.00  0.00    +0.000 C 
ATOM      6  O3  UNL     1       0.154   0.736   1.973  0.00  0.00    +0.000 OA
ATOM      7  C6  UNL     1      -0.347   0.121  -0.362  0.00  0.00    +0.000 C 
ATOM      8  C7  UNL     1      -1.808  -0.216  -0.305  0.00  0.00    +0.000 A 
ATOM      9  C8  UNL     1      -2.533   0.634  -1.152  0.00  0.00    +0.000 A 
ATOM     10  C9  UNL     1      -1.628   1.599  -1.853  0.00  0.00    +0.000 C 
ATOM     11  C10 UNL     1      -0.358   1.523  -0.991  0.00  0.00    +0.000 C 
ATOM     12  C11 UNL     1      -3.903   0.498  -1.304  0.00  0.00    +0.000 A 
ATOM     13  C12 UNL     1      -4.553  -0.503  -0.579  0.00  0.00    +0.000 A 
ATOM     14  C13 UNL     1      -3.832  -1.355   0.270  0.00  0.00    +0.000 A 
ATOM     15  C14 UNL     1      -2.448  -1.219   0.408  0.00  0.00    +0.000 A 
ATOM     16  H4  UNL     1       0.161  -1.180  -2.048  0.00  0.00    +0.000 HD
ENDROOT
BRANCH   1  17
ATOM     17  C3  UNL     1       2.408  -1.100   1.863  0.00  0.00    +0.000 C 
BRANCH  17  22
ATOM     18  O1  UNL     1       4.607  -0.362   2.555  0.00  0.00    +0.000 OA
ATOM     19  N1  UNL     1       5.550   0.621   2.248  0.00  0.00    +0.000 NA
ATOM     20  C1  UNL     1       4.962   1.302   1.261  0.00  0.00    +0.000 A 
ATOM     21  N2  UNL     1       3.724   0.859   0.895  0.00  0.00    +0.000 NA
ATOM     22  C2  UNL     1       3.550  -0.160   1.713  0.00  0.00    +0.000 A 
ENDBRANCH  17  22
ENDBRANCH   1  17
TORSDOF 2
