REMARK  Name = /home/anacleto/Desktop/manuscript_Mpro/naturecomm/supplementary_file_S2/6-chemical-library/molecular_docking/3D_ligand_structure/3441.pdb
REMARK  4 active torsions:
REMARK  status: ('A' for Active; 'I' for Inactive)
REMARK    1  A    between atoms: C4_6  and  C6_9
REMARK    2  A    between atoms: C6_9  and  N4_10
REMARK    3  A    between atoms: N4_10  and  C7_11
REMARK    4  A    between atoms: C7_11  and  C8_12
REMARK                            x       y       z     vdW  Elec       q    Type
REMARK                         _______ _______ _______ _____ _____    ______ ____
ROOT
ATOM      1  N4  UNL     1       0.725  -1.533  -0.939  0.00  0.00    +0.000 NA
ATOM      2  H7  UNL     1       0.518  -2.170  -1.708  0.00  0.00    +0.000 HD
ENDROOT
BRANCH   1   3
ATOM      3  C6  UNL     1       2.052  -0.946  -1.178  0.00  0.00    +0.000 C 
BRANCH   3   9
ATOM      4  C1  UNL     1       5.439   1.417   1.118  0.00  0.00    +0.000 A 
ATOM      5  C2  UNL     1       5.674   1.427  -0.283  0.00  0.00    +0.000 A 
ATOM      6  N1  UNL     1       4.743   0.769  -0.997  0.00  0.00    +0.000 NA
ATOM      7  N2  UNL     1       3.895   0.328  -0.049  0.00  0.00    +0.000 N 
ATOM      8  C3  UNL     1       4.288   0.702   1.220  0.00  0.00    +0.000 A 
ATOM      9  C4  UNL     1       2.716  -0.409   0.035  0.00  0.00    +0.000 A 
ATOM     10  C5  UNL     1       2.412  -0.472   1.354  0.00  0.00    +0.000 A 
ATOM     11  N3  UNL     1       3.375   0.212   2.087  0.00  0.00    +0.000 N 
ATOM     12  H4  UNL     1       3.344   0.278   3.097  0.00  0.00    +0.000 HD
ENDBRANCH   3   9
ENDBRANCH   1   3
BRANCH   1  13
ATOM     13  C7  UNL     1      -0.324  -0.502  -0.893  0.00  0.00    +0.000 C 
BRANCH  13  14
ATOM     14  C8  UNL     1      -1.720  -1.119  -0.632  0.00  0.00    +0.000 C 
ATOM     15  C9  UNL     1      -1.807  -1.889   0.691  0.00  0.00    +0.000 C 
ATOM     16  C10 UNL     1      -1.884  -0.914   1.853  0.00  0.00    +0.000 C 
ATOM     17  O1  UNL     1      -3.046  -0.085   1.794  0.00  0.00    +0.000 OA
ATOM     18  C11 UNL     1      -3.355   0.412   0.557  0.00  0.00    +0.000 A 
ATOM     19  C12 UNL     1      -2.780  -0.038  -0.638  0.00  0.00    +0.000 A 
ATOM     20  C13 UNL     1      -4.340   1.401   0.535  0.00  0.00    +0.000 A 
ATOM     21  C14 UNL     1      -4.750   1.961  -0.674  0.00  0.00    +0.000 A 
ATOM     22  C15 UNL     1      -4.180   1.525  -1.868  0.00  0.00    +0.000 A 
ATOM     23  C16 UNL     1      -3.202   0.529  -1.851  0.00  0.00    +0.000 A 
ENDBRANCH  13  14
ENDBRANCH   1  13
TORSDOF 4
