REMARK  Name = /home/anacleto/Desktop/manuscript_Mpro/naturecomm/supplementary_file_S2/6-chemical-library/molecular_docking/3D_ligand_structure/3446.pdb
REMARK  2 active torsions:
REMARK  status: ('A' for Active; 'I' for Inactive)
REMARK    1  A    between atoms: C3_5  and  C4_6
REMARK    2  A    between atoms: C4_6  and  N3_7
REMARK                            x       y       z     vdW  Elec       q    Type
REMARK                         _______ _______ _______ _____ _____    ______ ____
ROOT
ATOM      1  N3  UNL     1       1.235   0.128   1.055  0.00  0.00    +0.000 N 
ATOM      2  C5  UNL     1       0.772  -1.039   1.581  0.00  0.00    +0.000 C 
ATOM      3  O1  UNL     1       1.178  -1.631   2.566  0.00  0.00    +0.000 OA
ATOM      4  N4  UNL     1      -0.317  -1.452   0.846  0.00  0.00    +0.000 N 
ATOM      5  C6  UNL     1       0.402   0.579   0.066  0.00  0.00    +0.000 C 
ATOM      6  O2  UNL     1       0.511   1.637  -0.539  0.00  0.00    +0.000 OA
ATOM      7  C7  UNL     1      -0.702  -0.464  -0.123  0.00  0.00    +0.000 C 
ATOM      8  C8  UNL     1      -2.105   0.022   0.095  0.00  0.00    +0.000 A 
ATOM      9  C9  UNL     1      -2.964  -0.536  -0.862  0.00  0.00    +0.000 A 
ATOM     10  C10 UNL     1      -2.220  -1.445  -1.790  0.00  0.00    +0.000 C 
ATOM     11  C11 UNL     1      -0.765  -1.011  -1.558  0.00  0.00    +0.000 C 
ATOM     12  C12 UNL     1      -4.323  -0.271  -0.848  0.00  0.00    +0.000 A 
ATOM     13  C13 UNL     1      -4.822   0.581   0.139  0.00  0.00    +0.000 A 
ATOM     14  C14 UNL     1      -3.966   1.142   1.099  0.00  0.00    +0.000 A 
ATOM     15  C15 UNL     1      -2.598   0.860   1.086  0.00  0.00    +0.000 A 
ATOM     16  H6  UNL     1      -0.910  -2.196   1.189  0.00  0.00    +0.000 HD
ENDROOT
BRANCH   1  17
ATOM     17  C4  UNL     1       2.391   0.844   1.540  0.00  0.00    +0.000 C 
BRANCH  17  22
ATOM     18  N1  UNL     1       4.417  -0.366   0.797  0.00  0.00    +0.000 NA
ATOM     19  N2  UNL     1       5.282  -0.247  -0.223  0.00  0.00    +0.000 N 
ATOM     20  C1  UNL     1       4.991   0.785  -1.064  0.00  0.00    +0.000 A 
ATOM     21  C2  UNL     1       3.862   1.379  -0.557  0.00  0.00    +0.000 A 
ATOM     22  C3  UNL     1       3.539   0.630   0.602  0.00  0.00    +0.000 A 
ATOM     23  H1  UNL     1       6.048  -0.910  -0.282  0.00  0.00    +0.000 HD
ENDBRANCH  17  22
ENDBRANCH   1  17
TORSDOF 2
