REMARK  Name = /home/anacleto/Desktop/manuscript_Mpro/naturecomm/supplementary_file_S2/6-chemical-library/molecular_docking/3D_ligand_structure/3451.pdb
REMARK  2 active torsions:
REMARK  status: ('A' for Active; 'I' for Inactive)
REMARK    1  A    between atoms: C6_9  and  C7_10
REMARK    2  A    between atoms: N3_12  and  C8_13
REMARK                            x       y       z     vdW  Elec       q    Type
REMARK                         _______ _______ _______ _____ _____    ______ ____
ROOT
ATOM      1  C7  UNL     1      -0.636  -0.636   0.036  0.00  0.00    +0.000 C 
ATOM      2  O2  UNL     1      -0.487  -1.830  -0.193  0.00  0.00    +0.000 OA
ATOM      3  N3  UNL     1       0.369   0.304   0.136  0.00  0.00    +0.000 N 
ATOM      4  H4  UNL     1       0.122   1.286   0.207  0.00  0.00    +0.000 HD
ENDROOT
BRANCH   1  13
ATOM      5  C1  UNL     1      -3.278  -1.840  -1.346  0.00  0.00    +0.000 A 
ATOM      6  N1  UNL     1      -4.560  -1.984  -1.695  0.00  0.00    +0.000 NA
ATOM      7  O1  UNL     1      -5.234  -0.966  -1.030  0.00  0.00    +0.000 OA
ATOM      8  C2  UNL     1      -4.348  -0.230  -0.299  0.00  0.00    +0.000 A 
ATOM      9  C3  UNL     1      -3.076  -0.751  -0.474  0.00  0.00    +0.000 A 
ATOM     10  N2  UNL     1      -4.693   0.829   0.458  0.00  0.00    +0.000 NA
ATOM     11  C4  UNL     1      -3.649   1.391   1.100  0.00  0.00    +0.000 A 
ATOM     12  C5  UNL     1      -2.327   0.977   1.011  0.00  0.00    +0.000 A 
ATOM     13  C6  UNL     1      -2.016  -0.115   0.191  0.00  0.00    +0.000 A 
ENDBRANCH   1  13
BRANCH   3  14
ATOM     14  C8  UNL     1       1.757   0.071   0.059  0.00  0.00    +0.000 A 
ATOM     15  C9  UNL     1       2.387  -1.183  -0.070  0.00  0.00    +0.000 A 
ATOM     16  C10 UNL     1       3.800  -1.342  -0.138  0.00  0.00    +0.000 A 
ATOM     17  C11 UNL     1       4.706  -0.266  -0.081  0.00  0.00    +0.000 A 
ATOM     18  C12 UNL     1       4.099   0.995   0.053  0.00  0.00    +0.000 A 
ATOM     19  C13 UNL     1       2.655   1.163   0.123  0.00  0.00    +0.000 A 
ATOM     20  N4  UNL     1       4.666   2.204   0.139  0.00  0.00    +0.000 NA
ATOM     21  O3  UNL     1       3.622   3.105   0.258  0.00  0.00    +0.000 OA
ATOM     22  N5  UNL     1       2.388   2.472   0.251  0.00  0.00    +0.000 NA
ENDBRANCH   3  14
TORSDOF 2
