REMARK  Name = /home/anacleto/Desktop/manuscript_Mpro/naturecomm/supplementary_file_S2/6-chemical-library/molecular_docking/3D_ligand_structure/3452.pdb
REMARK  2 active torsions:
REMARK  status: ('A' for Active; 'I' for Inactive)
REMARK    1  A    between atoms: C5_9  and  C6_10
REMARK    2  A    between atoms: N5_12  and  C7_13
REMARK                            x       y       z     vdW  Elec       q    Type
REMARK                         _______ _______ _______ _____ _____    ______ ____
ROOT
ATOM      1  C6  UNL     1      -0.749   0.917   0.808  0.00  0.00    +0.000 C 
ATOM      2  O1  UNL     1      -0.355   1.587   1.756  0.00  0.00    +0.000 OA
ATOM      3  N5  UNL     1       0.037   0.096   0.019  0.00  0.00    +0.000 N 
ATOM      4  H4  UNL     1      -0.419  -0.406  -0.739  0.00  0.00    +0.000 HD
ENDROOT
BRANCH   1  13
ATOM      5  N1  UNL     1      -2.234  -0.606  -1.520  0.00  0.00    +0.000 NA
ATOM      6  N2  UNL     1      -3.224  -1.008  -2.310  0.00  0.00    +0.000 NA
ATOM      7  N3  UNL     1      -4.352  -0.402  -1.887  0.00  0.00    +0.000 N 
ATOM      8  C1  UNL     1      -4.112   0.405  -0.815  0.00  0.00    +0.000 A 
ATOM      9  C2  UNL     1      -2.752   0.263  -0.592  0.00  0.00    +0.000 A 
ATOM     10  N4  UNL     1      -4.993   1.160  -0.135  0.00  0.00    +0.000 NA
ATOM     11  C3  UNL     1      -4.408   1.840   0.881  0.00  0.00    +0.000 A 
ATOM     12  C4  UNL     1      -3.059   1.792   1.217  0.00  0.00    +0.000 A 
ATOM     13  C5  UNL     1      -2.190   0.983   0.467  0.00  0.00    +0.000 A 
ATOM     14  H1  UNL     1      -5.228  -0.576  -2.362  0.00  0.00    +0.000 HD
ENDBRANCH   1  13
BRANCH   3  15
ATOM     15  C7  UNL     1       1.426  -0.129   0.146  0.00  0.00    +0.000 A 
ATOM     16  C8  UNL     1       2.013  -1.009  -0.774  0.00  0.00    +0.000 A 
ATOM     17  C9  UNL     1       2.250   0.455   1.114  0.00  0.00    +0.000 A 
ATOM     18  N6  UNL     1       3.590   0.254   1.258  0.00  0.00    +0.000 NA
ATOM     19  C10 UNL     1       4.083  -0.598   0.343  0.00  0.00    +0.000 A 
ATOM     20  C11 UNL     1       3.392  -1.247  -0.666  0.00  0.00    +0.000 A 
ATOM     21  N7  UNL     1       5.382  -0.999   0.226  0.00  0.00    +0.000 N 
ATOM     22  N8  UNL     1       5.596  -1.866  -0.789  0.00  0.00    +0.000 NA
ATOM     23  C12 UNL     1       4.378  -2.011  -1.326  0.00  0.00    +0.000 A 
ATOM     24  H7  UNL     1       6.159  -0.714   0.808  0.00  0.00    +0.000 HD
ENDBRANCH   3  15
TORSDOF 2
