REMARK  Name = /home/anacleto/Desktop/manuscript_Mpro/naturecomm/supplementary_file_S2/6-chemical-library/molecular_docking/3D_ligand_structure/3453.pdb
REMARK  1 active torsions:
REMARK  status: ('A' for Active; 'I' for Inactive)
REMARK    1  A    between atoms: C7_10  and  C8_12
REMARK                            x       y       z     vdW  Elec       q    Type
REMARK                         _______ _______ _______ _____ _____    ______ ____
ROOT
ATOM      1  C1  UNL     1       5.179   0.089  -0.145  0.00  0.00    +0.000 A 
ATOM      2  N1  UNL     1       5.522   1.195   0.560  0.00  0.00    +0.000 NA
ATOM      3  C2  UNL     1       4.548   1.926   1.147  0.00  0.00    +0.000 A 
ATOM      4  C3  UNL     1       3.194   1.635   1.089  0.00  0.00    +0.000 A 
ATOM      5  C4  UNL     1       2.858   0.491   0.358  0.00  0.00    +0.000 A 
ATOM      6  C5  UNL     1       3.838  -0.284  -0.258  0.00  0.00    +0.000 A 
ATOM      7  N2  UNL     1       1.643  -0.123   0.069  0.00  0.00    +0.000 N 
ATOM      8  N3  UNL     1       1.815  -1.245  -0.695  0.00  0.00    +0.000 NA
ATOM      9  C6  UNL     1       3.132  -1.325  -0.882  0.00  0.00    +0.000 A 
ATOM     10  C7  UNL     1       0.350   0.282   0.468  0.00  0.00    +0.000 C 
ATOM     11  O1  UNL     1       0.226   1.279   1.172  0.00  0.00    +0.000 OA
ENDROOT
BRANCH  10  12
ATOM     12  C8  UNL     1      -0.783  -0.616  -0.014  0.00  0.00    +0.000 C 
ATOM     13  C9  UNL     1      -0.931  -1.771   0.983  0.00  0.00    +0.000 C 
ATOM     14  C10 UNL     1      -2.237  -2.496   0.726  0.00  0.00    +0.000 C 
ATOM     15  O2  UNL     1      -3.356  -1.646   0.973  0.00  0.00    +0.000 OA
ATOM     16  C11 UNL     1      -3.294  -0.441   0.326  0.00  0.00    +0.000 A 
ATOM     17  C12 UNL     1      -2.107   0.116  -0.168  0.00  0.00    +0.000 A 
ATOM     18  C13 UNL     1      -4.507   0.238   0.197  0.00  0.00    +0.000 A 
ATOM     19  C14 UNL     1      -4.559   1.462  -0.467  0.00  0.00    +0.000 A 
ATOM     20  C15 UNL     1      -3.395   2.008  -1.001  0.00  0.00    +0.000 A 
ATOM     21  C16 UNL     1      -2.178   1.339  -0.859  0.00  0.00    +0.000 A 
ENDBRANCH  10  12
TORSDOF 1
