REMARK  Name = /home/anacleto/Desktop/manuscript_Mpro/naturecomm/supplementary_file_S2/6-chemical-library/molecular_docking/3D_ligand_structure/3460.pdb
REMARK  2 active torsions:
REMARK  status: ('A' for Active; 'I' for Inactive)
REMARK    1  A    between atoms: C5_8  and  C7_10
REMARK    2  A    between atoms: C7_10  and  N3_11
REMARK                            x       y       z     vdW  Elec       q    Type
REMARK                         _______ _______ _______ _____ _____    ______ ____
ROOT
ATOM      1  N3  UNL     1       0.091  -0.690   1.219  0.00  0.00    +0.000 N 
ATOM      2  C8  UNL     1       0.895   0.326   0.650  0.00  0.00    +0.000 A 
ATOM      3  N4  UNL     1       0.405   1.573   0.561  0.00  0.00    +0.000 NA
ATOM      4  C9  UNL     1       1.208   2.498   0.025  0.00  0.00    +0.000 A 
ATOM      5  N5  UNL     1       2.456   2.307  -0.416  0.00  0.00    +0.000 NA
ATOM      6  C10 UNL     1       2.933   1.063  -0.332  0.00  0.00    +0.000 A 
ATOM      7  C11 UNL     1       2.188  -0.001   0.196  0.00  0.00    +0.000 A 
ATOM      8  C12 UNL     1       4.221   0.812  -0.791  0.00  0.00    +0.000 A 
ATOM      9  C13 UNL     1       4.787  -0.466  -0.747  0.00  0.00    +0.000 A 
ATOM     10  C14 UNL     1       4.052  -1.527  -0.239  0.00  0.00    +0.000 A 
ATOM     11  C15 UNL     1       2.759  -1.300   0.229  0.00  0.00    +0.000 A 
ATOM     12  H6  UNL     1       0.604  -1.077   2.006  0.00  0.00    +0.000 HD
ENDROOT
BRANCH   1  13
ATOM     13  C7  UNL     1      -1.259  -0.302   1.612  0.00  0.00    +0.000 C 
BRANCH  13  21
ATOM     14  N1  UNL     1      -4.395   1.766  -1.682  0.00  0.00    +0.000 NA
ATOM     15  O1  UNL     1      -5.051   1.139  -2.729  0.00  0.00    +0.000 OA
ATOM     16  N2  UNL     1      -4.751  -0.212  -2.793  0.00  0.00    +0.000 NA
ATOM     17  C1  UNL     1      -3.898  -0.442  -1.787  0.00  0.00    +0.000 A 
ATOM     18  C2  UNL     1      -3.673   0.811  -1.083  0.00  0.00    +0.000 A 
ATOM     19  C3  UNL     1      -3.280  -1.644  -1.402  0.00  0.00    +0.000 A 
ATOM     20  C4  UNL     1      -2.430  -1.530  -0.284  0.00  0.00    +0.000 A 
ATOM     21  C5  UNL     1      -2.200  -0.305   0.420  0.00  0.00    +0.000 A 
ATOM     22  C6  UNL     1      -2.822   0.906   0.034  0.00  0.00    +0.000 A 
ENDBRANCH  13  21
ENDBRANCH   1  13
TORSDOF 2
