REMARK  Name = /home/anacleto/Desktop/manuscript_Mpro/naturecomm/supplementary_file_S2/6-chemical-library/molecular_docking/3D_ligand_structure/3486.pdb
REMARK  2 active torsions:
REMARK  status: ('A' for Active; 'I' for Inactive)
REMARK    1  A    between atoms: C5_7  and  N2_10
REMARK    2  A    between atoms: N2_10  and  C8_11
REMARK                            x       y       z     vdW  Elec       q    Type
REMARK                         _______ _______ _______ _____ _____    ______ ____
ROOT
ATOM      1  N2  UNL     1      -0.408   0.348   0.638  0.00  0.00    +0.000 N 
ATOM      2  H5  UNL     1      -0.466   1.257   1.109  0.00  0.00    +0.000 HD
ENDROOT
BRANCH   1   9
ATOM      3  N1  UNL     1       4.827  -0.695  -1.122  0.00  0.00    +0.000 NA
ATOM      4  C1  UNL     1       5.595  -0.272  -0.143  0.00  0.00    +0.000 A 
ATOM      5  S1  UNL     1       4.798   0.403   1.213  0.00  0.00    +0.000 S 
ATOM      6  C2  UNL     1       3.279   0.122   0.448  0.00  0.00    +0.000 A 
ATOM      7  C3  UNL     1       3.500  -0.475  -0.794  0.00  0.00    +0.000 A 
ATOM      8  C4  UNL     1       1.983   0.406   0.914  0.00  0.00    +0.000 A 
ATOM      9  C5  UNL     1       0.873   0.085   0.112  0.00  0.00    +0.000 A 
ATOM     10  C6  UNL     1       1.091  -0.517  -1.129  0.00  0.00    +0.000 A 
ATOM     11  C7  UNL     1       2.386  -0.795  -1.591  0.00  0.00    +0.000 A 
ENDBRANCH   1   9
BRANCH   1  12
ATOM     12  C8  UNL     1      -1.653  -0.119   0.234  0.00  0.00    +0.000 A 
ATOM     13  C9  UNL     1      -1.929  -1.338  -0.264  0.00  0.00    +0.000 A 
ATOM     14  C10 UNL     1      -3.352  -1.619  -0.592  0.00  0.00    +0.000 A 
ATOM     15  N3  UNL     1      -4.356  -0.815  -0.428  0.00  0.00    +0.000 NA
ATOM     16  N4  UNL     1      -2.743   0.759   0.437  0.00  0.00    +0.000 N 
ATOM     17  C11 UNL     1      -4.056   0.404   0.106  0.00  0.00    +0.000 A 
ATOM     18  N5  UNL     1      -2.725   2.017   0.960  0.00  0.00    +0.000 NA
ATOM     19  C12 UNL     1      -4.015   2.350   0.905  0.00  0.00    +0.000 A 
ATOM     20  N6  UNL     1      -4.855   1.407   0.397  0.00  0.00    +0.000 NA
ENDBRANCH   1  12
TORSDOF 2
