REMARK  Name = /home/anacleto/Desktop/manuscript_Mpro/naturecomm/supplementary_file_S2/6-chemical-library/molecular_docking/3D_ligand_structure/3490.pdb
REMARK  2 active torsions:
REMARK  status: ('A' for Active; 'I' for Inactive)
REMARK    1  A    between atoms: C7_8  and  C8_10
REMARK    2  A    between atoms: C8_10  and  N2_11
REMARK                            x       y       z     vdW  Elec       q    Type
REMARK                         _______ _______ _______ _____ _____    ______ ____
ROOT
ATOM      1  C8  UNL     1       0.421  -0.725   1.955  0.00  0.00    +0.000 C 
ENDROOT
BRANCH   1   9
ATOM      2  C1  UNL     1      -3.303  -0.501  -0.992  0.00  0.00    +0.000 C 
ATOM      3  C2  UNL     1      -2.467   0.613  -1.596  0.00  0.00    +0.000 C 
ATOM      4  C3  UNL     1      -1.728   1.122  -0.594  0.00  0.00    +0.000 C 
ATOM      5  C4  UNL     1      -2.090   0.372   0.668  0.00  0.00    +0.000 C 
ATOM      6  C5  UNL     1      -3.576   0.138   0.379  0.00  0.00    +0.000 C 
ATOM      7  N1  UNL     1      -1.548  -0.982   0.479  0.00  0.00    +0.000 N 
ATOM      8  C6  UNL     1      -2.345  -1.641  -0.571  0.00  0.00    +0.000 C 
ATOM      9  C7  UNL     1      -0.383  -1.522   0.957  0.00  0.00    +0.000 C 
ATOM     10  O1  UNL     1      -0.008  -2.647   0.613  0.00  0.00    +0.000 OA
ENDBRANCH   1   9
BRANCH   1  11
ATOM     11  N2  UNL     1       1.163   0.341   1.327  0.00  0.00    +0.000 N 
ATOM     12  N3  UNL     1       0.931   1.619   1.694  0.00  0.00    +0.000 NA
ATOM     13  N4  UNL     1       1.747   2.392   0.989  0.00  0.00    +0.000 NA
ATOM     14  C9  UNL     1       2.165   0.255   0.397  0.00  0.00    +0.000 A 
ATOM     15  C10 UNL     1       2.516   1.585   0.194  0.00  0.00    +0.000 A 
ATOM     16  C11 UNL     1       2.783  -0.806  -0.274  0.00  0.00    +0.000 A 
ATOM     17  C12 UNL     1       3.792  -0.472  -1.184  0.00  0.00    +0.000 A 
ATOM     18  C13 UNL     1       4.161   0.857  -1.407  0.00  0.00    +0.000 A 
ATOM     19  C14 UNL     1       3.529   1.902  -0.722  0.00  0.00    +0.000 A 
ENDBRANCH   1  11
TORSDOF 2
