REMARK  Name = /home/anacleto/Desktop/manuscript_Mpro/naturecomm/supplementary_file_S2/6-chemical-library/molecular_docking/3D_ligand_structure/3494.pdb
REMARK  1 active torsions:
REMARK  status: ('A' for Active; 'I' for Inactive)
REMARK    1  A    between atoms: C6_8  and  C7_10
REMARK                            x       y       z     vdW  Elec       q    Type
REMARK                         _______ _______ _______ _____ _____    ______ ____
ROOT
ATOM      1  C1  UNL     1      -1.295   0.081   0.514  0.00  0.00    +0.000 C 
ATOM      2  C2  UNL     1      -2.424   1.019   0.926  0.00  0.00    +0.000 C 
ATOM      3  C3  UNL     1      -3.257   0.660  -0.302  0.00  0.00    +0.000 C 
ATOM      4  N1  UNL     1      -3.409  -0.819  -0.137  0.00  0.00    +0.000 NA
ATOM      5  C4  UNL     1      -2.074  -1.246   0.382  0.00  0.00    +0.000 C 
ATOM      6  C5  UNL     1      -2.254   0.969  -1.446  0.00  0.00    +0.000 C 
ATOM      7  N2  UNL     1      -0.984   0.571  -0.840  0.00  0.00    +0.000 N 
ATOM      8  C6  UNL     1       0.113   0.280  -1.620  0.00  0.00    +0.000 C 
ATOM      9  O1  UNL     1       0.148   0.442  -2.835  0.00  0.00    +0.000 OA
ATOM     10  H5  UNL     1      -4.109  -0.997   0.583  0.00  0.00    +0.000 HD
ENDROOT
BRANCH   8  11
ATOM     11  C7  UNL     1       1.306  -0.265  -0.954  0.00  0.00    +0.000 A 
ATOM     12  C8  UNL     1       1.773  -1.538  -1.314  0.00  0.00    +0.000 A 
ATOM     13  C9  UNL     1       2.906  -2.073  -0.699  0.00  0.00    +0.000 A 
ATOM     14  C10 UNL     1       3.608  -1.354   0.276  0.00  0.00    +0.000 A 
ATOM     15  C11 UNL     1       3.136  -0.076   0.597  0.00  0.00    +0.000 A 
ATOM     16  C12 UNL     1       2.010   0.487   0.002  0.00  0.00    +0.000 A 
ATOM     17  N3  UNL     1       3.595   0.875   1.471  0.00  0.00    +0.000 N 
ATOM     18  N4  UNL     1       2.857   1.999   1.497  0.00  0.00    +0.000 NA
ATOM     19  C13 UNL     1       1.909   1.770   0.585  0.00  0.00    +0.000 A 
ATOM     20  H13 UNL     1       4.406   0.818   2.077  0.00  0.00    +0.000 HD
ENDBRANCH   8  11
TORSDOF 1
