REMARK  Name = /home/anacleto/Desktop/manuscript_Mpro/naturecomm/supplementary_file_S2/6-chemical-library/molecular_docking/3D_ligand_structure/350.pdb
REMARK  0 active torsions:
REMARK  status: ('A' for Active; 'I' for Inactive)
REMARK                            x       y       z     vdW  Elec       q    Type
REMARK                         _______ _______ _______ _____ _____    ______ ____
ROOT
ATOM      1  C1  UNL     1       1.814  -0.792   0.021  0.00  0.00    +0.000 A 
ATOM      2  N1  UNL     1       2.423   0.428  -0.056  0.00  0.00    +0.000 N 
ATOM      3  N2  UNL     1       1.576   1.475  -0.103  0.00  0.00    +0.000 NA
ATOM      4  C2  UNL     1       0.350   0.926  -0.057  0.00  0.00    +0.000 A 
ATOM      5  C3  UNL     1       0.478  -0.508   0.022  0.00  0.00    +0.000 A 
ATOM      6  C4  UNL     1      -0.916   1.532  -0.074  0.00  0.00    +0.000 A 
ATOM      7  C5  UNL     1      -1.987   0.612  -0.008  0.00  0.00    +0.000 A 
ATOM      8  C6  UNL     1      -1.808  -0.807   0.069  0.00  0.00    +0.000 A 
ATOM      9  C7  UNL     1      -0.548  -1.442   0.088  0.00  0.00    +0.000 A 
ATOM     10  H2  UNL     1       3.418   0.624  -0.080  0.00  0.00    +0.000 HD
ENDROOT
TORSDOF 0
