REMARK  Name = /home/anacleto/Desktop/manuscript_Mpro/naturecomm/supplementary_file_S2/6-chemical-library/molecular_docking/3D_ligand_structure/3506.pdb
REMARK  11 active torsions:
REMARK  status: ('A' for Active; 'I' for Inactive)
REMARK    1  A    between atoms: C6_6  and  C7_7
REMARK    2  A    between atoms: C7_7  and  O2_9
REMARK    3  A    between atoms: O2_9  and  C8_10
REMARK    4  A    between atoms: C8_10  and  C9_11
REMARK    5  A    between atoms: C9_11  and  C10_13
REMARK    6  A    between atoms: C10_13  and  C11_14
REMARK    7  A    between atoms: C10_13  and  N2_22
REMARK    8  A    between atoms: C11_14  and  C12_15
REMARK    9  A    between atoms: C17_23  and  C18_25
REMARK   10  A    between atoms: C18_25  and  N3_26
REMARK   11  A    between atoms: C19_27  and  C20_29
REMARK                            x       y       z     vdW  Elec       q    Type
REMARK                         _______ _______ _______ _____ _____    ______ ____
ROOT
ATOM      1  C10 UNL     1      -0.398  -2.621  -0.793  0.00  0.00    +0.000 C 
ENDROOT
BRANCH   1   2
ATOM      2  N2  UNL     1      -0.024  -1.210  -0.878  0.00  0.00    +0.000 N 
ATOM      3  C17 UNL     1       0.723  -0.603   0.110  0.00  0.00    +0.000 C 
ATOM      4  O5  UNL     1       1.240  -1.211   1.045  0.00  0.00    +0.000 OA
ATOM      5  H25 UNL     1      -0.569  -0.612  -1.488  0.00  0.00    +0.000 HD
BRANCH   3   6
ATOM      6  C18 UNL     1       0.873   0.906  -0.066  0.00  0.00    +0.000 C 
BRANCH   6   7
ATOM      7  N3  UNL     1       1.712   1.444   0.983  0.00  0.00    +0.000 N 
ATOM      8  C19 UNL     1       1.976   2.791   1.040  0.00  0.00    +0.000 C 
ATOM      9  O6  UNL     1       1.446   3.575   0.259  0.00  0.00    +0.000 OA
ATOM     10  H28 UNL     1       2.272   0.773   1.492  0.00  0.00    +0.000 HD
BRANCH   8  11
ATOM     11  C20 UNL     1       2.927   3.196   2.053  0.00  0.00    +0.000 A 
ATOM     12  C21 UNL     1       3.546   4.431   2.174  0.00  0.00    +0.000 A 
ATOM     13  N4  UNL     1       3.381   2.436   3.109  0.00  0.00    +0.000 N 
ATOM     14  C22 UNL     1       4.293   3.135   3.867  0.00  0.00    +0.000 A 
ATOM     15  C23 UNL     1       4.412   4.400   3.299  0.00  0.00    +0.000 A 
ATOM     16  C24 UNL     1       5.008   2.747   5.007  0.00  0.00    +0.000 A 
ATOM     17  C25 UNL     1       5.874   3.686   5.576  0.00  0.00    +0.000 A 
ATOM     18  C26 UNL     1       6.013   4.960   5.028  0.00  0.00    +0.000 A 
ATOM     19  C27 UNL     1       5.287   5.331   3.889  0.00  0.00    +0.000 A 
ATOM     20  H30 UNL     1       3.077   1.498   3.323  0.00  0.00    +0.000 HD
ENDBRANCH   8  11
ENDBRANCH   6   7
ENDBRANCH   3   6
ENDBRANCH   1   2
BRANCH   1  21
ATOM     21  C9  UNL     1      -1.790  -2.813  -0.165  0.00  0.00    +0.000 C 
ATOM     22  O3  UNL     1      -2.017  -3.799   0.546  0.00  0.00    +0.000 OA
BRANCH  21  23
ATOM     23  C8  UNL     1      -2.942  -1.920  -0.619  0.00  0.00    +0.000 C 
BRANCH  23  24
ATOM     24  O2  UNL     1      -2.658  -0.526  -0.538  0.00  0.00    +0.000 OA
BRANCH  24  25
ATOM     25  C7  UNL     1      -3.709   0.264  -0.913  0.00  0.00    +0.000 C 
ATOM     26  O1  UNL     1      -4.778  -0.162  -1.323  0.00  0.00    +0.000 OA
BRANCH  25  32
ATOM     27  C1  UNL     1      -4.570   2.630  -0.630  0.00  0.00    +0.000 C 
ATOM     28  C2  UNL     1      -4.354   4.054  -1.152  0.00  0.00    +0.000 C 
ATOM     29  C3  UNL     1      -2.903   4.492  -1.017  0.00  0.00    +0.000 C 
ATOM     30  C4  UNL     1      -1.961   3.590  -1.816  0.00  0.00    +0.000 C 
ATOM     31  C5  UNL     1      -2.475   2.157  -1.970  0.00  0.00    +0.000 C 
ATOM     32  C6  UNL     1      -3.331   1.728  -0.777  0.00  0.00    +0.000 C 
ENDBRANCH  25  32
ENDBRANCH  24  25
ENDBRANCH  23  24
ENDBRANCH  21  23
ENDBRANCH   1  21
BRANCH   1  33
ATOM     33  C11 UNL     1      -0.347  -3.236  -2.198  0.00  0.00    +0.000 C 
BRANCH  33  34
ATOM     34  C12 UNL     1      -0.608  -4.755  -2.277  0.00  0.00    +0.000 C 
ATOM     35  C13 UNL     1      -0.619  -5.193  -3.743  0.00  0.00    +0.000 C 
ATOM     36  O4  UNL     1      -0.867  -4.425  -4.669  0.00  0.00    +0.000 OA
ATOM     37  C14 UNL     1       0.389  -5.573  -1.450  0.00  0.00    +0.000 C 
ATOM     38  C15 UNL     1       0.162  -7.065  -1.670  0.00  0.00    +0.000 C 
ATOM     39  C16 UNL     1       0.331  -7.391  -3.142  0.00  0.00    +0.000 C 
ATOM     40  N1  UNL     1      -0.457  -6.528  -3.992  0.00  0.00    +0.000 N 
ATOM     41  H24 UNL     1      -0.470  -6.738  -4.983  0.00  0.00    +0.000 HD
ENDBRANCH  33  34
ENDBRANCH   1  33
TORSDOF 11
