REMARK  Name = /home/anacleto/Desktop/manuscript_Mpro/naturecomm/supplementary_file_S2/6-chemical-library/molecular_docking/3D_ligand_structure/351.pdb
REMARK  0 active torsions:
REMARK  status: ('A' for Active; 'I' for Inactive)
REMARK                            x       y       z     vdW  Elec       q    Type
REMARK                         _______ _______ _______ _____ _____    ______ ____
ROOT
ATOM      1  C1  UNL     1       2.110  -0.314  -0.051  0.00  0.00    +0.000 C 
ATOM      2  N1  UNL     1       2.423   1.139  -0.195  0.00  0.00    +0.000 NA
ATOM      3  N2  UNL     1       1.371   1.851  -0.220  0.00  0.00    +0.000 NA
ATOM      4  C2  UNL     1       0.264   0.999  -0.101  0.00  0.00    +0.000 A 
ATOM      5  C3  UNL     1       0.636  -0.329   0.006  0.00  0.00    +0.000 A 
ATOM      6  C4  UNL     1      -1.071   1.359  -0.083  0.00  0.00    +0.000 A 
ATOM      7  C5  UNL     1      -2.030   0.348   0.045  0.00  0.00    +0.000 A 
ATOM      8  C6  UNL     1      -1.638  -0.997   0.152  0.00  0.00    +0.000 A 
ATOM      9  C7  UNL     1      -0.287  -1.349   0.133  0.00  0.00    +0.000 A 
ENDROOT
TORSDOF 0
