REMARK  Name = /home/anacleto/Desktop/manuscript_Mpro/naturecomm/supplementary_file_S2/6-chemical-library/molecular_docking/3D_ligand_structure/3511.pdb
REMARK  11 active torsions:
REMARK  status: ('A' for Active; 'I' for Inactive)
REMARK    1  A    between atoms: C6_6  and  C7_7
REMARK    2  A    between atoms: C7_7  and  O2_9
REMARK    3  A    between atoms: O2_9  and  C8_10
REMARK    4  A    between atoms: C8_10  and  C9_11
REMARK    5  A    between atoms: C9_11  and  C10_13
REMARK    6  A    between atoms: C10_13  and  C11_14
REMARK    7  A    between atoms: C10_13  and  N2_22
REMARK    8  A    between atoms: C11_14  and  C12_15
REMARK    9  A    between atoms: C17_23  and  C18_25
REMARK   10  A    between atoms: C18_25  and  N3_26
REMARK   11  A    between atoms: C19_27  and  C20_29
REMARK                            x       y       z     vdW  Elec       q    Type
REMARK                         _______ _______ _______ _____ _____    ______ ____
ROOT
ATOM      1  C10 UNL     1      -1.855  -0.936   0.247  0.00  0.00    +0.000 C 
ENDROOT
BRANCH   1   2
ATOM      2  N2  UNL     1      -0.514  -1.198   0.763  0.00  0.00    +0.000 N 
ATOM      3  C17 UNL     1      -0.264  -1.530   2.075  0.00  0.00    +0.000 C 
ATOM      4  O5  UNL     1      -1.158  -1.637   2.910  0.00  0.00    +0.000 OA
ATOM      5  H19 UNL     1       0.252  -1.308   0.098  0.00  0.00    +0.000 HD
BRANCH   3   6
ATOM      6  C18 UNL     1       1.189  -1.903   2.396  0.00  0.00    +0.000 C 
BRANCH   6   7
ATOM      7  N3  UNL     1       2.197  -1.018   1.829  0.00  0.00    +0.000 N 
ATOM      8  C19 UNL     1       2.620  -1.135   0.528  0.00  0.00    +0.000 C 
ATOM      9  O6  UNL     1       1.989  -1.804  -0.289  0.00  0.00    +0.000 OA
ATOM     10  H22 UNL     1       2.777  -0.505   2.478  0.00  0.00    +0.000 HD
BRANCH   8  11
ATOM     11  C20 UNL     1       3.816  -0.407   0.182  0.00  0.00    +0.000 A 
ATOM     12  C21 UNL     1       4.669   0.398   0.919  0.00  0.00    +0.000 A 
ATOM     13  N4  UNL     1       4.327  -0.436  -1.100  0.00  0.00    +0.000 N 
ATOM     14  C22 UNL     1       5.479   0.306  -1.194  0.00  0.00    +0.000 A 
ATOM     15  C23 UNL     1       5.719   0.844   0.067  0.00  0.00    +0.000 A 
ATOM     16  C24 UNL     1       6.319   0.539  -2.288  0.00  0.00    +0.000 A 
ATOM     17  C25 UNL     1       7.442   1.346  -2.080  0.00  0.00    +0.000 A 
ATOM     18  C26 UNL     1       7.709   1.895  -0.828  0.00  0.00    +0.000 A 
ATOM     19  C27 UNL     1       6.855   1.654   0.254  0.00  0.00    +0.000 A 
ATOM     20  H24 UNL     1       3.904  -0.952  -1.862  0.00  0.00    +0.000 HD
ENDBRANCH   8  11
ENDBRANCH   6   7
ENDBRANCH   3   6
ENDBRANCH   1   2
BRANCH   1  21
ATOM     21  C9  UNL     1      -2.167   0.570   0.139  0.00  0.00    +0.000 C 
ATOM     22  O3  UNL     1      -3.134   0.972  -0.521  0.00  0.00    +0.000 OA
BRANCH  21  23
ATOM     23  C8  UNL     1      -1.283   1.539   0.920  0.00  0.00    +0.000 C 
BRANCH  23  24
ATOM     24  O2  UNL     1      -1.721   2.895   0.799  0.00  0.00    +0.000 OA
BRANCH  24  25
ATOM     25  C7  UNL     1      -2.776   3.213   1.592  0.00  0.00    +0.000 C 
ATOM     26  O1  UNL     1      -3.267   2.490   2.444  0.00  0.00    +0.000 OA
BRANCH  25  32
ATOM     27  C1  UNL     1      -4.270   5.123   2.114  0.00  0.00    +0.000 A 
ATOM     28  C2  UNL     1      -4.757   6.410   1.881  0.00  0.00    +0.000 A 
ATOM     29  C3  UNL     1      -4.236   7.174   0.837  0.00  0.00    +0.000 A 
ATOM     30  C4  UNL     1      -3.229   6.653   0.024  0.00  0.00    +0.000 A 
ATOM     31  C5  UNL     1      -2.739   5.365   0.254  0.00  0.00    +0.000 A 
ATOM     32  C6  UNL     1      -3.255   4.592   1.304  0.00  0.00    +0.000 A 
ENDBRANCH  25  32
ENDBRANCH  24  25
ENDBRANCH  23  24
ENDBRANCH  21  23
ENDBRANCH   1  21
BRANCH   1  33
ATOM     33  C11 UNL     1      -2.036  -1.609  -1.124  0.00  0.00    +0.000 C 
BRANCH  33  34
ATOM     34  C12 UNL     1      -1.834  -3.138  -1.122  0.00  0.00    +0.000 C 
ATOM     35  C13 UNL     1      -1.928  -3.685  -2.546  0.00  0.00    +0.000 C 
ATOM     36  O4  UNL     1      -1.875  -2.999  -3.560  0.00  0.00    +0.000 OA
ATOM     37  C14 UNL     1      -2.850  -3.869  -0.230  0.00  0.00    +0.000 C 
ATOM     38  C15 UNL     1      -2.766  -5.400  -0.331  0.00  0.00    +0.000 C 
ATOM     39  C16 UNL     1      -1.869  -5.880  -1.464  0.00  0.00    +0.000 C 
ATOM     40  N1  UNL     1      -2.025  -5.050  -2.627  0.00  0.00    +0.000 N 
ATOM     41  H18 UNL     1      -1.982  -5.439  -3.561  0.00  0.00    +0.000 HD
ENDBRANCH  33  34
ENDBRANCH   1  33
TORSDOF 11
