REMARK  Name = /home/anacleto/Desktop/manuscript_Mpro/naturecomm/supplementary_file_S2/6-chemical-library/molecular_docking/3D_ligand_structure/3523.pdb
REMARK  7 active torsions:
REMARK  status: ('A' for Active; 'I' for Inactive)
REMARK    1  A    between atoms: C6_6  and  C7_7
REMARK    2  A    between atoms: C7_7  and  C8_8
REMARK    3  A    between atoms: C8_8  and  N1_9
REMARK    4  A    between atoms: C9_10  and  C10_12
REMARK    5  A    between atoms: C10_12  and  C11_13
REMARK    6  A    between atoms: C10_12  and  N3_19
REMARK    7  A    between atoms: C16_20  and  C17_22
REMARK                            x       y       z     vdW  Elec       q    Type
REMARK                         _______ _______ _______ _____ _____    ______ ____
ROOT
ATOM      1  C10 UNL     1       0.943  -2.337  -0.238  0.00  0.00    +0.000 C 
ENDROOT
BRANCH   1   2
ATOM      2  C11 UNL     1       0.885  -3.225  -1.460  0.00  0.00    +0.000 A 
ATOM      3  C12 UNL     1       1.414  -2.849  -2.701  0.00  0.00    +0.000 A 
ATOM      4  C13 UNL     1       1.284  -3.700  -3.795  0.00  0.00    +0.000 A 
ATOM      5  C14 UNL     1       0.617  -4.900  -3.619  0.00  0.00    +0.000 A 
ATOM      6  N2  UNL     1       0.081  -5.291  -2.444  0.00  0.00    +0.000 NA
ATOM      7  C15 UNL     1       0.230  -4.452  -1.395  0.00  0.00    +0.000 A 
ENDBRANCH   1   2
BRANCH   1   9
ATOM      8  N1  UNL     1       2.452  -0.368  -0.223  0.00  0.00    +0.000 N 
ATOM      9  C9  UNL     1       2.360  -1.734  -0.017  0.00  0.00    +0.000 C 
ATOM     10  O1  UNL     1       3.340  -2.428   0.245  0.00  0.00    +0.000 OA
ATOM     11  H10 UNL     1       1.591   0.157  -0.135  0.00  0.00    +0.000 HD
BRANCH   8  12
ATOM     12  C8  UNL     1       3.674   0.360   0.069  0.00  0.00    +0.000 C 
BRANCH  12  13
ATOM     13  C7  UNL     1       3.836   0.668   1.563  0.00  0.00    +0.000 C 
BRANCH  13  19
ATOM     14  C1  UNL     1       1.894   0.922   3.161  0.00  0.00    +0.000 A 
ATOM     15  C2  UNL     1       0.833   1.651   3.701  0.00  0.00    +0.000 A 
ATOM     16  C3  UNL     1       0.545   2.926   3.219  0.00  0.00    +0.000 A 
ATOM     17  C4  UNL     1       1.324   3.477   2.204  0.00  0.00    +0.000 A 
ATOM     18  C5  UNL     1       2.394   2.755   1.672  0.00  0.00    +0.000 A 
ATOM     19  C6  UNL     1       2.686   1.466   2.139  0.00  0.00    +0.000 A 
ENDBRANCH  13  19
ENDBRANCH  12  13
ENDBRANCH   8  12
ENDBRANCH   1   9
BRANCH   1  20
ATOM     20  N3  UNL     1      -0.089  -1.305  -0.358  0.00  0.00    +0.000 N 
ATOM     21  C16 UNL     1      -0.728  -0.803   0.744  0.00  0.00    +0.000 C 
ATOM     22  O2  UNL     1      -0.486  -1.208   1.875  0.00  0.00    +0.000 OA
ATOM     23  H16 UNL     1      -0.158  -0.836  -1.246  0.00  0.00    +0.000 HD
BRANCH  21  24
ATOM     24  C17 UNL     1      -1.661   0.267   0.500  0.00  0.00    +0.000 A 
ATOM     25  N4  UNL     1      -2.052   1.074   1.540  0.00  0.00    +0.000 N 
ATOM     26  N5  UNL     1      -2.935   2.024   1.201  0.00  0.00    +0.000 NA
ATOM     27  C18 UNL     1      -3.136   1.822  -0.099  0.00  0.00    +0.000 A 
ATOM     28  C19 UNL     1      -2.372   0.730  -0.602  0.00  0.00    +0.000 A 
ATOM     29  C20 UNL     1      -4.086   2.675  -0.868  0.00  0.00    +0.000 C 
ATOM     30  C21 UNL     1      -4.694   1.919  -2.037  0.00  0.00    +0.000 C 
ATOM     31  S1  UNL     1      -3.415   1.266  -3.095  0.00  0.00    +0.000 S 
ATOM     32  O3  UNL     1      -2.575   2.372  -3.516  0.00  0.00    +0.000 OA
ATOM     33  O4  UNL     1      -4.052   0.415  -4.083  0.00  0.00    +0.000 OA
ATOM     34  C22 UNL     1      -2.450   0.214  -1.999  0.00  0.00    +0.000 C 
ATOM     35  H17 UNL     1      -1.737   1.015   2.505  0.00  0.00    +0.000 HD
ENDBRANCH  21  24
ENDBRANCH   1  20
TORSDOF 7
