REMARK  Name = /home/anacleto/Desktop/manuscript_Mpro/naturecomm/supplementary_file_S2/6-chemical-library/molecular_docking/3D_ligand_structure/3530.pdb
REMARK  7 active torsions:
REMARK  status: ('A' for Active; 'I' for Inactive)
REMARK    1  A    between atoms: C6_6  and  C7_7
REMARK    2  A    between atoms: C7_7  and  C8_8
REMARK    3  A    between atoms: C8_8  and  N1_9
REMARK    4  A    between atoms: C9_10  and  C10_12
REMARK    5  A    between atoms: C10_12  and  C11_13
REMARK    6  A    between atoms: C10_12  and  N3_19
REMARK    7  A    between atoms: C16_20  and  C17_22
REMARK                            x       y       z     vdW  Elec       q    Type
REMARK                         _______ _______ _______ _____ _____    ______ ____
ROOT
ATOM      1  C10 UNL     1       0.010  -2.447  -0.213  0.00  0.00    +0.000 C 
ENDROOT
BRANCH   1   2
ATOM      2  C11 UNL     1      -0.222  -3.780   0.464  0.00  0.00    +0.000 A 
ATOM      3  C12 UNL     1       0.072  -4.000   1.816  0.00  0.00    +0.000 A 
ATOM      4  C13 UNL     1      -0.197  -5.238   2.392  0.00  0.00    +0.000 A 
ATOM      5  C14 UNL     1      -0.767  -6.219   1.600  0.00  0.00    +0.000 A 
ATOM      6  N2  UNL     1      -1.081  -6.043   0.299  0.00  0.00    +0.000 NA
ATOM      7  C15 UNL     1      -0.795  -4.836  -0.239  0.00  0.00    +0.000 A 
ENDBRANCH   1   2
BRANCH   1   9
ATOM      8  N1  UNL     1       1.654  -0.593  -0.400  0.00  0.00    +0.000 N 
ATOM      9  C9  UNL     1       1.474  -1.922  -0.051  0.00  0.00    +0.000 C 
ATOM     10  O1  UNL     1       2.421  -2.644   0.256  0.00  0.00    +0.000 OA
ATOM     11  H10 UNL     1       0.934  -0.204  -1.011  0.00  0.00    +0.000 HD
BRANCH   8  12
ATOM     12  C8  UNL     1       2.985  -0.022  -0.503  0.00  0.00    +0.000 C 
BRANCH  12  13
ATOM     13  C7  UNL     1       2.936   1.505  -0.517  0.00  0.00    +0.000 C 
BRANCH  13  19
ATOM     14  C1  UNL     1       5.111   2.314   0.478  0.00  0.00    +0.000 A 
ATOM     15  C2  UNL     1       6.389   2.862   0.350  0.00  0.00    +0.000 A 
ATOM     16  C3  UNL     1       6.876   3.210  -0.909  0.00  0.00    +0.000 A 
ATOM     17  C4  UNL     1       6.088   3.009  -2.040  0.00  0.00    +0.000 A 
ATOM     18  C5  UNL     1       4.811   2.461  -1.915  0.00  0.00    +0.000 A 
ATOM     19  C6  UNL     1       4.309   2.113  -0.653  0.00  0.00    +0.000 A 
ENDBRANCH  13  19
ENDBRANCH  12  13
ENDBRANCH   8  12
ENDBRANCH   1   9
BRANCH   1  20
ATOM     20  N3  UNL     1      -1.003  -1.496   0.259  0.00  0.00    +0.000 N 
ATOM     21  C16 UNL     1      -1.414  -0.435  -0.505  0.00  0.00    +0.000 C 
ATOM     22  O2  UNL     1      -0.865  -0.132  -1.561  0.00  0.00    +0.000 OA
ATOM     23  H16 UNL     1      -1.556  -1.781   1.057  0.00  0.00    +0.000 HD
BRANCH  21  24
ATOM     24  C17 UNL     1      -2.588   0.333   0.009  0.00  0.00    +0.000 A 
ATOM     25  C18 UNL     1      -2.699   0.575   1.323  0.00  0.00    +0.000 A 
ATOM     26  C19 UNL     1      -3.842   1.363   1.810  0.00  0.00    +0.000 A 
ATOM     27  O3  UNL     1      -3.984   1.579   3.006  0.00  0.00    +0.000 OA
ATOM     28  O4  UNL     1      -3.461   0.817  -0.953  0.00  0.00    +0.000 OA
ATOM     29  C20 UNL     1      -4.539   1.558  -0.542  0.00  0.00    +0.000 A 
ATOM     30  C21 UNL     1      -4.783   1.859   0.796  0.00  0.00    +0.000 A 
ATOM     31  C22 UNL     1      -5.411   2.018  -1.527  0.00  0.00    +0.000 A 
ATOM     32  C23 UNL     1      -6.527   2.778  -1.168  0.00  0.00    +0.000 A 
ATOM     33  C24 UNL     1      -6.770   3.078   0.174  0.00  0.00    +0.000 A 
ATOM     34  C25 UNL     1      -5.897   2.619   1.162  0.00  0.00    +0.000 A 
ENDBRANCH  21  24
ENDBRANCH   1  20
TORSDOF 7
