REMARK  Name = /home/anacleto/Desktop/manuscript_Mpro/naturecomm/supplementary_file_S2/6-chemical-library/molecular_docking/3D_ligand_structure/3531.pdb
REMARK  7 active torsions:
REMARK  status: ('A' for Active; 'I' for Inactive)
REMARK    1  A    between atoms: C6_6  and  C7_7
REMARK    2  A    between atoms: C7_7  and  C8_8
REMARK    3  A    between atoms: C8_8  and  N1_9
REMARK    4  A    between atoms: C9_10  and  C10_12
REMARK    5  A    between atoms: C10_12  and  N2_13
REMARK    6  A    between atoms: N2_13  and  C11_14
REMARK    7  A    between atoms: C17_20  and  C18_22
REMARK                            x       y       z     vdW  Elec       q    Type
REMARK                         _______ _______ _______ _____ _____    ______ ____
ROOT
ATOM      1  N2  UNL     1      -0.803   0.641  -1.735  0.00  0.00    +0.000 N 
ATOM      2  C17 UNL     1      -1.244  -0.563  -1.187  0.00  0.00    +0.000 C 
ATOM      3  O2  UNL     1      -0.699  -1.643  -1.433  0.00  0.00    +0.000 OA
ENDROOT
BRANCH   2   4
ATOM      4  C18 UNL     1      -2.334  -0.541  -0.165  0.00  0.00    +0.000 A 
ATOM      5  C19 UNL     1      -2.150   0.186   0.946  0.00  0.00    +0.000 A 
ATOM      6  C20 UNL     1      -3.199   0.185   1.975  0.00  0.00    +0.000 A 
ATOM      7  O3  UNL     1      -3.079   0.842   2.999  0.00  0.00    +0.000 OA
ATOM      8  O4  UNL     1      -3.423  -1.360  -0.407  0.00  0.00    +0.000 OA
ATOM      9  C21 UNL     1      -4.435  -1.374   0.520  0.00  0.00    +0.000 A 
ATOM     10  C22 UNL     1      -4.387  -0.640   1.703  0.00  0.00    +0.000 A 
ATOM     11  C23 UNL     1      -5.546  -2.169   0.239  0.00  0.00    +0.000 A 
ATOM     12  C24 UNL     1      -6.608  -2.222   1.145  0.00  0.00    +0.000 A 
ATOM     13  C25 UNL     1      -6.559  -1.484   2.329  0.00  0.00    +0.000 A 
ATOM     14  C26 UNL     1      -5.447  -0.691   2.613  0.00  0.00    +0.000 A 
ENDBRANCH   2   4
BRANCH   1  15
ATOM     15  C11 UNL     1      -1.539   1.867  -1.755  0.00  0.00    +0.000 A 
ATOM     16  C12 UNL     1      -2.935   1.878  -1.889  0.00  0.00    +0.000 A 
ATOM     17  C13 UNL     1      -3.645   3.083  -1.907  0.00  0.00    +0.000 A 
ATOM     18  C14 UNL     1      -2.968   4.294  -1.804  0.00  0.00    +0.000 A 
ATOM     19  C15 UNL     1      -1.581   4.302  -1.692  0.00  0.00    +0.000 A 
ATOM     20  C16 UNL     1      -0.871   3.098  -1.674  0.00  0.00    +0.000 A 
ENDBRANCH   1  15
BRANCH   1  21
ATOM     21  C10 UNL     1       0.463   0.596  -2.480  0.00  0.00    +0.000 C 
BRANCH  21  23
ATOM     22  N1  UNL     1       1.870  -0.535  -0.830  0.00  0.00    +0.000 N 
ATOM     23  C9  UNL     1       1.665   0.632  -1.535  0.00  0.00    +0.000 C 
ATOM     24  O1  UNL     1       2.378   1.626  -1.417  0.00  0.00    +0.000 OA
ATOM     25  H10 UNL     1       1.239  -1.320  -0.993  0.00  0.00    +0.000 HD
BRANCH  22  26
ATOM     26  C8  UNL     1       2.968  -0.696   0.103  0.00  0.00    +0.000 C 
BRANCH  26  27
ATOM     27  C7  UNL     1       4.280  -1.028  -0.609  0.00  0.00    +0.000 C 
BRANCH  27  33
ATOM     28  C1  UNL     1       5.701  -2.506   0.869  0.00  0.00    +0.000 A 
ATOM     29  C2  UNL     1       6.735  -2.685   1.790  0.00  0.00    +0.000 A 
ATOM     30  C3  UNL     1       7.483  -1.591   2.221  0.00  0.00    +0.000 A 
ATOM     31  C4  UNL     1       7.198  -0.317   1.733  0.00  0.00    +0.000 A 
ATOM     32  C5  UNL     1       6.165  -0.136   0.813  0.00  0.00    +0.000 A 
ATOM     33  C6  UNL     1       5.410  -1.230   0.369  0.00  0.00    +0.000 A 
ENDBRANCH  27  33
ENDBRANCH  26  27
ENDBRANCH  22  26
ENDBRANCH  21  23
ENDBRANCH   1  21
TORSDOF 7
