REMARK  Name = /home/anacleto/Desktop/manuscript_Mpro/naturecomm/supplementary_file_S2/6-chemical-library/molecular_docking/3D_ligand_structure/3542.pdb
REMARK  7 active torsions:
REMARK  status: ('A' for Active; 'I' for Inactive)
REMARK    1  A    between atoms: C9_10  and  N2_11
REMARK    2  A    between atoms: C10_12  and  C11_14
REMARK    3  A    between atoms: C11_14  and  C12_15
REMARK    4  A    between atoms: C11_14  and  N3_21
REMARK    5  A    between atoms: C18_22  and  C19_24
REMARK    6  A    between atoms: C19_24  and  N4_25
REMARK    7  A    between atoms: C20_26  and  C21_28
REMARK                            x       y       z     vdW  Elec       q    Type
REMARK                         _______ _______ _______ _____ _____    ______ ____
ROOT
ATOM      1  C11 UNL     1      -0.126  -0.322   1.635  0.00  0.00    +0.000 C 
ENDROOT
BRANCH   1   2
ATOM      2  C12 UNL     1      -0.602  -0.604   3.050  0.00  0.00    +0.000 A 
ATOM      3  C13 UNL     1      -1.516   0.238   3.705  0.00  0.00    +0.000 A 
ATOM      4  C14 UNL     1      -1.931  -0.040   5.009  0.00  0.00    +0.000 A 
ATOM      5  C15 UNL     1      -1.429  -1.153   5.679  0.00  0.00    +0.000 A 
ATOM      6  C16 UNL     1      -0.506  -1.985   5.050  0.00  0.00    +0.000 A 
ATOM      7  C17 UNL     1      -0.091  -1.712   3.746  0.00  0.00    +0.000 A 
ENDBRANCH   1   2
BRANCH   1   9
ATOM      8  N2  UNL     1      -2.012  -0.981   0.207  0.00  0.00    +0.000 N 
ATOM      9  C10 UNL     1      -1.296   0.099   0.701  0.00  0.00    +0.000 C 
ATOM     10  O1  UNL     1      -1.541   1.285   0.485  0.00  0.00    +0.000 OA
ATOM     11  H7  UNL     1      -1.662  -1.893   0.459  0.00  0.00    +0.000 HD
BRANCH   8  21
ATOM     12  C1  UNL     1      -3.204  -3.475  -0.848  0.00  0.00    +0.000 A 
ATOM     13  C2  UNL     1      -3.808  -4.631  -1.357  0.00  0.00    +0.000 A 
ATOM     14  C3  UNL     1      -4.957  -4.533  -2.130  0.00  0.00    +0.000 A 
ATOM     15  C4  UNL     1      -5.499  -3.280  -2.396  0.00  0.00    +0.000 A 
ATOM     16  C5  UNL     1      -4.897  -2.111  -1.894  0.00  0.00    +0.000 A 
ATOM     17  C6  UNL     1      -3.728  -2.177  -1.097  0.00  0.00    +0.000 A 
ATOM     18  C7  UNL     1      -5.437  -0.857  -2.173  0.00  0.00    +0.000 A 
ATOM     19  N1  UNL     1      -4.923   0.311  -1.741  0.00  0.00    +0.000 NA
ATOM     20  C8  UNL     1      -3.806   0.235  -0.980  0.00  0.00    +0.000 A 
ATOM     21  C9  UNL     1      -3.168  -0.953  -0.618  0.00  0.00    +0.000 A 
ENDBRANCH   8  21
ENDBRANCH   1   9
BRANCH   1  22
ATOM     22  N3  UNL     1       0.882   0.727   1.649  0.00  0.00    +0.000 N 
ATOM     23  C18 UNL     1       1.829   0.770   0.651  0.00  0.00    +0.000 C 
ATOM     24  O2  UNL     1       1.987  -0.143  -0.161  0.00  0.00    +0.000 OA
ATOM     25  H14 UNL     1       0.589   1.612   2.046  0.00  0.00    +0.000 HD
BRANCH  23  26
ATOM     26  C19 UNL     1       2.695   2.029   0.658  0.00  0.00    +0.000 C 
BRANCH  26  27
ATOM     27  N4  UNL     1       3.522   2.056  -0.531  0.00  0.00    +0.000 N 
ATOM     28  C20 UNL     1       4.436   3.060  -0.754  0.00  0.00    +0.000 C 
ATOM     29  O3  UNL     1       4.565   3.986   0.051  0.00  0.00    +0.000 OA
ATOM     30  H17 UNL     1       3.437   1.273  -1.171  0.00  0.00    +0.000 HD
BRANCH  28  31
ATOM     31  C21 UNL     1       5.258   2.932  -2.060  0.00  0.00    +0.000 C 
ATOM     32  C22 UNL     1       4.502   2.784  -3.406  0.00  0.00    +0.000 C 
ATOM     33  C23 UNL     1       5.653   1.878  -3.883  0.00  0.00    +0.000 C 
ATOM     34  C24 UNL     1       5.952   1.586  -2.400  0.00  0.00    +0.000 C 
ENDBRANCH  28  31
ENDBRANCH  26  27
ENDBRANCH  23  26
ENDBRANCH   1  22
TORSDOF 7
