REMARK  Name = /home/anacleto/Desktop/manuscript_Mpro/naturecomm/supplementary_file_S2/6-chemical-library/molecular_docking/3D_ligand_structure/3552.pdb
REMARK  6 active torsions:
REMARK  status: ('A' for Active; 'I' for Inactive)
REMARK    1  A    between atoms: C4_6  and  C5_7
REMARK    2  A    between atoms: N3_9  and  C6_10
REMARK    3  A    between atoms: C6_10  and  C7_11
REMARK    4  A    between atoms: C6_10  and  C13_17
REMARK    5  A    between atoms: N4_19  and  C14_20
REMARK    6  A    between atoms: C14_20  and  C15_21
REMARK                            x       y       z     vdW  Elec       q    Type
REMARK                         _______ _______ _______ _____ _____    ______ ____
ROOT
ATOM      1  C6  UNL     1      -2.335  -0.384  -0.075  0.00  0.00    +0.000 C 
ENDROOT
BRANCH   1   2
ATOM      2  C7  UNL     1      -3.208  -1.591   0.341  0.00  0.00    +0.000 C 
ATOM      3  C8  UNL     1      -4.700  -1.354   0.051  0.00  0.00    +0.000 C 
ATOM      4  C9  UNL     1      -5.576  -2.486   0.597  0.00  0.00    +0.000 C 
ATOM      5  C10 UNL     1      -4.871  -3.841   0.644  0.00  0.00    +0.000 C 
ATOM      6  C11 UNL     1      -3.832  -3.966  -0.458  0.00  0.00    +0.000 C 
ATOM      7  C12 UNL     1      -2.744  -2.895  -0.347  0.00  0.00    +0.000 C 
ENDBRANCH   1   2
BRANCH   1  10
ATOM      8  C5  UNL     1      -2.852   2.043  -0.099  0.00  0.00    +0.000 C 
ATOM      9  O1  UNL     1      -2.781   2.150  -1.318  0.00  0.00    +0.000 OA
ATOM     10  N3  UNL     1      -2.784   0.842   0.574  0.00  0.00    +0.000 N 
ATOM     11  H4  UNL     1      -2.649   0.917   1.583  0.00  0.00    +0.000 HD
BRANCH   8  17
ATOM     12  N1  UNL     1      -3.045   3.026   2.125  0.00  0.00    +0.000 NA
ATOM     13  C1  UNL     1      -3.189   4.145   2.872  0.00  0.00    +0.000 A 
ATOM     14  C2  UNL     1      -3.303   5.409   2.312  0.00  0.00    +0.000 A 
ATOM     15  N2  UNL     1      -3.277   5.617   0.975  0.00  0.00    +0.000 NA
ATOM     16  C3  UNL     1      -3.128   4.500   0.216  0.00  0.00    +0.000 A 
ATOM     17  C4  UNL     1      -3.017   3.237   0.777  0.00  0.00    +0.000 A 
ENDBRANCH   8  17
ENDBRANCH   1  10
BRANCH   1  18
ATOM     18  C13 UNL     1      -0.871  -0.589   0.381  0.00  0.00    +0.000 C 
ATOM     19  O2  UNL     1      -0.495  -0.329   1.524  0.00  0.00    +0.000 OA
ATOM     20  N4  UNL     1      -0.042  -1.151  -0.569  0.00  0.00    +0.000 N 
ATOM     21  H17 UNL     1      -0.283  -0.965  -1.538  0.00  0.00    +0.000 HD
BRANCH  20  22
ATOM     22  C14 UNL     1       1.384  -1.270  -0.311  0.00  0.00    +0.000 C 
BRANCH  22  23
ATOM     23  C15 UNL     1       2.127  -0.094  -0.956  0.00  0.00    +0.000 C 
ATOM     24  O3  UNL     1       1.643   0.506  -1.920  0.00  0.00    +0.000 OA
ATOM     25  N5  UNL     1       3.378   0.209  -0.462  0.00  0.00    +0.000 N 
ATOM     26  C16 UNL     1       3.995  -0.349   0.724  0.00  0.00    +0.000 C 
ATOM     27  C17 UNL     1       4.110   1.358  -0.959  0.00  0.00    +0.000 C 
ATOM     28  C18 UNL     1       5.378   1.456  -0.101  0.00  0.00    +0.000 C 
ATOM     29  C19 UNL     1       5.436   0.134   0.680  0.00  0.00    +0.000 C 
ATOM     30  C20 UNL     1       6.667   1.473  -0.910  0.00  0.00    +0.000 C 
ATOM     31  C21 UNL     1       6.863   0.020  -1.315  0.00  0.00    +0.000 C 
ATOM     32  C22 UNL     1       6.391  -0.780  -0.104  0.00  0.00    +0.000 C 
ENDBRANCH  22  23
ENDBRANCH  20  22
ENDBRANCH   1  18
TORSDOF 6
