REMARK  Name = /home/anacleto/Desktop/manuscript_Mpro/naturecomm/supplementary_file_S2/6-chemical-library/molecular_docking/3D_ligand_structure/3554.pdb
REMARK  8 active torsions:
REMARK  status: ('A' for Active; 'I' for Inactive)
REMARK    1  A    between atoms: C4_5  and  C5_7
REMARK    2  A    between atoms: N2_9  and  C6_10
REMARK    3  A    between atoms: C6_10  and  C7_11
REMARK    4  A    between atoms: C6_10  and  C11_17
REMARK    5  A    between atoms: C7_11  and  C8_12
REMARK    6  A    between atoms: N5_19  and  C12_20
REMARK    7  A    between atoms: C12_20  and  C13_21
REMARK    8  A    between atoms: C13_21  and  C14_22
REMARK                            x       y       z     vdW  Elec       q    Type
REMARK                         _______ _______ _______ _____ _____    ______ ____
ROOT
ATOM      1  C6  UNL     1      -1.617  -1.121  -0.242  0.00  0.00    +0.000 C 
ENDROOT
BRANCH   1   4
ATOM      2  C5  UNL     1      -3.693   0.283  -0.100  0.00  0.00    +0.000 C 
ATOM      3  O2  UNL     1      -3.876   0.101   1.099  0.00  0.00    +0.000 OA
ATOM      4  N2  UNL     1      -2.706  -0.337  -0.839  0.00  0.00    +0.000 N 
ATOM      5  H7  UNL     1      -2.489   0.122  -1.718  0.00  0.00    +0.000 HD
BRANCH   2  10
ATOM      6  O1  UNL     1      -4.498   2.409  -4.222  0.00  0.00    +0.000 OA
ATOM      7  C1  UNL     1      -4.397   2.311  -3.013  0.00  0.00    +0.000 C 
ATOM      8  C2  UNL     1      -4.258   3.441  -2.027  0.00  0.00    +0.000 C 
ATOM      9  C3  UNL     1      -3.889   2.727  -0.730  0.00  0.00    +0.000 C 
ATOM     10  C4  UNL     1      -4.489   1.336  -0.884  0.00  0.00    +0.000 C 
ATOM     11  N1  UNL     1      -4.442   1.127  -2.312  0.00  0.00    +0.000 N 
ATOM     12  H6  UNL     1      -4.699   0.266  -2.780  0.00  0.00    +0.000 HD
ENDBRANCH   2  10
ENDBRANCH   1   4
BRANCH   1  13
ATOM     13  C11 UNL     1      -0.564  -0.172   0.376  0.00  0.00    +0.000 C 
ATOM     14  O3  UNL     1      -0.712   1.048   0.431  0.00  0.00    +0.000 OA
ATOM     15  N5  UNL     1       0.595  -0.792   0.800  0.00  0.00    +0.000 N 
ATOM     16  H14 UNL     1       0.747  -1.770   0.580  0.00  0.00    +0.000 HD
BRANCH  15  17
ATOM     17  C12 UNL     1       1.709  -0.038   1.349  0.00  0.00    +0.000 C 
BRANCH  17  18
ATOM     18  C13 UNL     1       2.555   0.632   0.264  0.00  0.00    +0.000 C 
BRANCH  18  19
ATOM     19  C14 UNL     1       3.757   1.318   0.830  0.00  0.00    +0.000 A 
ATOM     20  C15 UNL     1       3.833   2.640   1.223  0.00  0.00    +0.000 A 
ATOM     21  N6  UNL     1       5.096   2.879   1.692  0.00  0.00    +0.000 N 
ATOM     22  C16 UNL     1       5.857   1.736   1.615  0.00  0.00    +0.000 A 
ATOM     23  C17 UNL     1       5.044   0.738   1.076  0.00  0.00    +0.000 A 
ATOM     24  C18 UNL     1       7.191   1.514   1.980  0.00  0.00    +0.000 A 
ATOM     25  C19 UNL     1       7.711   0.231   1.786  0.00  0.00    +0.000 A 
ATOM     26  C20 UNL     1       6.926  -0.787   1.249  0.00  0.00    +0.000 A 
ATOM     27  C21 UNL     1       5.594  -0.548   0.892  0.00  0.00    +0.000 A 
ATOM     28  H20 UNL     1       5.428   3.766   2.045  0.00  0.00    +0.000 HD
ENDBRANCH  18  19
ENDBRANCH  17  18
ENDBRANCH  15  17
ENDBRANCH   1  13
BRANCH   1  29
ATOM     29  C7  UNL     1      -2.047  -2.234   0.725  0.00  0.00    +0.000 C 
BRANCH  29  30
ATOM     30  C8  UNL     1      -2.693  -3.368   0.007  0.00  0.00    +0.000 A 
ATOM     31  C9  UNL     1      -4.022  -3.727  -0.049  0.00  0.00    +0.000 A 
ATOM     32  N3  UNL     1      -4.061  -4.840  -0.840  0.00  0.00    +0.000 N 
ATOM     33  C10 UNL     1      -2.780  -5.111  -1.230  0.00  0.00    +0.000 A 
ATOM     34  N4  UNL     1      -1.930  -4.241  -0.736  0.00  0.00    +0.000 NA
ATOM     35  H12 UNL     1      -4.883  -5.373  -1.090  0.00  0.00    +0.000 HD
ENDBRANCH  29  30
ENDBRANCH   1  29
TORSDOF 8
