REMARK  Name = /home/anacleto/Desktop/manuscript_Mpro/naturecomm/supplementary_file_S2/6-chemical-library/molecular_docking/3D_ligand_structure/3562.pdb
REMARK  7 active torsions:
REMARK  status: ('A' for Active; 'I' for Inactive)
REMARK    1  A    between atoms: C6_6  and  C7_7
REMARK    2  A    between atoms: C7_7  and  C8_8
REMARK    3  A    between atoms: C8_8  and  N1_9
REMARK    4  A    between atoms: C9_10  and  C10_12
REMARK    5  A    between atoms: C10_12  and  C11_13
REMARK    6  A    between atoms: C10_12  and  N3_19
REMARK    7  A    between atoms: N3_19  and  C16_20
REMARK                            x       y       z     vdW  Elec       q    Type
REMARK                         _______ _______ _______ _____ _____    ______ ____
ROOT
ATOM      1  C10 UNL     1      -0.401  -0.454   0.094  0.00  0.00    +0.000 C 
ENDROOT
BRANCH   1   2
ATOM      2  C11 UNL     1      -0.222  -1.648   1.006  0.00  0.00    +0.000 A 
ATOM      3  C12 UNL     1      -0.128  -2.949   0.496  0.00  0.00    +0.000 A 
ATOM      4  C13 UNL     1       0.088  -4.019   1.360  0.00  0.00    +0.000 A 
ATOM      5  C14 UNL     1       0.218  -3.753   2.712  0.00  0.00    +0.000 A 
ATOM      6  N2  UNL     1       0.144  -2.514   3.241  0.00  0.00    +0.000 NA
ATOM      7  C15 UNL     1      -0.087  -1.493   2.383  0.00  0.00    +0.000 A 
ENDBRANCH   1   2
BRANCH   1   9
ATOM      8  N1  UNL     1       2.082  -0.302  -0.218  0.00  0.00    +0.000 N 
ATOM      9  C9  UNL     1       0.907   0.400  -0.004  0.00  0.00    +0.000 C 
ATOM     10  O1  UNL     1       0.873   1.632   0.049  0.00  0.00    +0.000 OA
ATOM     11  H10 UNL     1       2.093  -1.271   0.077  0.00  0.00    +0.000 HD
BRANCH   8  12
ATOM     12  C8  UNL     1       3.358   0.395  -0.205  0.00  0.00    +0.000 C 
BRANCH  12  13
ATOM     13  C7  UNL     1       4.474  -0.465  -0.797  0.00  0.00    +0.000 C 
BRANCH  13  19
ATOM     14  C1  UNL     1       6.195   1.079  -1.810  0.00  0.00    +0.000 A 
ATOM     15  C2  UNL     1       7.421   1.744  -1.767  0.00  0.00    +0.000 A 
ATOM     16  C3  UNL     1       8.268   1.576  -0.673  0.00  0.00    +0.000 A 
ATOM     17  C4  UNL     1       7.889   0.745   0.379  0.00  0.00    +0.000 A 
ATOM     18  C5  UNL     1       6.663   0.079   0.338  0.00  0.00    +0.000 A 
ATOM     19  C6  UNL     1       5.807   0.236  -0.760  0.00  0.00    +0.000 A 
ENDBRANCH  13  19
ENDBRANCH  12  13
ENDBRANCH   8  12
ENDBRANCH   1   9
BRANCH   1  20
ATOM     20  N3  UNL     1      -1.487   0.418   0.588  0.00  0.00    +0.000 N 
ATOM     21  H16 UNL     1      -1.173   1.394   0.554  0.00  0.00    +0.000 HD
BRANCH  20  22
ATOM     22  C16 UNL     1      -2.789   0.285   0.098  0.00  0.00    +0.000 A 
ATOM     23  C17 UNL     1      -3.644   1.396   0.170  0.00  0.00    +0.000 A 
ATOM     24  C18 UNL     1      -3.340  -0.932  -0.318  0.00  0.00    +0.000 A 
ATOM     25  C19 UNL     1      -4.676  -1.025  -0.725  0.00  0.00    +0.000 A 
ATOM     26  C20 UNL     1      -5.485   0.106  -0.705  0.00  0.00    +0.000 A 
ATOM     27  C21 UNL     1      -4.980   1.323  -0.249  0.00  0.00    +0.000 A 
ATOM     28  N4  UNL     1      -6.820   0.015  -1.104  0.00  0.00    +0.000 N 
ATOM     29  C22 UNL     1      -7.650   1.094  -1.255  0.00  0.00    +0.000 C 
ATOM     30  O2  UNL     1      -8.833   0.944  -1.555  0.00  0.00    +0.000 OA
ATOM     31  C23 UNL     1      -7.009   2.458  -1.151  0.00  0.00    +0.000 C 
ATOM     32  C24 UNL     1      -5.909   2.494  -0.102  0.00  0.00    +0.000 C 
ATOM     33  H20 UNL     1      -7.233  -0.888  -1.299  0.00  0.00    +0.000 HD
ENDBRANCH  20  22
ENDBRANCH   1  20
TORSDOF 7
