REMARK  Name = /home/anacleto/Desktop/manuscript_Mpro/naturecomm/supplementary_file_S2/6-chemical-library/molecular_docking/3D_ligand_structure/3570.pdb
REMARK  7 active torsions:
REMARK  status: ('A' for Active; 'I' for Inactive)
REMARK    1  A    between atoms: C6_6  and  C7_7
REMARK    2  A    between atoms: C7_7  and  C8_8
REMARK    3  A    between atoms: C8_8  and  N1_9
REMARK    4  A    between atoms: C9_10  and  C10_12
REMARK    5  A    between atoms: C10_12  and  N2_13
REMARK    6  A    between atoms: C10_12  and  C17_20
REMARK    7  A    between atoms: N2_13  and  C11_14
REMARK                            x       y       z     vdW  Elec       q    Type
REMARK                         _______ _______ _______ _____ _____    ______ ____
ROOT
ATOM      1  C10 UNL     1      -0.597   0.054  -0.976  0.00  0.00    +0.000 C 
ENDROOT
BRANCH   1   2
ATOM      2  C17 UNL     1      -1.305   0.857   0.105  0.00  0.00    +0.000 A 
ATOM      3  C18 UNL     1      -0.929   0.837   1.401  0.00  0.00    +0.000 A 
ATOM      4  C19 UNL     1      -1.633   1.580   2.465  0.00  0.00    +0.000 A 
ATOM      5  O2  UNL     1      -1.233   1.549   3.623  0.00  0.00    +0.000 OA
ATOM      6  N3  UNL     1      -2.735   2.285   2.088  0.00  0.00    +0.000 N 
ATOM      7  C20 UNL     1      -3.183   2.366   0.766  0.00  0.00    +0.000 A 
ATOM      8  C21 UNL     1      -2.491   1.686  -0.255  0.00  0.00    +0.000 A 
ATOM      9  C22 UNL     1      -4.313   3.144   0.494  0.00  0.00    +0.000 A 
ATOM     10  C23 UNL     1      -4.770   3.266  -0.814  0.00  0.00    +0.000 A 
ATOM     11  C24 UNL     1      -4.094   2.619  -1.844  0.00  0.00    +0.000 A 
ATOM     12  C25 UNL     1      -2.965   1.839  -1.568  0.00  0.00    +0.000 A 
ATOM     13  H19 UNL     1      -3.212   2.786   2.824  0.00  0.00    +0.000 HD
ENDBRANCH   1   2
BRANCH   1  15
ATOM     14  N1  UNL     1       1.519   0.203  -2.217  0.00  0.00    +0.000 N 
ATOM     15  C9  UNL     1       0.455   0.942  -1.725  0.00  0.00    +0.000 C 
ATOM     16  O1  UNL     1       0.361   2.156  -1.889  0.00  0.00    +0.000 OA
ATOM     17  H10 UNL     1       1.548  -0.759  -1.881  0.00  0.00    +0.000 HD
BRANCH  14  18
ATOM     18  C8  UNL     1       2.765   0.827  -2.613  0.00  0.00    +0.000 C 
BRANCH  18  19
ATOM     19  C7  UNL     1       3.523   1.462  -1.436  0.00  0.00    +0.000 C 
BRANCH  19  25
ATOM     20  C1  UNL     1       4.345  -0.655  -0.303  0.00  0.00    +0.000 A 
ATOM     21  C2  UNL     1       4.415  -1.498   0.808  0.00  0.00    +0.000 A 
ATOM     22  C3  UNL     1       3.795  -1.136   2.003  0.00  0.00    +0.000 A 
ATOM     23  C4  UNL     1       3.107   0.072   2.090  0.00  0.00    +0.000 A 
ATOM     24  C5  UNL     1       3.034   0.915   0.981  0.00  0.00    +0.000 A 
ATOM     25  C6  UNL     1       3.645   0.556  -0.230  0.00  0.00    +0.000 A 
ENDBRANCH  19  25
ENDBRANCH  18  19
ENDBRANCH  14  18
ENDBRANCH   1  15
BRANCH   1  26
ATOM     26  N2  UNL     1       0.117  -1.128  -0.421  0.00  0.00    +0.000 N 
ATOM     27  H12 UNL     1       0.914  -0.868   0.161  0.00  0.00    +0.000 HD
BRANCH  26  28
ATOM     28  C11 UNL     1      -0.549  -2.256   0.054  0.00  0.00    +0.000 A 
ATOM     29  C12 UNL     1      -1.881  -2.563  -0.241  0.00  0.00    +0.000 A 
ATOM     30  C13 UNL     1      -2.470  -3.747   0.217  0.00  0.00    +0.000 A 
ATOM     31  C14 UNL     1      -1.725  -4.660   0.957  0.00  0.00    +0.000 A 
ATOM     32  C15 UNL     1      -0.388  -4.392   1.231  0.00  0.00    +0.000 A 
ATOM     33  C16 UNL     1       0.193  -3.206   0.772  0.00  0.00    +0.000 A 
ENDBRANCH  26  28
ENDBRANCH   1  26
TORSDOF 7
