REMARK  Name = /home/anacleto/Desktop/manuscript_Mpro/naturecomm/supplementary_file_S2/6-chemical-library/molecular_docking/3D_ligand_structure/3573.pdb
REMARK  7 active torsions:
REMARK  status: ('A' for Active; 'I' for Inactive)
REMARK    1  A    between atoms: C6_8  and  N2_10
REMARK    2  A    between atoms: N2_10  and  C12_18
REMARK    3  A    between atoms: C8_11  and  C9_13
REMARK    4  A    between atoms: C12_18  and  C13_19
REMARK    5  A    between atoms: N4_21  and  C14_22
REMARK    6  A    between atoms: C14_22  and  C15_23
REMARK    7  A    between atoms: C15_23  and  C16_24
REMARK                            x       y       z     vdW  Elec       q    Type
REMARK                         _______ _______ _______ _____ _____    ______ ____
ROOT
ATOM      1  N2  UNL     1      -2.357   0.634  -0.070  0.00  0.00    +0.000 N 
ATOM      2  C8  UNL     1      -2.927   1.909   0.177  0.00  0.00    +0.000 C 
ATOM      3  O1  UNL     1      -4.090   2.054   0.560  0.00  0.00    +0.000 OA
ENDROOT
BRANCH   1  11
ATOM      4  N1  UNL     1      -2.780  -4.180   1.100  0.00  0.00    +0.000 NA
ATOM      5  C1  UNL     1      -3.755  -5.060   1.132  0.00  0.00    +0.000 A 
ATOM      6  S1  UNL     1      -5.303  -4.500   0.664  0.00  0.00    +0.000 S 
ATOM      7  C2  UNL     1      -4.643  -2.932   0.395  0.00  0.00    +0.000 A 
ATOM      8  C3  UNL     1      -3.279  -2.955   0.684  0.00  0.00    +0.000 A 
ATOM      9  C4  UNL     1      -5.280  -1.763  -0.037  0.00  0.00    +0.000 A 
ATOM     10  C5  UNL     1      -4.508  -0.600  -0.178  0.00  0.00    +0.000 A 
ATOM     11  C6  UNL     1      -3.136  -0.571   0.103  0.00  0.00    +0.000 A 
ATOM     12  C7  UNL     1      -2.531  -1.766   0.535  0.00  0.00    +0.000 A 
ENDBRANCH   1  11
BRANCH   2  13
ATOM     13  C9  UNL     1      -2.114   3.127   0.013  0.00  0.00    +0.000 A 
ATOM     14  C10 UNL     1      -2.535   4.383   0.406  0.00  0.00    +0.000 A 
ATOM     15  O2  UNL     1      -1.561   5.287   0.115  0.00  0.00    +0.000 OA
ATOM     16  C11 UNL     1      -0.583   4.533  -0.449  0.00  0.00    +0.000 A 
ATOM     17  N3  UNL     1      -0.853   3.251  -0.550  0.00  0.00    +0.000 NA
ENDBRANCH   2  13
BRANCH   1  18
ATOM     18  C12 UNL     1      -0.938   0.469  -0.425  0.00  0.00    +0.000 C 
BRANCH  18  19
ATOM     19  C13 UNL     1       0.007   0.653   0.769  0.00  0.00    +0.000 C 
ATOM     20  O3  UNL     1      -0.377   0.815   1.924  0.00  0.00    +0.000 OA
ATOM     21  N4  UNL     1       1.345   0.594   0.424  0.00  0.00    +0.000 N 
ATOM     22  H9  UNL     1       1.585   0.200  -0.479  0.00  0.00    +0.000 HD
BRANCH  21  23
ATOM     23  C14 UNL     1       2.378   0.581   1.445  0.00  0.00    +0.000 C 
BRANCH  23  24
ATOM     24  C15 UNL     1       3.748   0.996   0.903  0.00  0.00    +0.000 C 
BRANCH  24  25
ATOM     25  C16 UNL     1       4.263   0.080  -0.183  0.00  0.00    +0.000 A 
ATOM     26  C17 UNL     1       4.322   0.518  -1.513  0.00  0.00    +0.000 A 
ATOM     27  C18 UNL     1       4.779  -0.335  -2.519  0.00  0.00    +0.000 A 
ATOM     28  C19 UNL     1       5.182  -1.632  -2.206  0.00  0.00    +0.000 A 
ATOM     29  C20 UNL     1       5.131  -2.076  -0.886  0.00  0.00    +0.000 A 
ATOM     30  C21 UNL     1       4.675  -1.225   0.122  0.00  0.00    +0.000 A 
ENDBRANCH  24  25
ENDBRANCH  23  24
ENDBRANCH  21  23
ENDBRANCH  18  19
ENDBRANCH   1  18
TORSDOF 7
