REMARK  Name = /home/anacleto/Desktop/manuscript_Mpro/naturecomm/supplementary_file_S2/6-chemical-library/molecular_docking/3D_ligand_structure/359.pdb
REMARK  0 active torsions:
REMARK  status: ('A' for Active; 'I' for Inactive)
REMARK                            x       y       z     vdW  Elec       q    Type
REMARK                         _______ _______ _______ _____ _____    ______ ____
ROOT
ATOM      1  S1  UNL     1       1.672  -1.358   0.788  0.00  0.00    +0.000 S 
ATOM      2  C1  UNL     1       2.209   0.111  -0.065  0.00  0.00    +0.000 A 
ATOM      3  N1  UNL     1       1.299   0.917  -0.533  0.00  0.00    +0.000 NA
ATOM      4  N2  UNL     1       0.115   0.352  -0.204  0.00  0.00    +0.000 N 
ATOM      5  C2  UNL     1       0.078  -0.820   0.476  0.00  0.00    +0.000 A 
ATOM      6  C3  UNL     1      -1.172   0.730  -0.424  0.00  0.00    +0.000 A 
ATOM      7  C4  UNL     1      -1.925  -0.276   0.161  0.00  0.00    +0.000 A 
ATOM      8  N3  UNL     1      -1.125  -1.253   0.728  0.00  0.00    +0.000 NA
ENDROOT
TORSDOF 0
