REMARK  Name = /home/anacleto/Desktop/manuscript_Mpro/naturecomm/supplementary_file_S2/6-chemical-library/molecular_docking/3D_ligand_structure/3603.pdb
REMARK  7 active torsions:
REMARK  status: ('A' for Active; 'I' for Inactive)
REMARK    1  A    between atoms: C6_6  and  C7_7
REMARK    2  A    between atoms: C7_7  and  C8_8
REMARK    3  A    between atoms: C8_8  and  N1_9
REMARK    4  A    between atoms: C9_10  and  C10_12
REMARK    5  A    between atoms: C10_12  and  N2_13
REMARK    6  A    between atoms: N2_13  and  C15_21
REMARK    7  A    between atoms: C11_14  and  C12_16
REMARK                            x       y       z     vdW  Elec       q    Type
REMARK                         _______ _______ _______ _____ _____    ______ ____
ROOT
ATOM      1  N2  UNL     1      -1.662   0.875  -0.343  0.00  0.00    +0.000 N 
ATOM      2  C11 UNL     1      -1.892   2.132   0.250  0.00  0.00    +0.000 C 
ATOM      3  O2  UNL     1      -2.804   2.879  -0.101  0.00  0.00    +0.000 OA
ENDROOT
BRANCH   1   4
ATOM      4  C15 UNL     1      -2.741   0.110  -0.937  0.00  0.00    +0.000 A 
ATOM      5  C16 UNL     1      -2.489  -0.993  -1.779  0.00  0.00    +0.000 A 
ATOM      6  C17 UNL     1      -4.082   0.407  -0.651  0.00  0.00    +0.000 A 
ATOM      7  C18 UNL     1      -5.158  -0.302  -1.211  0.00  0.00    +0.000 A 
ATOM      8  C19 UNL     1      -4.858  -1.354  -2.073  0.00  0.00    +0.000 A 
ATOM      9  C20 UNL     1      -3.549  -1.726  -2.360  0.00  0.00    +0.000 A 
ATOM     10  N5  UNL     1      -5.687  -2.210  -2.760  0.00  0.00    +0.000 N 
ATOM     11  C21 UNL     1      -4.945  -3.121  -3.465  0.00  0.00    +0.000 A 
ATOM     12  C22 UNL     1      -3.614  -2.847  -3.234  0.00  0.00    +0.000 A 
ATOM     13  H19 UNL     1      -6.698  -2.170  -2.739  0.00  0.00    +0.000 HD
ENDBRANCH   1   4
BRANCH   2  14
ATOM     14  C12 UNL     1      -0.974   2.601   1.265  0.00  0.00    +0.000 A 
ATOM     15  C13 UNL     1      -0.204   1.969   2.221  0.00  0.00    +0.000 A 
ATOM     16  N3  UNL     1       0.529   2.874   2.950  0.00  0.00    +0.000 NA
ATOM     17  C14 UNL     1       0.146   4.053   2.518  0.00  0.00    +0.000 A 
ATOM     18  N4  UNL     1      -0.779   3.940   1.524  0.00  0.00    +0.000 N 
ATOM     19  H15 UNL     1      -1.256   4.696   1.047  0.00  0.00    +0.000 HD
ENDBRANCH   2  14
BRANCH   1  20
ATOM     20  C10 UNL     1      -0.278   0.453  -0.599  0.00  0.00    +0.000 C 
BRANCH  20  22
ATOM     21  N1  UNL     1       1.400  -1.263  -0.195  0.00  0.00    +0.000 N 
ATOM     22  C9  UNL     1       0.177  -0.764   0.213  0.00  0.00    +0.000 C 
ATOM     23  O1  UNL     1      -0.452  -1.234   1.155  0.00  0.00    +0.000 OA
ATOM     24  H10 UNL     1       1.979  -0.684  -0.793  0.00  0.00    +0.000 HD
BRANCH  21  25
ATOM     25  C8  UNL     1       2.098  -2.265   0.595  0.00  0.00    +0.000 C 
BRANCH  25  26
ATOM     26  C7  UNL     1       2.848  -1.654   1.786  0.00  0.00    +0.000 C 
BRANCH  26  32
ATOM     27  C1  UNL     1       3.670   0.725   1.558  0.00  0.00    +0.000 A 
ATOM     28  C2  UNL     1       4.608   1.661   1.123  0.00  0.00    +0.000 A 
ATOM     29  C3  UNL     1       5.772   1.240   0.485  0.00  0.00    +0.000 A 
ATOM     30  C4  UNL     1       6.003  -0.120   0.286  0.00  0.00    +0.000 A 
ATOM     31  C5  UNL     1       5.065  -1.058   0.719  0.00  0.00    +0.000 A 
ATOM     32  C6  UNL     1       3.887  -0.644   1.354  0.00  0.00    +0.000 A 
ENDBRANCH  26  32
ENDBRANCH  25  26
ENDBRANCH  21  25
ENDBRANCH  20  22
ENDBRANCH   1  20
TORSDOF 7
