REMARK  Name = /home/anacleto/Desktop/manuscript_Mpro/naturecomm/supplementary_file_S2/6-chemical-library/molecular_docking/3D_ligand_structure/3604.pdb
REMARK  6 active torsions:
REMARK  status: ('A' for Active; 'I' for Inactive)
REMARK    1  A    between atoms: N4_5  and  C2_6
REMARK    2  A    between atoms: C2_6  and  C3_7
REMARK    3  A    between atoms: N5_9  and  C4_10
REMARK    4  A    between atoms: C4_10  and  C5_11
REMARK    5  A    between atoms: C4_10  and  C11_17
REMARK    6  A    between atoms: N6_19  and  C12_20
REMARK                            x       y       z     vdW  Elec       q    Type
REMARK                         _______ _______ _______ _____ _____    ______ ____
ROOT
ATOM      1  C4  UNL     1       1.027   0.864   0.415  0.00  0.00    +0.000 C 
ENDROOT
BRANCH   1   2
ATOM      2  C5  UNL     1       1.159  -0.577   0.878  0.00  0.00    +0.000 A 
ATOM      3  C6  UNL     1       1.238  -1.638  -0.039  0.00  0.00    +0.000 A 
ATOM      4  C7  UNL     1       1.360  -2.955   0.409  0.00  0.00    +0.000 A 
ATOM      5  C8  UNL     1       1.420  -3.226   1.774  0.00  0.00    +0.000 A 
ATOM      6  C9  UNL     1       1.366  -2.181   2.694  0.00  0.00    +0.000 A 
ATOM      7  C10 UNL     1       1.241  -0.864   2.250  0.00  0.00    +0.000 A 
ENDBRANCH   1   2
BRANCH   1  10
ATOM      8  C3  UNL     1       3.253   1.892   0.771  0.00  0.00    +0.000 C 
ATOM      9  O1  UNL     1       3.028   2.116   1.959  0.00  0.00    +0.000 OA
ATOM     10  N5  UNL     1       2.308   1.352  -0.069  0.00  0.00    +0.000 N 
ATOM     11  H4  UNL     1       2.560   1.104  -1.024  0.00  0.00    +0.000 HD
BRANCH   8  12
ATOM     12  C2  UNL     1       4.559   2.268   0.120  0.00  0.00    +0.000 C 
BRANCH  12  17
ATOM     13  N1  UNL     1       6.320   0.577   0.154  0.00  0.00    +0.000 NA
ATOM     14  N2  UNL     1       6.665  -0.426  -0.641  0.00  0.00    +0.000 NA
ATOM     15  C1  UNL     1       5.760  -0.436  -1.660  0.00  0.00    +0.000 A 
ATOM     16  N3  UNL     1       4.830   0.522  -1.570  0.00  0.00    +0.000 NA
ATOM     17  N4  UNL     1       5.221   1.104  -0.412  0.00  0.00    +0.000 N 
ENDBRANCH  12  17
ENDBRANCH   8  12
ENDBRANCH   1  10
BRANCH   1  18
ATOM     18  C11 UNL     1      -0.054   1.031  -0.688  0.00  0.00    +0.000 C 
ATOM     19  O2  UNL     1       0.238   1.416  -1.819  0.00  0.00    +0.000 OA
ATOM     20  N6  UNL     1      -1.329   0.695  -0.251  0.00  0.00    +0.000 N 
ATOM     21  H11 UNL     1      -1.382   0.294   0.675  0.00  0.00    +0.000 HD
BRANCH  20  22
ATOM     22  C12 UNL     1      -2.543   0.762  -0.985  0.00  0.00    +0.000 A 
ATOM     23  C13 UNL     1      -2.620   1.326  -2.261  0.00  0.00    +0.000 A 
ATOM     24  N7  UNL     1      -3.755   1.428  -2.992  0.00  0.00    +0.000 NA
ATOM     25  C14 UNL     1      -4.878   0.944  -2.428  0.00  0.00    +0.000 A 
ATOM     26  C15 UNL     1      -4.942   0.357  -1.166  0.00  0.00    +0.000 A 
ATOM     27  C16 UNL     1      -3.748   0.254  -0.411  0.00  0.00    +0.000 A 
ATOM     28  C17 UNL     1      -6.163  -0.123  -0.659  0.00  0.00    +0.000 A 
ATOM     29  C18 UNL     1      -6.229  -0.714   0.599  0.00  0.00    +0.000 A 
ATOM     30  C19 UNL     1      -5.076  -0.833   1.361  0.00  0.00    +0.000 A 
ATOM     31  C20 UNL     1      -3.856  -0.360   0.866  0.00  0.00    +0.000 A 
ENDBRANCH  20  22
ENDBRANCH   1  18
TORSDOF 6
