REMARK  Name = /home/anacleto/Desktop/manuscript_Mpro/naturecomm/supplementary_file_S2/6-chemical-library/molecular_docking/3D_ligand_structure/3612.pdb
REMARK  7 active torsions:
REMARK  status: ('A' for Active; 'I' for Inactive)
REMARK    1  A    between atoms: C7_7  and  N1_9
REMARK    2  A    between atoms: N1_9  and  C13_17
REMARK    3  A    between atoms: C9_10  and  C10_12
REMARK    4  A    between atoms: C13_17  and  C14_18
REMARK    5  A    between atoms: N3_20  and  C15_21
REMARK    6  A    between atoms: C15_21  and  C16_22
REMARK    7  A    between atoms: C16_22  and  C17_23
REMARK                            x       y       z     vdW  Elec       q    Type
REMARK                         _______ _______ _______ _____ _____    ______ ____
ROOT
ATOM      1  N1  UNL     1      -1.508   1.173   0.706  0.00  0.00    +0.000 N 
ATOM      2  C9  UNL     1      -2.011   1.747  -0.469  0.00  0.00    +0.000 C 
ATOM      3  O1  UNL     1      -3.007   1.312  -1.043  0.00  0.00    +0.000 OA
ENDROOT
BRANCH   1  10
ATOM      4  C1  UNL     1      -5.136  -2.062   1.187  0.00  0.00    +0.000 C 
ATOM      5  C2  UNL     1      -4.917  -2.424  -0.276  0.00  0.00    +0.000 C 
ATOM      6  C3  UNL     1      -3.580  -3.152  -0.260  0.00  0.00    +0.000 C 
ATOM      7  C4  UNL     1      -2.740  -2.383   0.758  0.00  0.00    +0.000 C 
ATOM      8  C5  UNL     1      -3.748  -1.681   1.698  0.00  0.00    +0.000 C 
ATOM      9  C6  UNL     1      -1.885  -1.269   0.144  0.00  0.00    +0.000 C 
ATOM     10  C7  UNL     1      -1.981  -0.135   1.166  0.00  0.00    +0.000 C 
ATOM     11  C8  UNL     1      -3.442  -0.182   1.609  0.00  0.00    +0.000 C 
ENDBRANCH   1  10
BRANCH   2  12
ATOM     12  C10 UNL     1      -1.284   2.875  -1.052  0.00  0.00    +0.000 A 
ATOM     13  C11 UNL     1      -1.798   3.762  -1.973  0.00  0.00    +0.000 A 
ATOM     14  O2  UNL     1      -0.819   4.643  -2.317  0.00  0.00    +0.000 OA
ATOM     15  C12 UNL     1       0.260   4.229  -1.600  0.00  0.00    +0.000 A 
ATOM     16  N2  UNL     1       0.055   3.174  -0.842  0.00  0.00    +0.000 NA
ENDBRANCH   2  12
BRANCH   1  17
ATOM     17  C13 UNL     1      -0.682   1.921   1.673  0.00  0.00    +0.000 C 
BRANCH  17  18
ATOM     18  C14 UNL     1       0.778   1.451   1.755  0.00  0.00    +0.000 C 
ATOM     19  O3  UNL     1       1.442   1.582   2.781  0.00  0.00    +0.000 OA
ATOM     20  N3  UNL     1       1.301   0.974   0.570  0.00  0.00    +0.000 N 
ATOM     21  H18 UNL     1       0.837   1.351  -0.253  0.00  0.00    +0.000 HD
BRANCH  20  22
ATOM     22  C15 UNL     1       2.715   0.679   0.453  0.00  0.00    +0.000 C 
BRANCH  22  23
ATOM     23  C16 UNL     1       3.008  -0.154  -0.794  0.00  0.00    +0.000 C 
BRANCH  23  24
ATOM     24  C17 UNL     1       4.479  -0.450  -0.944  0.00  0.00    +0.000 A 
ATOM     25  C18 UNL     1       5.291   0.366  -1.743  0.00  0.00    +0.000 A 
ATOM     26  C19 UNL     1       6.656   0.099  -1.865  0.00  0.00    +0.000 A 
ATOM     27  C20 UNL     1       7.221  -0.981  -1.189  0.00  0.00    +0.000 A 
ATOM     28  C21 UNL     1       6.422  -1.795  -0.388  0.00  0.00    +0.000 A 
ATOM     29  C22 UNL     1       5.057  -1.530  -0.264  0.00  0.00    +0.000 A 
ENDBRANCH  23  24
ENDBRANCH  22  23
ENDBRANCH  20  22
ENDBRANCH  17  18
ENDBRANCH   1  17
TORSDOF 7
