REMARK  Name = /home/anacleto/Desktop/manuscript_Mpro/naturecomm/supplementary_file_S2/6-chemical-library/molecular_docking/3D_ligand_structure/3614.pdb
REMARK  7 active torsions:
REMARK  status: ('A' for Active; 'I' for Inactive)
REMARK    1  A    between atoms: C6_6  and  C7_7
REMARK    2  A    between atoms: C7_7  and  C8_8
REMARK    3  A    between atoms: C8_8  and  N1_9
REMARK    4  A    between atoms: C9_10  and  C10_12
REMARK    5  A    between atoms: C10_12  and  C11_13
REMARK    6  A    between atoms: C10_12  and  N3_19
REMARK    7  A    between atoms: N3_19  and  C16_20
REMARK                            x       y       z     vdW  Elec       q    Type
REMARK                         _______ _______ _______ _____ _____    ______ ____
ROOT
ATOM      1  C10 UNL     1      -0.139   1.549  -1.185  0.00  0.00    +0.000 C 
ENDROOT
BRANCH   1   2
ATOM      2  C11 UNL     1      -0.643   2.746  -1.966  0.00  0.00    +0.000 A 
ATOM      3  C12 UNL     1      -1.394   2.617  -3.139  0.00  0.00    +0.000 A 
ATOM      4  C13 UNL     1      -1.814   3.753  -3.826  0.00  0.00    +0.000 A 
ATOM      5  C14 UNL     1      -1.466   4.990  -3.318  0.00  0.00    +0.000 A 
ATOM      6  N2  UNL     1      -0.739   5.161  -2.193  0.00  0.00    +0.000 NA
ATOM      7  C15 UNL     1      -0.341   4.039  -1.551  0.00  0.00    +0.000 A 
ENDBRANCH   1   2
BRANCH   1   9
ATOM      8  N1  UNL     1       2.242   0.889  -1.243  0.00  0.00    +0.000 N 
ATOM      9  C9  UNL     1       1.044   0.871  -1.942  0.00  0.00    +0.000 C 
ATOM     10  O1  UNL     1       0.947   0.362  -3.058  0.00  0.00    +0.000 OA
ATOM     11  H10 UNL     1       2.228   1.097  -0.253  0.00  0.00    +0.000 HD
BRANCH   8  12
ATOM     12  C8  UNL     1       3.429   0.234  -1.766  0.00  0.00    +0.000 C 
BRANCH  12  13
ATOM     13  C7  UNL     1       3.480  -1.263  -1.427  0.00  0.00    +0.000 C 
BRANCH  13  19
ATOM     14  C1  UNL     1       4.577  -1.062   0.857  0.00  0.00    +0.000 A 
ATOM     15  C2  UNL     1       4.609  -1.326   2.230  0.00  0.00    +0.000 A 
ATOM     16  C3  UNL     1       3.598  -2.084   2.820  0.00  0.00    +0.000 A 
ATOM     17  C4  UNL     1       2.560  -2.590   2.037  0.00  0.00    +0.000 A 
ATOM     18  C5  UNL     1       2.529  -2.329   0.664  0.00  0.00    +0.000 A 
ATOM     19  C6  UNL     1       3.528  -1.548   0.061  0.00  0.00    +0.000 A 
ENDBRANCH  13  19
ENDBRANCH  12  13
ENDBRANCH   8  12
ENDBRANCH   1   9
BRANCH   1  20
ATOM     20  N3  UNL     1      -1.229   0.575  -0.940  0.00  0.00    +0.000 NA
ATOM     21  H16 UNL     1      -2.064   1.080  -0.648  0.00  0.00    +0.000 HD
BRANCH  20  22
ATOM     22  C16 UNL     1      -0.894  -0.466   0.036  0.00  0.00    +0.000 C 
ATOM     23  C17 UNL     1      -1.002   0.011   1.503  0.00  0.00    +0.000 C 
ATOM     24  C18 UNL     1      -1.765  -1.698  -0.264  0.00  0.00    +0.000 C 
ATOM     25  C19 UNL     1      -1.820  -2.641   0.935  0.00  0.00    +0.000 C 
ATOM     26  C20 UNL     1      -2.510  -1.976   2.125  0.00  0.00    +0.000 C 
ATOM     27  C21 UNL     1      -2.230  -0.476   2.268  0.00  0.00    +0.000 C 
ATOM     28  O2  UNL     1      -3.935  -2.122   1.986  0.00  0.00    +0.000 OA
ATOM     29  C22 UNL     1      -4.549  -0.864   2.282  0.00  0.00    +0.000 C 
ATOM     30  C23 UNL     1      -3.539   0.178   1.866  0.00  0.00    +0.000 C 
ENDBRANCH  20  22
ENDBRANCH   1  20
TORSDOF 7
