REMARK  Name = /home/anacleto/Desktop/manuscript_Mpro/naturecomm/supplementary_file_S2/6-chemical-library/molecular_docking/3D_ligand_structure/3636.pdb
REMARK  7 active torsions:
REMARK  status: ('A' for Active; 'I' for Inactive)
REMARK    1  A    between atoms: C6_6  and  C7_7
REMARK    2  A    between atoms: C7_7  and  C8_8
REMARK    3  A    between atoms: C8_8  and  N1_9
REMARK    4  A    between atoms: C9_10  and  C10_12
REMARK    5  A    between atoms: C10_12  and  C11_13
REMARK    6  A    between atoms: C10_12  and  N3_19
REMARK    7  A    between atoms: N3_19  and  C16_20
REMARK                            x       y       z     vdW  Elec       q    Type
REMARK                         _______ _______ _______ _____ _____    ______ ____
ROOT
ATOM      1  C10 UNL     1      -0.778   0.427  -0.778  0.00  0.00    +0.000 C 
ENDROOT
BRANCH   1   2
ATOM      2  C11 UNL     1      -0.303   1.814  -0.402  0.00  0.00    +0.000 A 
ATOM      3  C12 UNL     1      -0.321   2.250   0.927  0.00  0.00    +0.000 A 
ATOM      4  C13 UNL     1       0.134   3.522   1.243  0.00  0.00    +0.000 A 
ATOM      5  C14 UNL     1       0.601   4.323   0.219  0.00  0.00    +0.000 A 
ATOM      6  N2  UNL     1       0.634   3.944  -1.070  0.00  0.00    +0.000 NA
ATOM      7  C15 UNL     1       0.167   2.707  -1.357  0.00  0.00    +0.000 A 
ENDBRANCH   1   2
BRANCH   1   9
ATOM      8  N1  UNL     1       1.435  -0.665  -0.966  0.00  0.00    +0.000 N 
ATOM      9  C9  UNL     1       0.278  -0.315  -1.647  0.00  0.00    +0.000 C 
ATOM     10  O1  UNL     1       0.086  -0.565  -2.843  0.00  0.00    +0.000 OA
ATOM     11  H10 UNL     1       1.527  -0.423   0.013  0.00  0.00    +0.000 HD
BRANCH   8  12
ATOM     12  C8  UNL     1       2.558  -1.336  -1.598  0.00  0.00    +0.000 C 
BRANCH  12  13
ATOM     13  C7  UNL     1       3.850  -0.514  -1.494  0.00  0.00    +0.000 C 
BRANCH  13  19
ATOM     14  C1  UNL     1       4.805  -1.217   0.748  0.00  0.00    +0.000 A 
ATOM     15  C2  UNL     1       5.134  -0.953   2.082  0.00  0.00    +0.000 A 
ATOM     16  C3  UNL     1       4.905   0.312   2.619  0.00  0.00    +0.000 A 
ATOM     17  C4  UNL     1       4.343   1.314   1.826  0.00  0.00    +0.000 A 
ATOM     18  C5  UNL     1       4.013   1.052   0.493  0.00  0.00    +0.000 A 
ATOM     19  C6  UNL     1       4.242  -0.218  -0.060  0.00  0.00    +0.000 A 
ENDBRANCH  13  19
ENDBRANCH  12  13
ENDBRANCH   8  12
ENDBRANCH   1   9
BRANCH   1  20
ATOM     20  N3  UNL     1      -2.060   0.537  -1.519  0.00  0.00    +0.000 N 
ATOM     21  H16 UNL     1      -1.866   0.335  -2.507  0.00  0.00    +0.000 HD
BRANCH  20  22
ATOM     22  C16 UNL     1      -3.013  -0.395  -1.040  0.00  0.00    +0.000 A 
ATOM     23  C17 UNL     1      -3.768  -0.082   0.099  0.00  0.00    +0.000 A 
ATOM     24  C18 UNL     1      -3.127  -1.664  -1.617  0.00  0.00    +0.000 A 
ATOM     25  C19 UNL     1      -4.009  -2.623  -1.106  0.00  0.00    +0.000 A 
ATOM     26  C20 UNL     1      -4.763  -2.276   0.015  0.00  0.00    +0.000 A 
ATOM     27  C21 UNL     1      -4.664  -1.029   0.628  0.00  0.00    +0.000 A 
ATOM     28  N4  UNL     1      -5.702  -2.998   0.715  0.00  0.00    +0.000 N 
ATOM     29  C22 UNL     1      -6.219  -2.238   1.736  0.00  0.00    +0.000 A 
ATOM     30  C23 UNL     1      -5.577  -1.025   1.718  0.00  0.00    +0.000 A 
ATOM     31  H20 UNL     1      -6.000  -3.933   0.478  0.00  0.00    +0.000 HD
ENDBRANCH  20  22
ENDBRANCH   1  20
TORSDOF 7
