REMARK  Name = /home/anacleto/Desktop/manuscript_Mpro/naturecomm/supplementary_file_S2/6-chemical-library/molecular_docking/3D_ligand_structure/3638.pdb
REMARK  7 active torsions:
REMARK  status: ('A' for Active; 'I' for Inactive)
REMARK    1  A    between atoms: C6_6  and  C7_7
REMARK    2  A    between atoms: C7_7  and  C8_8
REMARK    3  A    between atoms: C8_8  and  N1_9
REMARK    4  A    between atoms: C9_10  and  C10_12
REMARK    5  A    between atoms: C10_12  and  N2_13
REMARK    6  A    between atoms: C10_12  and  C17_20
REMARK    7  A    between atoms: N2_13  and  C11_14
REMARK                            x       y       z     vdW  Elec       q    Type
REMARK                         _______ _______ _______ _____ _____    ______ ____
ROOT
ATOM      1  C10 UNL     1      -1.582  -0.297  -2.057  0.00  0.00    +0.000 C 
ENDROOT
BRANCH   1   2
ATOM      2  C17 UNL     1      -2.587  -1.031  -1.228  0.00  0.00    +0.000 A 
ATOM      3  N3  UNL     1      -3.852  -0.509  -1.107  0.00  0.00    +0.000 N 
ATOM      4  N4  UNL     1      -4.700  -1.230  -0.360  0.00  0.00    +0.000 NA
ATOM      5  C18 UNL     1      -3.996  -2.308   0.010  0.00  0.00    +0.000 A 
ATOM      6  C19 UNL     1      -2.651  -2.213  -0.525  0.00  0.00    +0.000 A 
ATOM      7  C20 UNL     1      -4.395  -3.412   0.783  0.00  0.00    +0.000 A 
ATOM      8  C21 UNL     1      -3.387  -4.379   0.966  0.00  0.00    +0.000 A 
ATOM      9  C22 UNL     1      -2.075  -4.257   0.418  0.00  0.00    +0.000 A 
ATOM     10  C23 UNL     1      -1.642  -3.161  -0.359  0.00  0.00    +0.000 A 
ATOM     11  H18 UNL     1      -4.176   0.373  -1.494  0.00  0.00    +0.000 HD
ENDBRANCH   1   2
BRANCH   1  13
ATOM     12  N1  UNL     1       0.553   0.030  -0.803  0.00  0.00    +0.000 N 
ATOM     13  C9  UNL     1      -0.105  -0.694  -1.775  0.00  0.00    +0.000 C 
ATOM     14  O1  UNL     1       0.446  -1.615  -2.382  0.00  0.00    +0.000 OA
ATOM     15  H10 UNL     1       0.177   0.952  -0.619  0.00  0.00    +0.000 HD
BRANCH  12  16
ATOM     16  C8  UNL     1       1.963  -0.175  -0.525  0.00  0.00    +0.000 C 
BRANCH  16  17
ATOM     17  C7  UNL     1       2.353   0.429   0.823  0.00  0.00    +0.000 C 
BRANCH  17  23
ATOM     18  C1  UNL     1       4.702   1.351   0.885  0.00  0.00    +0.000 A 
ATOM     19  C2  UNL     1       6.066   1.215   1.154  0.00  0.00    +0.000 A 
ATOM     20  C3  UNL     1       6.563   0.011   1.649  0.00  0.00    +0.000 A 
ATOM     21  C4  UNL     1       5.698  -1.060   1.873  0.00  0.00    +0.000 A 
ATOM     22  C5  UNL     1       4.335  -0.925   1.607  0.00  0.00    +0.000 A 
ATOM     23  C6  UNL     1       3.824   0.284   1.113  0.00  0.00    +0.000 A 
ENDBRANCH  17  23
ENDBRANCH  16  17
ENDBRANCH  12  16
ENDBRANCH   1  13
BRANCH   1  24
ATOM     24  N2  UNL     1      -1.762   1.172  -2.165  0.00  0.00    +0.000 N 
ATOM     25  H12 UNL     1      -1.320   1.534  -3.005  0.00  0.00    +0.000 HD
BRANCH  24  26
ATOM     26  C11 UNL     1      -1.862   2.119  -1.158  0.00  0.00    +0.000 A 
ATOM     27  C12 UNL     1      -1.926   3.472  -1.531  0.00  0.00    +0.000 A 
ATOM     28  C13 UNL     1      -2.070   4.491  -0.586  0.00  0.00    +0.000 A 
ATOM     29  C14 UNL     1      -2.176   4.174   0.763  0.00  0.00    +0.000 A 
ATOM     30  C15 UNL     1      -2.147   2.840   1.157  0.00  0.00    +0.000 A 
ATOM     31  C16 UNL     1      -2.004   1.827   0.203  0.00  0.00    +0.000 A 
ENDBRANCH  24  26
ENDBRANCH   1  24
TORSDOF 7
