REMARK  Name = /home/anacleto/Desktop/manuscript_Mpro/naturecomm/supplementary_file_S2/6-chemical-library/molecular_docking/3D_ligand_structure/3655.pdb
REMARK  4 active torsions:
REMARK  status: ('A' for Active; 'I' for Inactive)
REMARK    1  A    between atoms: C5_6  and  C6_7
REMARK    2  A    between atoms: C6_7  and  N2_8
REMARK    3  A    between atoms: N2_8  and  C7_9
REMARK    4  A    between atoms: C13_15  and  C14_17
REMARK                            x       y       z     vdW  Elec       q    Type
REMARK                         _______ _______ _______ _____ _____    ______ ____
ROOT
ATOM      1  N2  UNL     1       1.178   0.008   0.942  0.00  0.00    +0.000 N 
ATOM      2  C13 UNL     1       0.161  -0.927   1.155  0.00  0.00    +0.000 C 
ATOM      3  O1  UNL     1       0.370  -2.134   1.288  0.00  0.00    +0.000 OA
ENDROOT
BRANCH   2   4
ATOM      4  C14 UNL     1      -1.239  -0.427   1.330  0.00  0.00    +0.000 A 
ATOM      5  C15 UNL     1      -1.447   0.450   2.326  0.00  0.00    +0.000 A 
ATOM      6  C16 UNL     1      -2.795   0.977   2.615  0.00  0.00    +0.000 A 
ATOM      7  O2  UNL     1      -2.969   1.794   3.512  0.00  0.00    +0.000 OA
ATOM      8  N3  UNL     1      -3.821   0.512   1.843  0.00  0.00    +0.000 N 
ATOM      9  C17 UNL     1      -3.657  -0.432   0.822  0.00  0.00    +0.000 A 
ATOM     10  C18 UNL     1      -2.378  -0.936   0.543  0.00  0.00    +0.000 A 
ATOM     11  C19 UNL     1      -4.774  -0.855   0.099  0.00  0.00    +0.000 A 
ATOM     12  C20 UNL     1      -4.619  -1.795  -0.919  0.00  0.00    +0.000 A 
ATOM     13  C21 UNL     1      -3.355  -2.307  -1.209  0.00  0.00    +0.000 A 
ATOM     14  C22 UNL     1      -2.239  -1.880  -0.483  0.00  0.00    +0.000 A 
ATOM     15  H13 UNL     1      -4.737   0.880   2.058  0.00  0.00    +0.000 HD
ENDBRANCH   2   4
BRANCH   1  16
ATOM     16  C7  UNL     1       0.977   1.316   0.397  0.00  0.00    +0.000 A 
ATOM     17  C8  UNL     1       0.055   1.538  -0.635  0.00  0.00    +0.000 A 
ATOM     18  C9  UNL     1      -0.124   2.817  -1.170  0.00  0.00    +0.000 A 
ATOM     19  C10 UNL     1       0.621   3.888  -0.684  0.00  0.00    +0.000 A 
ATOM     20  C11 UNL     1       1.549   3.680   0.332  0.00  0.00    +0.000 A 
ATOM     21  C12 UNL     1       1.730   2.401   0.866  0.00  0.00    +0.000 A 
ENDBRANCH   1  16
BRANCH   1  22
ATOM     22  C6  UNL     1       2.560  -0.484   1.022  0.00  0.00    +0.000 C 
BRANCH  22  28
ATOM     23  C1  UNL     1       3.795  -0.046  -1.139  0.00  0.00    +0.000 A 
ATOM     24  N1  UNL     1       4.307  -0.376  -2.347  0.00  0.00    +0.000 NA
ATOM     25  C2  UNL     1       4.111  -1.645  -2.762  0.00  0.00    +0.000 A 
ATOM     26  C3  UNL     1       3.429  -2.598  -2.025  0.00  0.00    +0.000 A 
ATOM     27  C4  UNL     1       2.919  -2.231  -0.784  0.00  0.00    +0.000 A 
ATOM     28  C5  UNL     1       3.105  -0.927  -0.313  0.00  0.00    +0.000 A 
ENDBRANCH  22  28
ENDBRANCH   1  22
TORSDOF 4
