REMARK  Name = /home/anacleto/Desktop/manuscript_Mpro/naturecomm/supplementary_file_S2/6-chemical-library/molecular_docking/3D_ligand_structure/3669.pdb
REMARK  4 active torsions:
REMARK  status: ('A' for Active; 'I' for Inactive)
REMARK    1  A    between atoms: C5_6  and  C6_7
REMARK    2  A    between atoms: C6_7  and  N2_8
REMARK    3  A    between atoms: N2_8  and  C11_16
REMARK    4  A    between atoms: C7_9  and  C8_11
REMARK                            x       y       z     vdW  Elec       q    Type
REMARK                         _______ _______ _______ _____ _____    ______ ____
ROOT
ATOM      1  N2  UNL     1      -1.101   0.376  -1.272  0.00  0.00    +0.000 N 
ATOM      2  C7  UNL     1      -1.970   1.474  -1.394  0.00  0.00    +0.000 C 
ATOM      3  O1  UNL     1      -3.144   1.326  -1.738  0.00  0.00    +0.000 OA
ENDROOT
BRANCH   1   4
ATOM      4  C11 UNL     1      -0.014   0.316  -0.341  0.00  0.00    +0.000 A 
ATOM      5  C12 UNL     1       1.147  -0.408  -0.649  0.00  0.00    +0.000 A 
ATOM      6  C13 UNL     1      -0.108   0.931   0.916  0.00  0.00    +0.000 A 
ATOM      7  C14 UNL     1       0.939   0.843   1.838  0.00  0.00    +0.000 A 
ATOM      8  C15 UNL     1       2.095   0.145   1.504  0.00  0.00    +0.000 A 
ATOM      9  C16 UNL     1       2.208  -0.487   0.264  0.00  0.00    +0.000 A 
ATOM     10  N5  UNL     1       3.139   0.049   2.428  0.00  0.00    +0.000 N 
ATOM     11  C17 UNL     1       4.372  -0.476   2.142  0.00  0.00    +0.000 C 
ATOM     12  O2  UNL     1       5.228  -0.593   3.015  0.00  0.00    +0.000 OA
ATOM     13  C18 UNL     1       4.649  -0.786   0.690  0.00  0.00    +0.000 C 
ATOM     14  C19 UNL     1       3.421  -1.328  -0.023  0.00  0.00    +0.000 C 
ATOM     15  H13 UNL     1       3.013   0.382   3.375  0.00  0.00    +0.000 HD
ENDBRANCH   1   4
BRANCH   2  16
ATOM     16  C8  UNL     1      -1.460   2.814  -1.200  0.00  0.00    +0.000 A 
ATOM     17  C9  UNL     1      -0.194   3.368  -1.204  0.00  0.00    +0.000 A 
ATOM     18  N3  UNL     1      -0.239   4.725  -0.998  0.00  0.00    +0.000 NA
ATOM     19  C10 UNL     1      -1.515   5.016  -0.903  0.00  0.00    +0.000 A 
ATOM     20  N4  UNL     1      -2.289   3.903  -1.036  0.00  0.00    +0.000 N 
ATOM     21  H9  UNL     1      -3.300   3.865  -1.028  0.00  0.00    +0.000 HD
ENDBRANCH   2  16
BRANCH   1  22
ATOM     22  C6  UNL     1      -1.561  -0.897  -1.848  0.00  0.00    +0.000 C 
BRANCH  22  28
ATOM     23  C1  UNL     1      -3.565  -1.656  -0.509  0.00  0.00    +0.000 A 
ATOM     24  N1  UNL     1      -4.218  -2.431   0.388  0.00  0.00    +0.000 NA
ATOM     25  C2  UNL     1      -3.502  -3.406   0.984  0.00  0.00    +0.000 A 
ATOM     26  C3  UNL     1      -2.164  -3.644   0.724  0.00  0.00    +0.000 A 
ATOM     27  C4  UNL     1      -1.518  -2.834  -0.205  0.00  0.00    +0.000 A 
ATOM     28  C5  UNL     1      -2.224  -1.811  -0.847  0.00  0.00    +0.000 A 
ENDBRANCH  22  28
ENDBRANCH   1  22
TORSDOF 4
