REMARK  Name = /home/anacleto/Desktop/manuscript_Mpro/naturecomm/supplementary_file_S2/6-chemical-library/molecular_docking/3D_ligand_structure/3674.pdb
REMARK  4 active torsions:
REMARK  status: ('A' for Active; 'I' for Inactive)
REMARK    1  A    between atoms: C5_6  and  C6_7
REMARK    2  A    between atoms: C6_7  and  N2_8
REMARK    3  A    between atoms: N2_8  and  C7_9
REMARK    4  A    between atoms: C13_15  and  C14_17
REMARK                            x       y       z     vdW  Elec       q    Type
REMARK                         _______ _______ _______ _____ _____    ______ ____
ROOT
ATOM      1  N2  UNL     1      -0.597   0.936  -1.132  0.00  0.00    +0.000 N 
ATOM      2  C13 UNL     1       0.810   1.079  -1.055  0.00  0.00    +0.000 C 
ATOM      3  O1  UNL     1       1.399   2.153  -0.958  0.00  0.00    +0.000 OA
ENDROOT
BRANCH   2   4
ATOM      4  C14 UNL     1       1.601  -0.140  -1.126  0.00  0.00    +0.000 A 
ATOM      5  N3  UNL     1       1.702  -0.929  -2.245  0.00  0.00    +0.000 NA
ATOM      6  N4  UNL     1       2.499  -1.953  -1.961  0.00  0.00    +0.000 NA
ATOM      7  N5  UNL     1       2.917  -1.828  -0.678  0.00  0.00    +0.000 N 
ATOM      8  C15 UNL     1       2.359  -0.697  -0.124  0.00  0.00    +0.000 A 
ATOM      9  C16 UNL     1       3.758  -2.647   0.062  0.00  0.00    +0.000 A 
ATOM     10  C17 UNL     1       4.027  -2.339   1.338  0.00  0.00    +0.000 A 
ATOM     11  N6  UNL     1       3.460  -1.218   1.905  0.00  0.00    +0.000 N 
ATOM     12  C18 UNL     1       2.596  -0.354   1.244  0.00  0.00    +0.000 A 
ATOM     13  O2  UNL     1       2.088   0.596   1.830  0.00  0.00    +0.000 OA
ATOM     14  H14 UNL     1       3.642  -0.988   2.876  0.00  0.00    +0.000 HD
ENDBRANCH   2   4
BRANCH   1  15
ATOM     15  C7  UNL     1      -1.457   2.082  -0.976  0.00  0.00    +0.000 A 
ATOM     16  C8  UNL     1      -1.108   3.139  -0.122  0.00  0.00    +0.000 A 
ATOM     17  C9  UNL     1      -1.952   4.240   0.054  0.00  0.00    +0.000 A 
ATOM     18  C10 UNL     1      -3.163   4.308  -0.625  0.00  0.00    +0.000 A 
ATOM     19  C11 UNL     1      -3.527   3.276  -1.482  0.00  0.00    +0.000 A 
ATOM     20  C12 UNL     1      -2.682   2.173  -1.655  0.00  0.00    +0.000 A 
ENDBRANCH   1  15
BRANCH   1  21
ATOM     21  C6  UNL     1      -1.229  -0.387  -1.313  0.00  0.00    +0.000 C 
BRANCH  21  27
ATOM     22  C1  UNL     1      -0.696  -2.619  -0.265  0.00  0.00    +0.000 A 
ATOM     23  N1  UNL     1      -0.522  -3.484   0.760  0.00  0.00    +0.000 NA
ATOM     24  C2  UNL     1      -0.774  -3.015   2.001  0.00  0.00    +0.000 A 
ATOM     25  C3  UNL     1      -1.186  -1.720   2.263  0.00  0.00    +0.000 A 
ATOM     26  C4  UNL     1      -1.348  -0.849   1.190  0.00  0.00    +0.000 A 
ATOM     27  C5  UNL     1      -1.084  -1.291  -0.110  0.00  0.00    +0.000 A 
ENDBRANCH  21  27
ENDBRANCH   1  21
TORSDOF 4
