REMARK  Name = /home/anacleto/Desktop/manuscript_Mpro/naturecomm/supplementary_file_S2/6-chemical-library/molecular_docking/3D_ligand_structure/3678.pdb
REMARK  4 active torsions:
REMARK  status: ('A' for Active; 'I' for Inactive)
REMARK    1  A    between atoms: C7_8  and  C9_10
REMARK    2  A    between atoms: N2_12  and  C15_20
REMARK    3  A    between atoms: C10_13  and  C11_15
REMARK    4  A    between atoms: C15_20  and  C16_21
REMARK                            x       y       z     vdW  Elec       q    Type
REMARK                         _______ _______ _______ _____ _____    ______ ____
ROOT
ATOM      1  C9  UNL     1      -0.474   0.946   1.069  0.00  0.00    +0.000 C 
ATOM      2  O1  UNL     1      -0.407   2.028   1.655  0.00  0.00    +0.000 OA
ATOM      3  N2  UNL     1       0.663   0.257   0.660  0.00  0.00    +0.000 N 
ATOM      4  C10 UNL     1       0.720  -0.263  -0.635  0.00  0.00    +0.000 C 
ATOM      5  O2  UNL     1       0.053   0.221  -1.552  0.00  0.00    +0.000 OA
ENDROOT
BRANCH   1  13
ATOM      6  C1  UNL     1      -4.474  -2.048   0.110  0.00  0.00    +0.000 A 
ATOM      7  C2  UNL     1      -5.843  -1.755   0.113  0.00  0.00    +0.000 A 
ATOM      8  C3  UNL     1      -6.295  -0.470   0.407  0.00  0.00    +0.000 A 
ATOM      9  C4  UNL     1      -5.397   0.559   0.706  0.00  0.00    +0.000 A 
ATOM     10  C5  UNL     1      -4.032   0.248   0.697  0.00  0.00    +0.000 A 
ATOM     11  C6  UNL     1      -3.552  -1.026   0.407  0.00  0.00    +0.000 A 
ATOM     12  N1  UNL     1      -2.939   1.040   0.951  0.00  0.00    +0.000 N 
ATOM     13  C7  UNL     1      -1.766   0.327   0.823  0.00  0.00    +0.000 A 
ATOM     14  C8  UNL     1      -2.133  -0.968   0.497  0.00  0.00    +0.000 A 
ATOM     15  H5  UNL     1      -2.975   2.020   1.201  0.00  0.00    +0.000 HD
ENDBRANCH   1  13
BRANCH   4  16
ATOM     16  C11 UNL     1       1.633  -1.367  -0.883  0.00  0.00    +0.000 A 
ATOM     17  C12 UNL     1       2.134  -1.861  -2.074  0.00  0.00    +0.000 A 
ATOM     18  C13 UNL     1       2.949  -2.971  -1.749  0.00  0.00    +0.000 A 
ATOM     19  C14 UNL     1       2.883  -3.104  -0.384  0.00  0.00    +0.000 A 
ATOM     20  O3  UNL     1       2.085  -2.145   0.150  0.00  0.00    +0.000 OA
ENDBRANCH   4  16
BRANCH   3  21
ATOM     21  C15 UNL     1       1.901   0.536   1.386  0.00  0.00    +0.000 C 
BRANCH  21  22
ATOM     22  C16 UNL     1       2.877   1.408   0.638  0.00  0.00    +0.000 A 
ATOM     23  C17 UNL     1       2.585   2.733   0.303  0.00  0.00    +0.000 A 
ATOM     24  C18 UNL     1       3.519   3.494  -0.393  0.00  0.00    +0.000 A 
ATOM     25  C19 UNL     1       4.726   2.904  -0.729  0.00  0.00    +0.000 A 
ATOM     26  N3  UNL     1       5.050   1.632  -0.419  0.00  0.00    +0.000 NA
ATOM     27  C20 UNL     1       4.123   0.916   0.255  0.00  0.00    +0.000 A 
ENDBRANCH  21  22
ENDBRANCH   3  21
TORSDOF 4
