REMARK  Name = /home/anacleto/Desktop/manuscript_Mpro/naturecomm/supplementary_file_S2/6-chemical-library/molecular_docking/3D_ligand_structure/3687.pdb
REMARK  4 active torsions:
REMARK  status: ('A' for Active; 'I' for Inactive)
REMARK    1  A    between atoms: C5_6  and  N2_7
REMARK    2  A    between atoms: C6_8  and  C7_10
REMARK    3  A    between atoms: C7_10  and  C8_11
REMARK    4  A    between atoms: C7_10  and  N3_17
REMARK                            x       y       z     vdW  Elec       q    Type
REMARK                         _______ _______ _______ _____ _____    ______ ____
ROOT
ATOM      1  C7  UNL     1      -0.246  -0.360  -0.622  0.00  0.00    +0.000 C 
ENDROOT
BRANCH   1   2
ATOM      2  N3  UNL     1      -1.434   0.362  -0.175  0.00  0.00    +0.000 N 
ATOM      3  C14 UNL     1      -1.768   0.581   1.152  0.00  0.00    +0.000 C 
ATOM      4  O2  UNL     1      -1.264   0.124   2.159  0.00  0.00    +0.000 OA
ATOM      5  C15 UNL     1      -2.148   1.256  -1.071  0.00  0.00    +0.000 C 
ATOM      6  C16 UNL     1      -3.117   1.932  -0.162  0.00  0.00    +0.000 A 
ATOM      7  C17 UNL     1      -2.882   1.538   1.153  0.00  0.00    +0.000 A 
ATOM      8  C18 UNL     1      -4.117   2.843  -0.450  0.00  0.00    +0.000 A 
ATOM      9  C19 UNL     1      -4.877   3.345   0.614  0.00  0.00    +0.000 A 
ATOM     10  C20 UNL     1      -4.627   2.939   1.938  0.00  0.00    +0.000 A 
ATOM     11  C21 UNL     1      -3.613   2.022   2.221  0.00  0.00    +0.000 A 
ENDBRANCH   1   2
BRANCH   1  12
ATOM     12  C8  UNL     1      -0.270  -1.836  -0.241  0.00  0.00    +0.000 A 
ATOM     13  C9  UNL     1       0.166  -2.292   1.013  0.00  0.00    +0.000 A 
ATOM     14  C10 UNL     1       0.149  -3.653   1.325  0.00  0.00    +0.000 A 
ATOM     15  C11 UNL     1      -0.311  -4.578   0.392  0.00  0.00    +0.000 A 
ATOM     16  C12 UNL     1      -0.764  -4.143  -0.851  0.00  0.00    +0.000 A 
ATOM     17  C13 UNL     1      -0.749  -2.783  -1.164  0.00  0.00    +0.000 A 
ENDBRANCH   1  12
BRANCH   1  19
ATOM     18  N2  UNL     1       2.226  -0.342  -0.428  0.00  0.00    +0.000 N 
ATOM     19  C6  UNL     1       1.069   0.421  -0.314  0.00  0.00    +0.000 C 
ATOM     20  O1  UNL     1       1.053   1.637  -0.118  0.00  0.00    +0.000 OA
ATOM     21  H5  UNL     1       2.105  -1.332  -0.614  0.00  0.00    +0.000 HD
BRANCH  18  27
ATOM     22  C1  UNL     1       4.583  -0.855  -0.391  0.00  0.00    +0.000 A 
ATOM     23  N1  UNL     1       5.905  -0.589  -0.253  0.00  0.00    +0.000 NA
ATOM     24  C2  UNL     1       6.230   0.685   0.049  0.00  0.00    +0.000 A 
ATOM     25  C3  UNL     1       5.296   1.693   0.215  0.00  0.00    +0.000 A 
ATOM     26  C4  UNL     1       3.943   1.386   0.062  0.00  0.00    +0.000 A 
ATOM     27  C5  UNL     1       3.560   0.085  -0.250  0.00  0.00    +0.000 A 
ENDBRANCH  18  27
ENDBRANCH   1  19
TORSDOF 4
