REMARK  Name = /home/anacleto/Desktop/manuscript_Mpro/naturecomm/supplementary_file_S2/6-chemical-library/molecular_docking/3D_ligand_structure/3708.pdb
REMARK  4 active torsions:
REMARK  status: ('A' for Active; 'I' for Inactive)
REMARK    1  A    between atoms: C6_6  and  N1_7
REMARK    2  A    between atoms: N1_7  and  C7_8
REMARK    3  A    between atoms: C12_14  and  C13_16
REMARK    4  A    between atoms: C13_16  and  C14_17
REMARK                            x       y       z     vdW  Elec       q    Type
REMARK                         _______ _______ _______ _____ _____    ______ ____
ROOT
ATOM      1  N1  UNL     1      -1.041   0.041  -0.439  0.00  0.00    +0.000 N 
ATOM      2  C12 UNL     1      -0.215   0.835  -1.245  0.00  0.00    +0.000 C 
ATOM      3  O2  UNL     1      -0.460   2.019  -1.494  0.00  0.00    +0.000 OA
ENDROOT
BRANCH   1   9
ATOM      4  C1  UNL     1      -1.227  -2.203   0.538  0.00  0.00    +0.000 A 
ATOM      5  C2  UNL     1      -1.324  -3.589   0.396  0.00  0.00    +0.000 A 
ATOM      6  C3  UNL     1      -1.326  -4.163  -0.874  0.00  0.00    +0.000 A 
ATOM      7  C4  UNL     1      -1.235  -3.352  -2.004  0.00  0.00    +0.000 A 
ATOM      8  C5  UNL     1      -1.138  -1.965  -1.863  0.00  0.00    +0.000 A 
ATOM      9  C6  UNL     1      -1.124  -1.377  -0.590  0.00  0.00    +0.000 A 
ENDBRANCH   1   9
BRANCH   1  10
ATOM     10  C7  UNL     1      -2.116   0.678   0.366  0.00  0.00    +0.000 C 
ATOM     11  C8  UNL     1      -3.242   1.277  -0.489  0.00  0.00    +0.000 C 
ATOM     12  C9  UNL     1      -4.298   1.904   0.412  0.00  0.00    +0.000 C 
ATOM     13  O1  UNL     1      -3.718   2.873   1.284  0.00  0.00    +0.000 OA
ATOM     14  C10 UNL     1      -2.736   2.315   2.155  0.00  0.00    +0.000 C 
ATOM     15  C11 UNL     1      -1.582   1.713   1.365  0.00  0.00    +0.000 C 
ENDBRANCH   1  10
BRANCH   2  16
ATOM     16  C13 UNL     1       1.105   0.229  -1.732  0.00  0.00    +0.000 C 
BRANCH  16  17
ATOM     17  C14 UNL     1       2.270   0.843  -1.026  0.00  0.00    +0.000 A 
ATOM     18  C15 UNL     1       2.678   2.196  -1.056  0.00  0.00    +0.000 A 
ATOM     19  N2  UNL     1       3.768   2.434  -0.329  0.00  0.00    +0.000 NA
ATOM     20  N3  UNL     1       4.105   1.228   0.196  0.00  0.00    +0.000 N 
ATOM     21  C16 UNL     1       3.199   0.238  -0.202  0.00  0.00    +0.000 A 
ATOM     22  C17 UNL     1       5.198   0.944   1.016  0.00  0.00    +0.000 A 
ATOM     23  C18 UNL     1       5.409  -0.309   1.452  0.00  0.00    +0.000 A 
ATOM     24  C19 UNL     1       4.474  -1.351   1.063  0.00  0.00    +0.000 A 
ATOM     25  C20 UNL     1       3.413  -1.090   0.274  0.00  0.00    +0.000 A 
ENDBRANCH  16  17
ENDBRANCH   2  16
TORSDOF 4
