REMARK  Name = /home/anacleto/Desktop/manuscript_Mpro/naturecomm/supplementary_file_S2/6-chemical-library/molecular_docking/3D_ligand_structure/371.pdb
REMARK  0 active torsions:
REMARK  status: ('A' for Active; 'I' for Inactive)
REMARK                            x       y       z     vdW  Elec       q    Type
REMARK                         _______ _______ _______ _____ _____    ______ ____
ROOT
ATOM      1  N1  UNL     1      -0.966   1.137  -0.249  0.00  0.00    +0.000 N 
ATOM      2  C1  UNL     1      -1.955   0.174  -0.082  0.00  0.00    +0.000 A 
ATOM      3  C2  UNL     1      -1.374  -1.019   0.168  0.00  0.00    +0.000 A 
ATOM      4  N2  UNL     1      -0.004  -0.801   0.159  0.00  0.00    +0.000 N 
ATOM      5  C3  UNL     1       0.235   0.533  -0.100  0.00  0.00    +0.000 A 
ATOM      6  N3  UNL     1       1.129  -1.503   0.325  0.00  0.00    +0.000 NA
ATOM      7  C4  UNL     1       2.084  -0.570   0.164  0.00  0.00    +0.000 A 
ATOM      8  C5  UNL     1       1.579   0.731  -0.106  0.00  0.00    +0.000 A 
ATOM      9  H1  UNL     1      -1.177   2.108  -0.446  0.00  0.00    +0.000 HD
ENDROOT
TORSDOF 0
