REMARK  Name = /home/anacleto/Desktop/manuscript_Mpro/naturecomm/supplementary_file_S2/6-chemical-library/molecular_docking/3D_ligand_structure/3723.pdb
REMARK  4 active torsions:
REMARK  status: ('A' for Active; 'I' for Inactive)
REMARK    1  A    between atoms: C5_8  and  C6_10
REMARK    2  A    between atoms: N5_12  and  C7_13
REMARK    3  A    between atoms: N5_12  and  C13_19
REMARK    4  A    between atoms: C13_19  and  C14_20
REMARK                            x       y       z     vdW  Elec       q    Type
REMARK                         _______ _______ _______ _____ _____    ______ ____
ROOT
ATOM      1  C6  UNL     1       0.340   0.588  -1.688  0.00  0.00    +0.000 C 
ATOM      2  O1  UNL     1       0.336   0.607  -2.923  0.00  0.00    +0.000 OA
ATOM      3  N5  UNL     1      -0.866   0.562  -0.956  0.00  0.00    +0.000 N 
ENDROOT
BRANCH   1  11
ATOM      4  N1  UNL     1       3.675  -0.468   1.705  0.00  0.00    +0.000 NA
ATOM      5  C1  UNL     1       4.961  -0.294   1.693  0.00  0.00    +0.000 A 
ATOM      6  C2  UNL     1       5.761   0.323   0.596  0.00  0.00    +0.000 A 
ATOM      7  C3  UNL     1       5.050   0.726  -0.465  0.00  0.00    +0.000 A 
ATOM      8  N2  UNL     1       3.672   0.551  -0.483  0.00  0.00    +0.000 N 
ATOM      9  C4  UNL     1       3.005  -0.042   0.592  0.00  0.00    +0.000 A 
ATOM     10  N3  UNL     1       2.792   0.890  -1.446  0.00  0.00    +0.000 NA
ATOM     11  C5  UNL     1       1.617   0.478  -0.935  0.00  0.00    +0.000 A 
ATOM     12  N4  UNL     1       1.723  -0.097   0.315  0.00  0.00    +0.000 NA
ENDBRANCH   1  11
BRANCH   3  13
ATOM     13  C7  UNL     1      -1.013   1.152   0.341  0.00  0.00    +0.000 A 
ATOM     14  C8  UNL     1      -0.279   2.291   0.707  0.00  0.00    +0.000 A 
ATOM     15  C9  UNL     1      -0.456   2.885   1.961  0.00  0.00    +0.000 A 
ATOM     16  C10 UNL     1      -1.373   2.353   2.863  0.00  0.00    +0.000 A 
ATOM     17  C11 UNL     1      -2.114   1.229   2.512  0.00  0.00    +0.000 A 
ATOM     18  C12 UNL     1      -1.939   0.637   1.257  0.00  0.00    +0.000 A 
ENDBRANCH   3  13
BRANCH   3  19
ATOM     19  C13 UNL     1      -2.092   0.244  -1.697  0.00  0.00    +0.000 C 
BRANCH  19  20
ATOM     20  C14 UNL     1      -2.432  -1.226  -1.719  0.00  0.00    +0.000 A 
ATOM     21  C15 UNL     1      -3.610  -1.710  -1.138  0.00  0.00    +0.000 A 
ATOM     22  C16 UNL     1      -3.904  -3.070  -1.190  0.00  0.00    +0.000 A 
ATOM     23  C17 UNL     1      -3.012  -3.908  -1.836  0.00  0.00    +0.000 A 
ATOM     24  N6  UNL     1      -1.876  -3.481  -2.424  0.00  0.00    +0.000 NA
ATOM     25  C18 UNL     1      -1.613  -2.155  -2.355  0.00  0.00    +0.000 A 
ENDBRANCH  19  20
ENDBRANCH   3  19
TORSDOF 4
