REMARK  Name = /home/anacleto/Desktop/manuscript_Mpro/naturecomm/supplementary_file_S2/6-chemical-library/molecular_docking/3D_ligand_structure/373.pdb
REMARK  0 active torsions:
REMARK  status: ('A' for Active; 'I' for Inactive)
REMARK                            x       y       z     vdW  Elec       q    Type
REMARK                         _______ _______ _______ _____ _____    ______ ____
ROOT
ATOM      1  C1  UNL     1      -1.215  -0.101   0.871  0.00  0.00    +0.000 C 
ATOM      2  N1  UNL     1      -1.975   0.562  -0.221  0.00  0.00    +0.000 NA
ATOM      3  C2  UNL     1      -0.895   0.205  -1.183  0.00  0.00    +0.000 C 
ATOM      4  C3  UNL     1      -0.001  -0.005   0.003  0.00  0.00    +0.000 C 
ATOM      5  C4  UNL     1       1.074   0.999   0.302  0.00  0.00    +0.000 C 
ATOM      6  N2  UNL     1       2.057  -0.010  -0.183  0.00  0.00    +0.000 NA
ATOM      7  C5  UNL     1       1.039  -1.079  -0.007  0.00  0.00    +0.000 C 
ATOM      8  H3  UNL     1      -2.882   0.147  -0.427  0.00  0.00    +0.000 HD
ATOM      9  H8  UNL     1       2.888  -0.108   0.398  0.00  0.00    +0.000 HD
ENDROOT
TORSDOF 0
