REMARK  Name = /home/anacleto/Desktop/manuscript_Mpro/naturecomm/supplementary_file_S2/6-chemical-library/molecular_docking/3D_ligand_structure/3731.pdb
REMARK  4 active torsions:
REMARK  status: ('A' for Active; 'I' for Inactive)
REMARK    1  A    between atoms: C5_7  and  N2_10
REMARK    2  A    between atoms: N2_10  and  C12_18
REMARK    3  A    between atoms: C8_11  and  C9_13
REMARK    4  A    between atoms: C12_18  and  C13_19
REMARK                            x       y       z     vdW  Elec       q    Type
REMARK                         _______ _______ _______ _____ _____    ______ ____
ROOT
ATOM      1  N2  UNL     1       0.225   0.917  -0.212  0.00  0.00    +0.000 N 
ATOM      2  C8  UNL     1       0.576   2.148   0.387  0.00  0.00    +0.000 C 
ATOM      3  O1  UNL     1       1.608   2.761   0.105  0.00  0.00    +0.000 OA
ENDROOT
BRANCH   1  10
ATOM      4  N1  UNL     1       4.157  -2.611  -2.319  0.00  0.00    +0.000 NA
ATOM      5  C1  UNL     1       3.500  -3.433  -3.104  0.00  0.00    +0.000 A 
ATOM      6  S1  UNL     1       1.819  -3.158  -3.257  0.00  0.00    +0.000 S 
ATOM      7  C2  UNL     1       1.947  -1.830  -2.164  0.00  0.00    +0.000 A 
ATOM      8  C3  UNL     1       3.274  -1.699  -1.766  0.00  0.00    +0.000 A 
ATOM      9  C4  UNL     1       0.932  -0.973  -1.689  0.00  0.00    +0.000 A 
ATOM     10  C5  UNL     1       1.249   0.050  -0.772  0.00  0.00    +0.000 A 
ATOM     11  C6  UNL     1       2.587   0.159  -0.359  0.00  0.00    +0.000 A 
ATOM     12  C7  UNL     1       3.595  -0.686  -0.852  0.00  0.00    +0.000 A 
ENDBRANCH   1  10
BRANCH   2  13
ATOM     13  C9  UNL     1      -0.315   2.729   1.368  0.00  0.00    +0.000 A 
ATOM     14  C10 UNL     1      -1.278   2.220   2.216  0.00  0.00    +0.000 A 
ATOM     15  N3  UNL     1      -1.822   3.204   3.002  0.00  0.00    +0.000 NA
ATOM     16  C11 UNL     1      -1.187   4.303   2.670  0.00  0.00    +0.000 A 
ATOM     17  N4  UNL     1      -0.261   4.064   1.703  0.00  0.00    +0.000 N 
ATOM     18  H7  UNL     1       0.371   4.737   1.287  0.00  0.00    +0.000 HD
ENDBRANCH   2  13
BRANCH   1  19
ATOM     19  C12 UNL     1      -1.179   0.704  -0.599  0.00  0.00    +0.000 C 
BRANCH  19  20
ATOM     20  C13 UNL     1      -1.878  -0.489   0.007  0.00  0.00    +0.000 A 
ATOM     21  C14 UNL     1      -1.316  -1.339   0.967  0.00  0.00    +0.000 A 
ATOM     22  C15 UNL     1      -2.053  -2.413   1.461  0.00  0.00    +0.000 A 
ATOM     23  C16 UNL     1      -3.338  -2.604   0.982  0.00  0.00    +0.000 A 
ATOM     24  N5  UNL     1      -3.918  -1.809   0.058  0.00  0.00    +0.000 NA
ATOM     25  C17 UNL     1      -3.182  -0.774  -0.401  0.00  0.00    +0.000 A 
ENDBRANCH  19  20
ENDBRANCH   1  19
TORSDOF 4
