REMARK  Name = /home/anacleto/Desktop/manuscript_Mpro/naturecomm/supplementary_file_S2/6-chemical-library/molecular_docking/3D_ligand_structure/3740.pdb
REMARK  5 active torsions:
REMARK  status: ('A' for Active; 'I' for Inactive)
REMARK    1  A    between atoms: N1_7  and  C8_10
REMARK    2  A    between atoms: C8_10  and  C9_11
REMARK    3  A    between atoms: N3_13  and  C10_14
REMARK    4  A    between atoms: N3_13  and  C13_18
REMARK    5  A    between atoms: C13_18  and  C14_19
REMARK                            x       y       z     vdW  Elec       q    Type
REMARK                         _______ _______ _______ _____ _____    ______ ____
ROOT
ATOM      1  C9  UNL     1       0.208   1.202   1.701  0.00  0.00    +0.000 C 
ATOM      2  O1  UNL     1       0.026   2.423   1.651  0.00  0.00    +0.000 OA
ATOM      3  N3  UNL     1      -0.826   0.291   1.472  0.00  0.00    +0.000 N 
ENDROOT
BRANCH   3   4
ATOM      4  C10 UNL     1      -0.681  -1.200   1.591  0.00  0.00    +0.000 C 
ATOM      5  C11 UNL     1      -0.456  -1.739   3.017  0.00  0.00    +0.000 C 
ATOM      6  O2  UNL     1      -1.445  -2.776   2.825  0.00  0.00    +0.000 OA
ATOM      7  C12 UNL     1      -1.946  -2.082   1.654  0.00  0.00    +0.000 C 
ENDBRANCH   3   4
BRANCH   1   8
ATOM      8  C8  UNL     1       1.595   0.683   2.035  0.00  0.00    +0.000 C 
BRANCH   8  15
ATOM      9  C1  UNL     1       3.676   0.094  -2.341  0.00  0.00    +0.000 A 
ATOM     10  C2  UNL     1       3.443   1.378  -2.847  0.00  0.00    +0.000 A 
ATOM     11  C3  UNL     1       2.796   2.342  -2.073  0.00  0.00    +0.000 A 
ATOM     12  C4  UNL     1       2.357   2.059  -0.774  0.00  0.00    +0.000 A 
ATOM     13  C5  UNL     1       2.589   0.765  -0.290  0.00  0.00    +0.000 A 
ATOM     14  C6  UNL     1       3.244  -0.209  -1.042  0.00  0.00    +0.000 A 
ATOM     15  N1  UNL     1       2.290   0.128   0.891  0.00  0.00    +0.000 N 
ATOM     16  C7  UNL     1       2.815  -1.134   0.832  0.00  0.00    +0.000 A 
ATOM     17  N2  UNL     1       3.369  -1.378  -0.332  0.00  0.00    +0.000 NA
ENDBRANCH   8  15
ENDBRANCH   1   8
BRANCH   3  18
ATOM     18  C13 UNL     1      -2.080   0.835   0.929  0.00  0.00    +0.000 C 
BRANCH  18  19
ATOM     19  C14 UNL     1      -2.377   0.350  -0.473  0.00  0.00    +0.000 A 
ATOM     20  C15 UNL     1      -3.638  -0.177  -0.788  0.00  0.00    +0.000 A 
ATOM     21  C16 UNL     1      -3.919  -0.621  -2.082  0.00  0.00    +0.000 A 
ATOM     22  C17 UNL     1      -2.947  -0.533  -3.077  0.00  0.00    +0.000 A 
ATOM     23  C18 UNL     1      -1.697   0.006  -2.782  0.00  0.00    +0.000 A 
ATOM     24  C19 UNL     1      -1.416   0.452  -1.490  0.00  0.00    +0.000 A 
ENDBRANCH  18  19
ENDBRANCH   3  18
TORSDOF 5
