REMARK  Name = /home/anacleto/Desktop/manuscript_Mpro/naturecomm/supplementary_file_S2/6-chemical-library/molecular_docking/3D_ligand_structure/3745.pdb
REMARK  4 active torsions:
REMARK  status: ('A' for Active; 'I' for Inactive)
REMARK    1  A    between atoms: C3_5  and  C4_6
REMARK    2  A    between atoms: N2_8  and  C5_9
REMARK    3  A    between atoms: N2_8  and  C12_18
REMARK    4  A    between atoms: C12_18  and  C13_19
REMARK                            x       y       z     vdW  Elec       q    Type
REMARK                         _______ _______ _______ _____ _____    ______ ____
ROOT
ATOM      1  C4  UNL     1       0.618   1.804  -1.151  0.00  0.00    +0.000 C 
ATOM      2  O2  UNL     1       1.763   2.239  -1.282  0.00  0.00    +0.000 OA
ATOM      3  N2  UNL     1       0.337   0.450  -0.848  0.00  0.00    +0.000 N 
ENDROOT
BRANCH   3   4
ATOM      4  C5  UNL     1       1.338  -0.387  -0.206  0.00  0.00    +0.000 A 
ATOM      5  C6  UNL     1       1.264  -1.799  -0.253  0.00  0.00    +0.000 A 
ATOM      6  C7  UNL     1       2.201  -2.636   0.386  0.00  0.00    +0.000 A 
ATOM      7  C8  UNL     1       2.383   0.199   0.539  0.00  0.00    +0.000 A 
ATOM      8  C9  UNL     1       3.290  -0.658   1.157  0.00  0.00    +0.000 A 
ATOM      9  C10 UNL     1       3.238  -2.038   1.103  0.00  0.00    +0.000 A 
ATOM     10  O3  UNL     1       4.370  -0.313   1.919  0.00  0.00    +0.000 OA
ATOM     11  C11 UNL     1       4.908  -1.515   2.272  0.00  0.00    +0.000 A 
ATOM     12  N3  UNL     1       4.277  -2.576   1.818  0.00  0.00    +0.000 NA
ENDBRANCH   3   4
BRANCH   1  17
ATOM     13  N1  UNL     1      -1.817   2.526  -0.918  0.00  0.00    +0.000 NA
ATOM     14  C1  UNL     1      -2.425   3.647  -1.232  0.00  0.00    +0.000 A 
ATOM     15  O1  UNL     1      -1.630   4.594  -1.798  0.00  0.00    +0.000 OA
ATOM     16  C2  UNL     1      -0.403   4.007  -1.837  0.00  0.00    +0.000 A 
ATOM     17  C3  UNL     1      -0.506   2.734  -1.314  0.00  0.00    +0.000 A 
ENDBRANCH   1  17
BRANCH   3  18
ATOM     18  C12 UNL     1      -0.878  -0.181  -1.394  0.00  0.00    +0.000 C 
BRANCH  18  19
ATOM     19  C13 UNL     1      -1.840  -0.733  -0.371  0.00  0.00    +0.000 A 
ATOM     20  C14 UNL     1      -2.002  -0.189   0.906  0.00  0.00    +0.000 A 
ATOM     21  C15 UNL     1      -2.928  -0.743   1.786  0.00  0.00    +0.000 A 
ATOM     22  C16 UNL     1      -3.679  -1.822   1.354  0.00  0.00    +0.000 A 
ATOM     23  N4  UNL     1      -3.570  -2.366   0.124  0.00  0.00    +0.000 NA
ATOM     24  C17 UNL     1      -2.664  -1.805  -0.708  0.00  0.00    +0.000 A 
ENDBRANCH  18  19
ENDBRANCH   3  18
TORSDOF 4
