REMARK  Name = /home/anacleto/Desktop/manuscript_Mpro/naturecomm/supplementary_file_S2/6-chemical-library/molecular_docking/3D_ligand_structure/3750.pdb
REMARK  4 active torsions:
REMARK  status: ('A' for Active; 'I' for Inactive)
REMARK    1  A    between atoms: C6_8  and  N3_10
REMARK    2  A    between atoms: N3_10  and  C12_18
REMARK    3  A    between atoms: C8_11  and  C9_13
REMARK    4  A    between atoms: C12_18  and  C13_19
REMARK                            x       y       z     vdW  Elec       q    Type
REMARK                         _______ _______ _______ _____ _____    ______ ____
ROOT
ATOM      1  N3  UNL     1      -0.248   0.769  -0.768  0.00  0.00    +0.000 N 
ATOM      2  C8  UNL     1      -0.662   2.118  -0.661  0.00  0.00    +0.000 C 
ATOM      3  O1  UNL     1      -1.841   2.467  -0.734  0.00  0.00    +0.000 OA
ENDROOT
BRANCH   1  11
ATOM      4  N1  UNL     1      -4.261  -1.154   1.514  0.00  0.00    +0.000 NA
ATOM      5  C1  UNL     1      -4.695  -2.393   1.492  0.00  0.00    +0.000 A 
ATOM      6  N2  UNL     1      -3.900  -3.191   0.719  0.00  0.00    +0.000 N 
ATOM      7  C2  UNL     1      -2.890  -2.415   0.211  0.00  0.00    +0.000 A 
ATOM      8  C3  UNL     1      -3.142  -1.147   0.715  0.00  0.00    +0.000 A 
ATOM      9  C4  UNL     1      -1.806  -2.699  -0.612  0.00  0.00    +0.000 A 
ATOM     10  C5  UNL     1      -0.955  -1.625  -0.926  0.00  0.00    +0.000 A 
ATOM     11  C6  UNL     1      -1.168  -0.312  -0.459  0.00  0.00    +0.000 A 
ATOM     12  C7  UNL     1      -2.278  -0.090   0.382  0.00  0.00    +0.000 A 
ATOM     13  H2  UNL     1      -4.031  -4.178   0.556  0.00  0.00    +0.000 HD
ENDBRANCH   1  11
BRANCH   2  14
ATOM     14  C9  UNL     1       0.361   3.151  -0.456  0.00  0.00    +0.000 A 
ATOM     15  C10 UNL     1       0.134   4.509  -0.547  0.00  0.00    +0.000 A 
ATOM     16  O2  UNL     1       1.291   5.164  -0.257  0.00  0.00    +0.000 OA
ATOM     17  C11 UNL     1       2.170   4.164   0.015  0.00  0.00    +0.000 A 
ATOM     18  N4  UNL     1       1.680   2.950  -0.082  0.00  0.00    +0.000 NA
ENDBRANCH   2  14
BRANCH   1  19
ATOM     19  C12 UNL     1       1.037   0.452  -1.415  0.00  0.00    +0.000 C 
BRANCH  19  20
ATOM     20  C13 UNL     1       2.028  -0.301  -0.561  0.00  0.00    +0.000 A 
ATOM     21  C14 UNL     1       2.101  -0.172   0.829  0.00  0.00    +0.000 A 
ATOM     22  C15 UNL     1       3.059  -0.885   1.544  0.00  0.00    +0.000 A 
ATOM     23  C16 UNL     1       3.930  -1.700   0.842  0.00  0.00    +0.000 A 
ATOM     24  N5  UNL     1       3.908  -1.840  -0.500  0.00  0.00    +0.000 NA
ATOM     25  C17 UNL     1       2.967  -1.133  -1.166  0.00  0.00    +0.000 A 
ENDBRANCH  19  20
ENDBRANCH   1  19
TORSDOF 4
