REMARK  Name = /home/anacleto/Desktop/manuscript_Mpro/naturecomm/supplementary_file_S2/6-chemical-library/molecular_docking/3D_ligand_structure/3754.pdb
REMARK  4 active torsions:
REMARK  status: ('A' for Active; 'I' for Inactive)
REMARK    1  A    between atoms: C5_6  and  C6_7
REMARK    2  A    between atoms: C6_7  and  N2_8
REMARK    3  A    between atoms: N2_8  and  C11_16
REMARK    4  A    between atoms: C7_9  and  C8_11
REMARK                            x       y       z     vdW  Elec       q    Type
REMARK                         _______ _______ _______ _____ _____    ______ ____
ROOT
ATOM      1  N2  UNL     1       0.030   1.083  -0.343  0.00  0.00    +0.000 N 
ATOM      2  C7  UNL     1       0.037   2.206   0.519  0.00  0.00    +0.000 C 
ATOM      3  O1  UNL     1       1.068   2.701   0.976  0.00  0.00    +0.000 OA
ENDROOT
BRANCH   1   4
ATOM      4  C11 UNL     1       1.144   0.149  -0.356  0.00  0.00    +0.000 A 
ATOM      5  C12 UNL     1       2.020   0.056   0.744  0.00  0.00    +0.000 A 
ATOM      6  C13 UNL     1       1.356  -0.740  -1.425  0.00  0.00    +0.000 A 
ATOM      7  C14 UNL     1       2.405  -1.674  -1.443  0.00  0.00    +0.000 A 
ATOM      8  C15 UNL     1       3.254  -1.712  -0.339  0.00  0.00    +0.000 A 
ATOM      9  C16 UNL     1       3.087  -0.871   0.755  0.00  0.00    +0.000 A 
ATOM     10  N4  UNL     1       4.346  -2.508  -0.078  0.00  0.00    +0.000 N 
ATOM     11  C17 UNL     1       4.872  -2.200   1.149  0.00  0.00    +0.000 A 
ATOM     12  C18 UNL     1       4.111  -1.189   1.690  0.00  0.00    +0.000 A 
ATOM     13  H12 UNL     1       4.702  -3.217  -0.704  0.00  0.00    +0.000 HD
ENDBRANCH   1   4
BRANCH   2  14
ATOM     14  C8  UNL     1      -1.248   2.813   0.887  0.00  0.00    +0.000 A 
ATOM     15  C9  UNL     1      -1.388   4.031   1.520  0.00  0.00    +0.000 A 
ATOM     16  O2  UNL     1      -2.711   4.258   1.741  0.00  0.00    +0.000 OA
ATOM     17  C10 UNL     1      -3.318   3.149   1.242  0.00  0.00    +0.000 A 
ATOM     18  N3  UNL     1      -2.506   2.255   0.726  0.00  0.00    +0.000 NA
ENDBRANCH   2  14
BRANCH   1  19
ATOM     19  C6  UNL     1      -0.994   0.984  -1.398  0.00  0.00    +0.000 C 
BRANCH  19  25
ATOM     20  C1  UNL     1      -2.495  -0.703  -2.492  0.00  0.00    +0.000 A 
ATOM     21  N1  UNL     1      -3.327  -1.767  -2.545  0.00  0.00    +0.000 NA
ATOM     22  C2  UNL     1      -3.588  -2.387  -1.375  0.00  0.00    +0.000 A 
ATOM     23  C3  UNL     1      -3.060  -1.989  -0.159  0.00  0.00    +0.000 A 
ATOM     24  C4  UNL     1      -2.205  -0.890  -0.139  0.00  0.00    +0.000 A 
ATOM     25  C5  UNL     1      -1.891  -0.228  -1.329  0.00  0.00    +0.000 A 
ENDBRANCH  19  25
ENDBRANCH   1  19
TORSDOF 4
