REMARK  Name = /home/anacleto/Desktop/manuscript_Mpro/naturecomm/supplementary_file_S2/6-chemical-library/molecular_docking/3D_ligand_structure/3760.pdb
REMARK  4 active torsions:
REMARK  status: ('A' for Active; 'I' for Inactive)
REMARK    1  A    between atoms: C5_6  and  N2_7
REMARK    2  A    between atoms: N2_7  and  C6_8
REMARK    3  A    between atoms: C6_8  and  C7_9
REMARK    4  A    between atoms: C6_8  and  C13_15
REMARK                            x       y       z     vdW  Elec       q    Type
REMARK                         _______ _______ _______ _____ _____    ______ ____
ROOT
ATOM      1  C6  UNL     1      -0.558  -0.004  -0.032  0.00  0.00    +0.000 C 
ENDROOT
BRANCH   1   2
ATOM      2  C13 UNL     1       0.954   0.091   0.173  0.00  0.00    +0.000 A 
ATOM      3  C14 UNL     1       1.838  -0.815  -0.429  0.00  0.00    +0.000 A 
ATOM      4  C15 UNL     1       3.212  -0.707  -0.217  0.00  0.00    +0.000 A 
ATOM      5  C16 UNL     1       1.489   1.106   0.989  0.00  0.00    +0.000 A 
ATOM      6  C17 UNL     1       2.853   1.234   1.218  0.00  0.00    +0.000 A 
ATOM      7  C18 UNL     1       3.724   0.311   0.602  0.00  0.00    +0.000 A 
ATOM      8  N3  UNL     1       3.298   2.224   2.011  0.00  0.00    +0.000 NA
ATOM      9  C19 UNL     1       4.630   2.324   2.214  0.00  0.00    +0.000 A 
ATOM     10  C20 UNL     1       5.562   1.469   1.656  0.00  0.00    +0.000 A 
ATOM     11  C21 UNL     1       5.099   0.447   0.837  0.00  0.00    +0.000 A 
ENDBRANCH   1   2
BRANCH   1  12
ATOM     12  C7  UNL     1      -1.133  -1.246   0.647  0.00  0.00    +0.000 A 
ATOM     13  C8  UNL     1      -1.461  -1.197   2.014  0.00  0.00    +0.000 A 
ATOM     14  C9  UNL     1      -1.972  -2.321   2.667  0.00  0.00    +0.000 A 
ATOM     15  C10 UNL     1      -2.157  -3.511   1.968  0.00  0.00    +0.000 A 
ATOM     16  C11 UNL     1      -1.829  -3.581   0.616  0.00  0.00    +0.000 A 
ATOM     17  C12 UNL     1      -1.317  -2.459  -0.039  0.00  0.00    +0.000 A 
ENDBRANCH   1  12
BRANCH   1  18
ATOM     18  N2  UNL     1      -0.849   0.030  -1.474  0.00  0.00    +0.000 N 
ATOM     19  H5  UNL     1      -0.114   0.543  -1.961  0.00  0.00    +0.000 HD
BRANCH  18  25
ATOM     20  N1  UNL     1      -1.765   1.815  -2.626  0.00  0.00    +0.000 NA
ATOM     21  C1  UNL     1      -2.832   2.556  -3.000  0.00  0.00    +0.000 A 
ATOM     22  C2  UNL     1      -4.131   2.295  -2.603  0.00  0.00    +0.000 A 
ATOM     23  C3  UNL     1      -4.348   1.201  -1.777  0.00  0.00    +0.000 A 
ATOM     24  C4  UNL     1      -3.264   0.422  -1.381  0.00  0.00    +0.000 A 
ATOM     25  C5  UNL     1      -1.988   0.763  -1.815  0.00  0.00    +0.000 A 
ENDBRANCH  18  25
ENDBRANCH   1  18
TORSDOF 4
