REMARK  Name = /home/anacleto/Desktop/manuscript_Mpro/naturecomm/supplementary_file_S2/6-chemical-library/molecular_docking/3D_ligand_structure/3765.pdb
REMARK  5 active torsions:
REMARK  status: ('A' for Active; 'I' for Inactive)
REMARK    1  A    between atoms: C6_6  and  N1_7
REMARK    2  A    between atoms: N1_7  and  C7_8
REMARK    3  A    between atoms: C7_8  and  C8_9
REMARK    4  A    between atoms: C11_12  and  C12_14
REMARK    5  A    between atoms: C12_14  and  N2_15
REMARK                            x       y       z     vdW  Elec       q    Type
REMARK                         _______ _______ _______ _____ _____    ______ ____
ROOT
ATOM      1  N1  UNL     1      -0.929  -0.341   0.823  0.00  0.00    +0.000 N 
ATOM      2  C11 UNL     1       0.303  -0.409   0.162  0.00  0.00    +0.000 C 
ATOM      3  O1  UNL     1       0.814  -1.488  -0.153  0.00  0.00    +0.000 OA
ENDROOT
BRANCH   1   9
ATOM      4  C1  UNL     1      -1.972   1.499  -0.435  0.00  0.00    +0.000 A 
ATOM      5  C2  UNL     1      -2.844   2.589  -0.497  0.00  0.00    +0.000 A 
ATOM      6  C3  UNL     1      -3.564   2.973   0.631  0.00  0.00    +0.000 A 
ATOM      7  C4  UNL     1      -3.419   2.262   1.819  0.00  0.00    +0.000 A 
ATOM      8  C5  UNL     1      -2.550   1.169   1.882  0.00  0.00    +0.000 A 
ATOM      9  C6  UNL     1      -1.806   0.783   0.760  0.00  0.00    +0.000 A 
ENDBRANCH   1   9
BRANCH   1  10
ATOM     10  C7  UNL     1      -1.471  -1.594   1.366  0.00  0.00    +0.000 C 
BRANCH  10  11
ATOM     11  C8  UNL     1      -2.303  -2.309   0.339  0.00  0.00    +0.000 C 
ATOM     12  C9  UNL     1      -3.333  -3.322   0.774  0.00  0.00    +0.000 C 
ATOM     13  C10 UNL     1      -3.774  -2.014   0.177  0.00  0.00    +0.000 C 
ENDBRANCH  10  11
ENDBRANCH   1  10
BRANCH   2  14
ATOM     14  C12 UNL     1       1.023   0.898  -0.116  0.00  0.00    +0.000 C 
BRANCH  14  15
ATOM     15  N2  UNL     1       2.427   0.804   0.230  0.00  0.00    +0.000 N 
ATOM     16  N3  UNL     1       2.853   1.282   1.418  0.00  0.00    +0.000 NA
ATOM     17  N4  UNL     1       4.174   1.163   1.446  0.00  0.00    +0.000 NA
ATOM     18  C13 UNL     1       3.471   0.380  -0.550  0.00  0.00    +0.000 A 
ATOM     19  C14 UNL     1       4.578   0.617   0.257  0.00  0.00    +0.000 A 
ATOM     20  C15 UNL     1       3.567  -0.176  -1.831  0.00  0.00    +0.000 A 
ATOM     21  C16 UNL     1       4.854  -0.488  -2.286  0.00  0.00    +0.000 A 
ATOM     22  C17 UNL     1       5.982  -0.255  -1.496  0.00  0.00    +0.000 A 
ATOM     23  C18 UNL     1       5.859   0.299  -0.215  0.00  0.00    +0.000 A 
ENDBRANCH  14  15
ENDBRANCH   2  14
TORSDOF 5
