REMARK  Name = /home/anacleto/Desktop/manuscript_Mpro/naturecomm/supplementary_file_S2/6-chemical-library/molecular_docking/3D_ligand_structure/378.pdb
REMARK  0 active torsions:
REMARK  status: ('A' for Active; 'I' for Inactive)
REMARK                            x       y       z     vdW  Elec       q    Type
REMARK                         _______ _______ _______ _____ _____    ______ ____
ROOT
ATOM      1  C1  UNL     1       1.127   0.524   0.579  0.00  0.00    +0.000 C 
ATOM      2  C2  UNL     1       0.911  -0.955   0.360  0.00  0.00    +0.000 C 
ATOM      3  C3  UNL     1       1.790  -0.163  -0.583  0.00  0.00    +0.000 C 
ATOM      4  C4  UNL     1      -0.408  -1.472  -0.132  0.00  0.00    +0.000 C 
ATOM      5  C5  UNL     1      -1.546  -0.479   0.092  0.00  0.00    +0.000 C 
ATOM      6  C6  UNL     1      -1.172   0.912  -0.412  0.00  0.00    +0.000 C 
ATOM      7  C7  UNL     1      -0.004   1.489   0.386  0.00  0.00    +0.000 C 
ENDROOT
TORSDOF 0
