REMARK  Name = /home/anacleto/Desktop/manuscript_Mpro/naturecomm/supplementary_file_S2/6-chemical-library/molecular_docking/3D_ligand_structure/3784.pdb
REMARK  8 active torsions:
REMARK  status: ('A' for Active; 'I' for Inactive)
REMARK    1  A    between atoms: C3_3  and  N1_4
REMARK    2  A    between atoms: C4_5  and  C5_7
REMARK    3  A    between atoms: C5_7  and  C6_9
REMARK    4  A    between atoms: C6_9  and  N2_10
REMARK    5  A    between atoms: C7_11  and  C8_13
REMARK    6  A    between atoms: C13_19  and  C14_21
REMARK    7  A    between atoms: C14_21  and  N4_22
REMARK    8  A    between atoms: N5_25  and  C16_26
REMARK                            x       y       z     vdW  Elec       q    Type
REMARK                         _______ _______ _______ _____ _____    ______ ____
ROOT
ATOM      1  C8  UNL     1      -0.745   3.412   1.507  0.00  0.00    +0.000 C 
ATOM      2  N3  UNL     1      -0.248   2.112   2.006  0.00  0.00    +0.000 N 
ATOM      3  C9  UNL     1       0.166   2.151   3.406  0.00  0.00    +0.000 C 
ATOM      4  C10 UNL     1       0.014   3.577   3.820  0.00  0.00    +0.000 C 
ATOM      5  C11 UNL     1      -0.524   4.352   2.670  0.00  0.00    +0.000 C 
ATOM      6  C12 UNL     1       0.858   4.661   3.194  0.00  0.00    +0.000 C 
ATOM      7  C13 UNL     1       0.062   1.084   1.139  0.00  0.00    +0.000 C 
ATOM      8  O4  UNL     1      -0.133   1.193  -0.078  0.00  0.00    +0.000 OA
ENDROOT
BRANCH   1  10
ATOM      9  N2  UNL     1      -2.610   2.316   0.278  0.00  0.00    +0.000 N 
ATOM     10  C7  UNL     1      -2.240   3.384   1.064  0.00  0.00    +0.000 C 
ATOM     11  O3  UNL     1      -3.023   4.306   1.296  0.00  0.00    +0.000 OA
ATOM     12  H9  UNL     1      -1.862   1.737  -0.109  0.00  0.00    +0.000 HD
BRANCH   9  13
ATOM     13  C6  UNL     1      -3.923   2.244  -0.340  0.00  0.00    +0.000 C 
BRANCH  13  14
ATOM     14  C5  UNL     1      -4.234   0.835  -0.797  0.00  0.00    +0.000 C 
ATOM     15  O2  UNL     1      -3.592  -0.174  -0.503  0.00  0.00    +0.000 OA
BRANCH  14  17
ATOM     16  N1  UNL     1      -5.779  -0.621  -1.975  0.00  0.00    +0.000 N 
ATOM     17  C4  UNL     1      -5.484   0.688  -1.658  0.00  0.00    +0.000 C 
ATOM     18  O1  UNL     1      -6.110   1.677  -2.008  0.00  0.00    +0.000 OA
ATOM     19  H6  UNL     1      -5.123  -1.330  -1.653  0.00  0.00    +0.000 HD
BRANCH  16  22
ATOM     20  C1  UNL     1      -7.437  -2.392  -2.737  0.00  0.00    +0.000 C 
ATOM     21  C2  UNL     1      -8.235  -1.261  -2.159  0.00  0.00    +0.000 C 
ATOM     22  C3  UNL     1      -6.892  -0.991  -2.783  0.00  0.00    +0.000 C 
ENDBRANCH  16  22
ENDBRANCH  14  17
ENDBRANCH  13  14
ENDBRANCH   9  13
ENDBRANCH   1  10
BRANCH   7  23
ATOM     23  C14 UNL     1       0.505  -0.255   1.745  0.00  0.00    +0.000 C 
BRANCH  23  24
ATOM     24  N4  UNL     1       1.210  -1.046   0.754  0.00  0.00    +0.000 N 
ATOM     25  C15 UNL     1       2.578  -0.973   0.684  0.00  0.00    +0.000 C 
ATOM     26  O5  UNL     1       3.272  -0.332   1.462  0.00  0.00    +0.000 OA
ATOM     27  N5  UNL     1       3.052  -1.725  -0.360  0.00  0.00    +0.000 N 
ATOM     28  H19 UNL     1       0.763  -1.071  -0.155  0.00  0.00    +0.000 HD
ATOM     29  H20 UNL     1       2.444  -2.485  -0.625  0.00  0.00    +0.000 HD
BRANCH  27  30
ATOM     30  C16 UNL     1       4.480  -1.920  -0.566  0.00  0.00    +0.000 C 
ATOM     31  C17 UNL     1       4.757  -2.332  -2.023  0.00  0.00    +0.000 C 
ATOM     32  C18 UNL     1       6.041  -3.148  -2.199  0.00  0.00    +0.000 C 
ATOM     33  C19 UNL     1       7.083  -2.804  -1.146  0.00  0.00    +0.000 C 
ATOM     34  C20 UNL     1       6.573  -3.079   0.270  0.00  0.00    +0.000 C 
ATOM     35  C21 UNL     1       5.057  -2.942   0.419  0.00  0.00    +0.000 C 
ENDBRANCH  27  30
ENDBRANCH  23  24
ENDBRANCH   7  23
TORSDOF 8
