REMARK  Name = /home/anacleto/Desktop/manuscript_Mpro/naturecomm/supplementary_file_S2/6-chemical-library/molecular_docking/3D_ligand_structure/3793.pdb
REMARK  7 active torsions:
REMARK  status: ('A' for Active; 'I' for Inactive)
REMARK    1  A    between atoms: C3_5  and  C4_6
REMARK    2  A    between atoms: C4_6  and  C5_8
REMARK    3  A    between atoms: N3_10  and  C6_11
REMARK    4  A    between atoms: C10_17  and  C12_20
REMARK    5  A    between atoms: C12_20  and  S3_21
REMARK    6  A    between atoms: S3_21  and  C13_22
REMARK    7  A    between atoms: C13_22  and  C14_24
REMARK                            x       y       z     vdW  Elec       q    Type
REMARK                         _______ _______ _______ _____ _____    ______ ____
ROOT
ATOM      1  C6  UNL     1      -1.254   0.650   3.001  0.00  0.00    +0.000 C 
ATOM      2  C7  UNL     1      -0.143   1.750   3.128  0.00  0.00    +0.000 C 
ATOM      3  O2  UNL     1      -0.073   2.915   3.437  0.00  0.00    +0.000 OA
ATOM      4  N4  UNL     1       0.770   0.886   2.645  0.00  0.00    +0.000 N 
ATOM      5  C8  UNL     1      -0.073  -0.290   2.602  0.00  0.00    +0.000 C 
ATOM      6  C9  UNL     1       2.036   0.957   2.183  0.00  0.00    +0.000 C 
ATOM      7  C10 UNL     1       2.571  -0.019   1.425  0.00  0.00    +0.000 C 
ATOM      8  C11 UNL     1       1.798  -1.244   0.975  0.00  0.00    +0.000 C 
ATOM      9  S2  UNL     1      -0.008  -0.967   0.920  0.00  0.00    +0.000 S 
ENDROOT
BRANCH   1  12
ATOM     10  C5  UNL     1      -3.340   0.026   1.782  0.00  0.00    +0.000 C 
ATOM     11  O1  UNL     1      -3.535  -0.980   2.445  0.00  0.00    +0.000 OA
ATOM     12  N3  UNL     1      -2.308   0.915   1.993  0.00  0.00    +0.000 N 
ATOM     13  H4  UNL     1      -2.165   1.585   1.238  0.00  0.00    +0.000 HD
BRANCH  10  14
ATOM     14  C4  UNL     1      -4.202   0.393   0.566  0.00  0.00    +0.000 C 
ATOM     15  N2  UNL     1      -3.658   1.156  -0.344  0.00  0.00    +0.000 NA
ATOM     16  H3  UNL     1      -4.329   1.371  -1.087  0.00  0.00    +0.000 HD
BRANCH  14  21
ATOM     17  N1  UNL     1      -6.383  -0.248   1.561  0.00  0.00    +0.000 NA
ATOM     18  C1  UNL     1      -7.577  -0.662   1.203  0.00  0.00    +0.000 A 
ATOM     19  S1  UNL     1      -7.838  -0.833  -0.481  0.00  0.00    +0.000 S 
ATOM     20  C2  UNL     1      -6.224  -0.326  -0.761  0.00  0.00    +0.000 A 
ATOM     21  C3  UNL     1      -5.582  -0.062   0.439  0.00  0.00    +0.000 A 
ENDBRANCH  14  21
ENDBRANCH  10  14
ENDBRANCH   1  12
BRANCH   7  22
ATOM     22  C12 UNL     1       4.013   0.059   0.984  0.00  0.00    +0.000 C 
BRANCH  22  23
ATOM     23  S3  UNL     1       4.157   0.808  -0.656  0.00  0.00    +0.000 S 
BRANCH  23  24
ATOM     24  C13 UNL     1       4.313  -0.624  -1.669  0.00  0.00    +0.000 C 
ATOM     25  O3  UNL     1       4.416  -1.744  -1.179  0.00  0.00    +0.000 OA
BRANCH  24  26
ATOM     26  C14 UNL     1       4.312  -0.366  -3.094  0.00  0.00    +0.000 A 
ATOM     27  C15 UNL     1       4.402  -1.251  -4.157  0.00  0.00    +0.000 A 
ATOM     28  C16 UNL     1       4.354  -0.481  -5.344  0.00  0.00    +0.000 A 
ATOM     29  C17 UNL     1       4.239   0.827  -4.943  0.00  0.00    +0.000 A 
ATOM     30  O4  UNL     1       4.213   0.910  -3.589  0.00  0.00    +0.000 OA
ENDBRANCH  24  26
ENDBRANCH  23  24
ENDBRANCH  22  23
ENDBRANCH   7  22
TORSDOF 7
