REMARK  Name = /home/anacleto/Desktop/manuscript_Mpro/naturecomm/supplementary_file_S2/6-chemical-library/molecular_docking/3D_ligand_structure/3796.pdb
REMARK  6 active torsions:
REMARK  status: ('A' for Active; 'I' for Inactive)
REMARK    1  A    between atoms: C9_10  and  N2_11
REMARK    2  A    between atoms: C10_12  and  C11_14
REMARK    3  A    between atoms: C11_14  and  N3_15
REMARK    4  A    between atoms: N3_15  and  C12_16
REMARK    5  A    between atoms: C12_16  and  C13_17
REMARK    6  A    between atoms: C16_21  and  C17_22
REMARK                            x       y       z     vdW  Elec       q    Type
REMARK                         _______ _______ _______ _____ _____    ______ ____
ROOT
ATOM      1  C11 UNL     1       1.604   0.910   0.507  0.00  0.00    +0.000 C 
ENDROOT
BRANCH   1   3
ATOM      2  N2  UNL     1       3.930   0.204   0.300  0.00  0.00    +0.000 N 
ATOM      3  C10 UNL     1       2.690  -0.140   0.811  0.00  0.00    +0.000 C 
ATOM      4  O1  UNL     1       2.412  -1.178   1.412  0.00  0.00    +0.000 OA
ATOM      5  H7  UNL     1       3.983   1.098  -0.163  0.00  0.00    +0.000 HD
BRANCH   2  15
ATOM      6  C1  UNL     1       6.419   1.167  -0.987  0.00  0.00    +0.000 A 
ATOM      7  C2  UNL     1       7.614   1.575  -1.594  0.00  0.00    +0.000 A 
ATOM      8  C3  UNL     1       8.734   0.757  -1.546  0.00  0.00    +0.000 A 
ATOM      9  C4  UNL     1       8.661  -0.469  -0.889  0.00  0.00    +0.000 A 
ATOM     10  C5  UNL     1       7.466  -0.888  -0.276  0.00  0.00    +0.000 A 
ATOM     11  C6  UNL     1       6.304  -0.078  -0.309  0.00  0.00    +0.000 A 
ATOM     12  C7  UNL     1       7.399  -2.117   0.379  0.00  0.00    +0.000 A 
ATOM     13  N1  UNL     1       6.299  -2.600   0.990  0.00  0.00    +0.000 NA
ATOM     14  C8  UNL     1       5.193  -1.820   0.949  0.00  0.00    +0.000 A 
ATOM     15  C9  UNL     1       5.121  -0.571   0.328  0.00  0.00    +0.000 A 
ENDBRANCH   2  15
ENDBRANCH   1   3
BRANCH   1  16
ATOM     16  N3  UNL     1       0.685   1.008   1.648  0.00  0.00    +0.000 NA
ATOM     17  H10 UNL     1       0.512   0.061   2.000  0.00  0.00    +0.000 HD
BRANCH  16  18
ATOM     18  C12 UNL     1      -0.578   1.668   1.288  0.00  0.00    +0.000 C 
BRANCH  18  19
ATOM     19  C13 UNL     1      -1.570   0.831   0.451  0.00  0.00    +0.000 C 
ATOM     20  O2  UNL     1      -2.686   1.672   0.091  0.00  0.00    +0.000 OA
ATOM     21  C14 UNL     1      -2.140  -0.382   1.182  0.00  0.00    +0.000 C 
ATOM     22  C15 UNL     1      -3.583  -0.009   1.436  0.00  0.00    +0.000 C 
ATOM     23  C16 UNL     1      -3.892   0.926   0.280  0.00  0.00    +0.000 C 
BRANCH  23  24
ATOM     24  C17 UNL     1      -4.334   0.133  -0.976  0.00  0.00    +0.000 C 
ATOM     25  O3  UNL     1      -3.535  -0.167  -1.867  0.00  0.00    +0.000 OA
ATOM     26  N4  UNL     1      -5.660  -0.254  -1.039  0.00  0.00    +0.000 N 
ATOM     27  C18 UNL     1      -6.168  -0.989  -2.185  0.00  0.00    +0.000 C 
ATOM     28  C19 UNL     1      -7.679  -0.845  -2.089  0.00  0.00    +0.000 C 
ATOM     29  C20 UNL     1      -7.915  -0.726  -0.590  0.00  0.00    +0.000 C 
ATOM     30  C21 UNL     1      -6.730   0.104  -0.124  0.00  0.00    +0.000 C 
ENDBRANCH  23  24
ENDBRANCH  18  19
ENDBRANCH  16  18
ENDBRANCH   1  16
TORSDOF 6
