REMARK  Name = /home/anacleto/Desktop/manuscript_Mpro/naturecomm/supplementary_file_S2/6-chemical-library/molecular_docking/3D_ligand_structure/3798.pdb
REMARK  7 active torsions:
REMARK  status: ('A' for Active; 'I' for Inactive)
REMARK    1  A    between atoms: C6_6  and  C7_7
REMARK    2  A    between atoms: C7_7  and  C8_8
REMARK    3  A    between atoms: C8_8  and  N1_9
REMARK    4  A    between atoms: C9_10  and  C10_12
REMARK    5  A    between atoms: C10_12  and  N2_13
REMARK    6  A    between atoms: N2_13  and  C11_14
REMARK    7  A    between atoms: C16_19  and  C17_20
REMARK                            x       y       z     vdW  Elec       q    Type
REMARK                         _______ _______ _______ _____ _____    ______ ____
ROOT
ATOM      1  C11 UNL     1      -0.833  -0.826   0.626  0.00  0.00    +0.000 A 
ATOM      2  C12 UNL     1      -1.334  -1.249  -0.613  0.00  0.00    +0.000 A 
ATOM      3  C13 UNL     1      -2.698  -1.168  -0.915  0.00  0.00    +0.000 A 
ATOM      4  C14 UNL     1      -1.737  -0.256   1.529  0.00  0.00    +0.000 A 
ATOM      5  C15 UNL     1      -3.105  -0.172   1.232  0.00  0.00    +0.000 A 
ATOM      6  C16 UNL     1      -3.597  -0.624   0.006  0.00  0.00    +0.000 A 
ENDROOT
BRANCH   6   7
ATOM      7  C17 UNL     1      -5.017  -0.534  -0.323  0.00  0.00    +0.000 A 
ATOM      8  N3  UNL     1      -5.657  -1.564  -0.911  0.00  0.00    +0.000 NA
ATOM      9  N4  UNL     1      -6.926  -1.148  -1.062  0.00  0.00    +0.000 N 
ATOM     10  C18 UNL     1      -7.111   0.124  -0.637  0.00  0.00    +0.000 A 
ATOM     11  C19 UNL     1      -5.905   0.560  -0.141  0.00  0.00    +0.000 A 
ATOM     12  C20 UNL     1      -8.346   0.938  -0.667  0.00  0.00    +0.000 C 
ATOM     13  C21 UNL     1      -7.929   2.419  -0.505  0.00  0.00    +0.000 C 
ATOM     14  O2  UNL     1      -7.013   2.599   0.595  0.00  0.00    +0.000 OA
ATOM     15  C22 UNL     1      -5.737   1.943   0.374  0.00  0.00    +0.000 C 
ATOM     16  H18 UNL     1      -7.597  -1.789  -1.473  0.00  0.00    +0.000 HD
ENDBRANCH   6   7
BRANCH   1  17
ATOM     17  N2  UNL     1       0.553  -0.870   0.830  0.00  0.00    +0.000 N 
ATOM     18  H13 UNL     1       0.955  -1.658   0.319  0.00  0.00    +0.000 HD
BRANCH  17  19
ATOM     19  C10 UNL     1       1.067  -0.845   2.216  0.00  0.00    +0.000 C 
BRANCH  19  21
ATOM     20  N1  UNL     1       3.174  -0.562   1.006  0.00  0.00    +0.000 N 
ATOM     21  C9  UNL     1       2.603  -0.884   2.224  0.00  0.00    +0.000 C 
ATOM     22  O1  UNL     1       3.251  -1.148   3.233  0.00  0.00    +0.000 OA
ATOM     23  H10 UNL     1       2.536  -0.095   0.364  0.00  0.00    +0.000 HD
BRANCH  20  24
ATOM     24  C8  UNL     1       4.600  -0.329   0.880  0.00  0.00    +0.000 C 
BRANCH  24  25
ATOM     25  C7  UNL     1       5.057  -0.421  -0.575  0.00  0.00    +0.000 C 
BRANCH  25  31
ATOM     26  C1  UNL     1       7.467  -1.173  -0.547  0.00  0.00    +0.000 A 
ATOM     27  C2  UNL     1       8.833  -0.913  -0.665  0.00  0.00    +0.000 A 
ATOM     28  C3  UNL     1       9.276   0.376  -0.955  0.00  0.00    +0.000 A 
ATOM     29  C4  UNL     1       8.354   1.407  -1.125  0.00  0.00    +0.000 A 
ATOM     30  C5  UNL     1       6.987   1.150  -1.008  0.00  0.00    +0.000 A 
ATOM     31  C6  UNL     1       6.531  -0.144  -0.722  0.00  0.00    +0.000 A 
ENDBRANCH  25  31
ENDBRANCH  24  25
ENDBRANCH  20  24
ENDBRANCH  19  21
ENDBRANCH  17  19
ENDBRANCH   1  17
TORSDOF 7
