REMARK  Name = /home/anacleto/Desktop/manuscript_Mpro/naturecomm/supplementary_file_S2/6-chemical-library/molecular_docking/3D_ligand_structure/380.pdb
REMARK  0 active torsions:
REMARK  status: ('A' for Active; 'I' for Inactive)
REMARK                            x       y       z     vdW  Elec       q    Type
REMARK                         _______ _______ _______ _____ _____    ______ ____
ROOT
ATOM      1  C1  UNL     1       0.193  -0.833  -0.133  0.00  0.00    +0.000 C 
ATOM      2  C2  UNL     1      -1.068  -0.288   0.627  0.00  0.00    +0.000 C 
ATOM      3  C3  UNL     1      -0.440   1.045   0.079  0.00  0.00    +0.000 C 
ATOM      4  C4  UNL     1      -0.255   0.196  -1.230  0.00  0.00    +0.000 C 
ATOM      5  O1  UNL     1       0.869   1.183   0.689  0.00  0.00    +0.000 OA
ATOM      6  C5  UNL     1       1.382  -0.153   0.565  0.00  0.00    +0.000 C 
ENDROOT
TORSDOF 0
