REMARK  Name = /home/anacleto/Desktop/manuscript_Mpro/naturecomm/supplementary_file_S2/6-chemical-library/molecular_docking/3D_ligand_structure/3801.pdb
REMARK  5 active torsions:
REMARK  status: ('A' for Active; 'I' for Inactive)
REMARK    1  A    between atoms: C9_10  and  N2_11
REMARK    2  A    between atoms: C10_12  and  C11_14
REMARK    3  A    between atoms: C11_14  and  C12_15
REMARK    4  A    between atoms: C14_17  and  O2_21
REMARK    5  A    between atoms: O2_21  and  C18_22
REMARK                            x       y       z     vdW  Elec       q    Type
REMARK                         _______ _______ _______ _____ _____    ______ ____
ROOT
ATOM      1  C11 UNL     1       0.370   1.238  -2.008  0.00  0.00    +0.000 C 
ENDROOT
BRANCH   1   2
ATOM      2  C12 UNL     1       0.842  -0.162  -1.687  0.00  0.00    +0.000 A 
ATOM      3  C13 UNL     1       1.713  -0.383  -0.609  0.00  0.00    +0.000 A 
ATOM      4  C14 UNL     1       2.158  -1.676  -0.322  0.00  0.00    +0.000 A 
ATOM      5  C15 UNL     1       1.717  -2.759  -1.081  0.00  0.00    +0.000 A 
ATOM      6  C16 UNL     1       0.860  -2.546  -2.160  0.00  0.00    +0.000 A 
ATOM      7  C17 UNL     1       0.428  -1.252  -2.467  0.00  0.00    +0.000 A 
BRANCH   4   8
ATOM      8  O2  UNL     1       2.991  -1.942   0.737  0.00  0.00    +0.000 OA
BRANCH   8   9
ATOM      9  C18 UNL     1       4.181  -1.237   0.845  0.00  0.00    +0.000 A 
ATOM     10  C19 UNL     1       4.708  -0.962   2.047  0.00  0.00    +0.000 A 
ATOM     11  C20 UNL     1       5.961  -0.252   2.146  0.00  0.00    +0.000 A 
ATOM     12  C21 UNL     1       6.614   0.137   1.040  0.00  0.00    +0.000 A 
ATOM     13  C22 UNL     1       6.045  -0.182  -0.294  0.00  0.00    +0.000 A 
ATOM     14  O3  UNL     1       6.622   0.150  -1.324  0.00  0.00    +0.000 OA
ATOM     15  N3  UNL     1       4.856  -0.867  -0.292  0.00  0.00    +0.000 N 
ATOM     16  H17 UNL     1       4.476  -1.105  -1.199  0.00  0.00    +0.000 HD
ENDBRANCH   8   9
ENDBRANCH   4   8
ENDBRANCH   1   2
BRANCH   1  18
ATOM     17  N2  UNL     1      -1.663   1.234  -0.690  0.00  0.00    +0.000 N 
ATOM     18  C10 UNL     1      -0.447   1.867  -0.888  0.00  0.00    +0.000 C 
ATOM     19  O1  UNL     1      -0.028   2.845  -0.278  0.00  0.00    +0.000 OA
ATOM     20  H7  UNL     1      -1.809   0.391  -1.228  0.00  0.00    +0.000 HD
BRANCH  17  30
ATOM     21  C1  UNL     1      -4.107  -0.410  -0.404  0.00  0.00    +0.000 A 
ATOM     22  C2  UNL     1      -5.291  -1.143  -0.257  0.00  0.00    +0.000 A 
ATOM     23  C3  UNL     1      -6.272  -0.711   0.624  0.00  0.00    +0.000 A 
ATOM     24  C4  UNL     1      -6.067   0.452   1.362  0.00  0.00    +0.000 A 
ATOM     25  C5  UNL     1      -4.881   1.198   1.220  0.00  0.00    +0.000 A 
ATOM     26  C6  UNL     1      -3.865   0.788   0.323  0.00  0.00    +0.000 A 
ATOM     27  C7  UNL     1      -4.680   2.363   1.960  0.00  0.00    +0.000 A 
ATOM     28  N1  UNL     1      -3.581   3.140   1.884  0.00  0.00    +0.000 NA
ATOM     29  C8  UNL     1      -2.620   2.741   1.019  0.00  0.00    +0.000 A 
ATOM     30  C9  UNL     1      -2.692   1.597   0.219  0.00  0.00    +0.000 A 
ENDBRANCH  17  30
ENDBRANCH   1  18
TORSDOF 5
