REMARK  Name = /home/anacleto/Desktop/manuscript_Mpro/naturecomm/supplementary_file_S2/6-chemical-library/molecular_docking/3D_ligand_structure/3824.pdb
REMARK  5 active torsions:
REMARK  status: ('A' for Active; 'I' for Inactive)
REMARK    1  A    between atoms: C3_5  and  C4_6
REMARK    2  A    between atoms: C4_6  and  C5_8
REMARK    3  A    between atoms: N3_10  and  C6_11
REMARK    4  A    between atoms: C10_17  and  C12_20
REMARK    5  A    between atoms: C13_21  and  C14_22
REMARK                            x       y       z     vdW  Elec       q    Type
REMARK                         _______ _______ _______ _____ _____    ______ ____
ROOT
ATOM      1  C6  UNL     1      -1.196  -2.452   0.530  0.00  0.00    +0.000 C 
ATOM      2  C7  UNL     1      -0.077  -2.733  -0.527  0.00  0.00    +0.000 C 
ATOM      3  O2  UNL     1       0.069  -3.456  -1.484  0.00  0.00    +0.000 OA
ATOM      4  N4  UNL     1       0.666  -1.726  -0.024  0.00  0.00    +0.000 N 
ATOM      5  C8  UNL     1      -0.228  -1.338   1.047  0.00  0.00    +0.000 C 
ATOM      6  C9  UNL     1       1.684  -0.981  -0.515  0.00  0.00    +0.000 C 
ATOM      7  C10 UNL     1       1.926   0.273  -0.085  0.00  0.00    +0.000 C 
ATOM      8  C11 UNL     1       1.016   1.007   0.884  0.00  0.00    +0.000 C 
ATOM      9  S2  UNL     1      -0.710   0.401   0.811  0.00  0.00    +0.000 S 
ENDROOT
BRANCH   1  12
ATOM     10  C5  UNL     1      -3.543  -1.664   0.809  0.00  0.00    +0.000 C 
ATOM     11  O1  UNL     1      -3.523  -1.744   2.026  0.00  0.00    +0.000 OA
ATOM     12  N3  UNL     1      -2.511  -2.033  -0.027  0.00  0.00    +0.000 N 
ATOM     13  H4  UNL     1      -2.607  -1.833  -1.020  0.00  0.00    +0.000 HD
BRANCH  10  14
ATOM     14  C4  UNL     1      -4.765  -1.130   0.063  0.00  0.00    +0.000 C 
ATOM     15  N2  UNL     1      -5.289  -1.862  -0.877  0.00  0.00    +0.000 NA
ATOM     16  H3  UNL     1      -4.809  -2.766  -0.939  0.00  0.00    +0.000 HD
BRANCH  14  21
ATOM     17  N1  UNL     1      -6.384   0.714  -0.384  0.00  0.00    +0.000 NA
ATOM     18  C1  UNL     1      -6.699   1.910   0.057  0.00  0.00    +0.000 A 
ATOM     19  S1  UNL     1      -5.751   2.507   1.351  0.00  0.00    +0.000 S 
ATOM     20  C2  UNL     1      -4.848   1.048   1.335  0.00  0.00    +0.000 A 
ATOM     21  C3  UNL     1      -5.317   0.192   0.351  0.00  0.00    +0.000 A 
ENDBRANCH  14  21
ENDBRANCH  10  14
ENDBRANCH   1  12
BRANCH   7  22
ATOM     22  C12 UNL     1       3.026   1.063  -0.626  0.00  0.00    +0.000 C 
ATOM     23  C13 UNL     1       4.290   0.619  -0.727  0.00  0.00    +0.000 C 
BRANCH  23  24
ATOM     24  C14 UNL     1       5.378   1.386  -1.241  0.00  0.00    +0.000 A 
ATOM     25  C15 UNL     1       6.697   0.980  -1.406  0.00  0.00    +0.000 A 
ATOM     26  N5  UNL     1       7.580   1.909  -1.921  0.00  0.00    +0.000 NA
ATOM     27  C16 UNL     1       6.934   3.028  -2.150  0.00  0.00    +0.000 A 
ATOM     28  S3  UNL     1       5.267   3.029  -1.769  0.00  0.00    +0.000 S 
ENDBRANCH  23  24
ENDBRANCH   7  22
TORSDOF 5
