REMARK  Name = /home/anacleto/Desktop/manuscript_Mpro/naturecomm/supplementary_file_S2/6-chemical-library/molecular_docking/3D_ligand_structure/3834.pdb
REMARK  4 active torsions:
REMARK  status: ('A' for Active; 'I' for Inactive)
REMARK    1  A    between atoms: C3_5  and  C4_6
REMARK    2  A    between atoms: N2_8  and  C5_9
REMARK    3  A    between atoms: C5_9  and  C6_10
REMARK    4  A    between atoms: C13_19  and  N5_21
REMARK                            x       y       z     vdW  Elec       q    Type
REMARK                         _______ _______ _______ _____ _____    ______ ____
ROOT
ATOM      1  C6  UNL     1       0.254  -0.049  -0.553  0.00  0.00    +0.000 A 
ATOM      2  C7  UNL     1       0.612   1.243  -1.194  0.00  0.00    +0.000 A 
ATOM      3  O3  UNL     1       1.772   1.438  -1.565  0.00  0.00    +0.000 OA
ATOM      4  N3  UNL     1      -0.406   2.168  -1.327  0.00  0.00    +0.000 N 
ATOM      5  C8  UNL     1      -1.674   1.842  -0.892  0.00  0.00    +0.000 A 
ATOM      6  C9  UNL     1      -0.138   3.410  -1.895  0.00  0.00    +0.000 A 
ATOM      7  C10 UNL     1      -1.092   4.338  -2.042  0.00  0.00    +0.000 A 
ATOM      8  C11 UNL     1      -2.434   4.059  -1.606  0.00  0.00    +0.000 A 
ATOM      9  C12 UNL     1      -2.735   2.877  -1.056  0.00  0.00    +0.000 A 
ATOM     10  C13 UNL     1      -1.034  -0.262  -0.206  0.00  0.00    +0.000 A 
ATOM     11  N4  UNL     1      -1.994   0.706  -0.363  0.00  0.00    +0.000 NA
ENDROOT
BRANCH  10  12
ATOM     12  N5  UNL     1      -1.420  -1.491   0.350  0.00  0.00    +0.000 N 
ATOM     13  C14 UNL     1      -2.473  -1.510   1.399  0.00  0.00    +0.000 C 
ATOM     14  C15 UNL     1      -3.876  -1.651   0.787  0.00  0.00    +0.000 C 
ATOM     15  O4  UNL     1      -3.972  -2.820  -0.046  0.00  0.00    +0.000 OA
ATOM     16  C16 UNL     1      -2.999  -2.753  -1.101  0.00  0.00    +0.000 C 
ATOM     17  C17 UNL     1      -1.571  -2.672  -0.540  0.00  0.00    +0.000 C 
ENDBRANCH  10  12
BRANCH   1  18
ATOM     18  C5  UNL     1       1.380  -1.025  -0.369  0.00  0.00    +0.000 C 
BRANCH  18  21
ATOM     19  C4  UNL     1       3.294  -1.287   1.155  0.00  0.00    +0.000 C 
ATOM     20  O2  UNL     1       3.200  -2.508   1.222  0.00  0.00    +0.000 OA
ATOM     21  N2  UNL     1       2.398  -0.477   0.499  0.00  0.00    +0.000 N 
ATOM     22  H3  UNL     1       2.724   0.472   0.323  0.00  0.00    +0.000 HD
BRANCH  19  27
ATOM     23  N1  UNL     1       4.567   0.826   1.642  0.00  0.00    +0.000 NA
ATOM     24  C1  UNL     1       5.675   1.049   2.313  0.00  0.00    +0.000 A 
ATOM     25  O1  UNL     1       6.256  -0.056   2.858  0.00  0.00    +0.000 OA
ATOM     26  C2  UNL     1       5.430  -1.075   2.491  0.00  0.00    +0.000 A 
ATOM     27  C3  UNL     1       4.397  -0.547   1.751  0.00  0.00    +0.000 A 
ENDBRANCH  19  27
ENDBRANCH  18  21
ENDBRANCH   1  18
TORSDOF 4
