REMARK  Name = /home/anacleto/Desktop/manuscript_Mpro/naturecomm/supplementary_file_S2/6-chemical-library/molecular_docking/3D_ligand_structure/3840.pdb
REMARK  3 active torsions:
REMARK  status: ('A' for Active; 'I' for Inactive)
REMARK    1  A    between atoms: C9_11  and  C10_12
REMARK    2  A    between atoms: N3_17  and  C15_20
REMARK    3  A    between atoms: C15_20  and  C16_21
REMARK                            x       y       z     vdW  Elec       q    Type
REMARK                         _______ _______ _______ _____ _____    ______ ____
ROOT
ATOM      1  C10 UNL     1      -1.916   0.661   1.745  0.00  0.00    +0.000 C 
ATOM      2  O2  UNL     1      -1.969   1.492   2.649  0.00  0.00    +0.000 OA
ATOM      3  N2  UNL     1      -0.733   0.163   1.231  0.00  0.00    +0.000 N 
ATOM      4  C11 UNL     1      -0.628  -0.912   0.235  0.00  0.00    +0.000 C 
ATOM      5  C12 UNL     1       0.750  -1.596   0.268  0.00  0.00    +0.000 C 
ATOM      6  N3  UNL     1       1.860  -0.659   0.020  0.00  0.00    +0.000 NA
ATOM      7  C13 UNL     1       1.650   0.652   0.673  0.00  0.00    +0.000 C 
ATOM      8  C14 UNL     1       0.533   0.695   1.733  0.00  0.00    +0.000 C 
ENDROOT
BRANCH   1  19
ATOM      9  C1  UNL     1      -3.111   1.560  -0.928  0.00  0.00    +0.000 A 
ATOM     10  C2  UNL     1      -3.674   1.925  -2.154  0.00  0.00    +0.000 A 
ATOM     11  C3  UNL     1      -4.849   1.318  -2.596  0.00  0.00    +0.000 A 
ATOM     12  C4  UNL     1      -5.470   0.345  -1.813  0.00  0.00    +0.000 A 
ATOM     13  C5  UNL     1      -4.905  -0.017  -0.589  0.00  0.00    +0.000 A 
ATOM     14  C6  UNL     1      -3.717   0.577  -0.137  0.00  0.00    +0.000 A 
ATOM     15  N1  UNL     1      -5.538  -0.983   0.203  0.00  0.00    +0.000 N 
ATOM     16  C7  UNL     1      -5.076  -1.385   1.425  0.00  0.00    +0.000 A 
ATOM     17  O1  UNL     1      -5.654  -2.231   2.098  0.00  0.00    +0.000 OA
ATOM     18  C8  UNL     1      -3.823  -0.767   1.905  0.00  0.00    +0.000 A 
ATOM     19  C9  UNL     1      -3.175   0.140   1.157  0.00  0.00    +0.000 A 
ATOM     20  H5  UNL     1      -6.401  -1.412  -0.105  0.00  0.00    +0.000 HD
ENDBRANCH   1  19
BRANCH   6  21
ATOM     21  C15 UNL     1       3.148  -1.276   0.375  0.00  0.00    +0.000 C 
BRANCH  21  22
ATOM     22  C16 UNL     1       4.345  -0.535  -0.184  0.00  0.00    +0.000 A 
ATOM     23  C17 UNL     1       4.424  -0.229  -1.551  0.00  0.00    +0.000 A 
ATOM     24  C18 UNL     1       5.538   0.435  -2.068  0.00  0.00    +0.000 A 
ATOM     25  C19 UNL     1       6.589   0.793  -1.226  0.00  0.00    +0.000 A 
ATOM     26  C20 UNL     1       6.527   0.487   0.132  0.00  0.00    +0.000 A 
ATOM     27  C21 UNL     1       5.414  -0.177   0.651  0.00  0.00    +0.000 A 
ENDBRANCH  21  22
ENDBRANCH   6  21
TORSDOF 3
