REMARK  Name = /home/anacleto/Desktop/manuscript_Mpro/naturecomm/supplementary_file_S2/6-chemical-library/molecular_docking/3D_ligand_structure/3843.pdb
REMARK  4 active torsions:
REMARK  status: ('A' for Active; 'I' for Inactive)
REMARK    1  A    between atoms: N2_6  and  C5_7
REMARK    2  A    between atoms: C10_12  and  C11_13
REMARK    3  A    between atoms: C11_13  and  C12_14
REMARK    4  A    between atoms: N3_16  and  C13_17
REMARK                            x       y       z     vdW  Elec       q    Type
REMARK                         _______ _______ _______ _____ _____    ______ ____
ROOT
ATOM      1  C11 UNL     1       0.040  -3.041  -1.363  0.00  0.00    +0.000 C 
ENDROOT
BRANCH   1   7
ATOM      2  C5  UNL     1      -2.226   0.051  -1.354  0.00  0.00    +0.000 A 
ATOM      3  C6  UNL     1      -1.902   0.581  -2.613  0.00  0.00    +0.000 A 
ATOM      4  C7  UNL     1      -0.971  -0.033  -3.456  0.00  0.00    +0.000 A 
ATOM      5  C8  UNL     1      -0.339  -1.207  -3.060  0.00  0.00    +0.000 A 
ATOM      6  C9  UNL     1      -1.576  -1.137  -0.982  0.00  0.00    +0.000 A 
ATOM      7  C10 UNL     1      -0.635  -1.768  -1.815  0.00  0.00    +0.000 A 
BRANCH   2  13
ATOM      8  C1  UNL     1      -2.907   2.094  -0.221  0.00  0.00    +0.000 C 
ATOM      9  C2  UNL     1      -4.156   2.777   0.389  0.00  0.00    +0.000 C 
ATOM     10  N1  UNL     1      -4.716   2.061   1.551  0.00  0.00    +0.000 NA
ATOM     11  C3  UNL     1      -4.990   0.664   1.168  0.00  0.00    +0.000 C 
ATOM     12  C4  UNL     1      -3.755  -0.066   0.589  0.00  0.00    +0.000 C 
ATOM     13  N2  UNL     1      -3.201   0.679  -0.563  0.00  0.00    +0.000 N 
ATOM     14  H5  UNL     1      -5.591   2.508   1.826  0.00  0.00    +0.000 HD
ENDBRANCH   2  13
ENDBRANCH   1   7
BRANCH   1  15
ATOM     15  C12 UNL     1       0.941  -2.884  -0.143  0.00  0.00    +0.000 C 
ATOM     16  O1  UNL     1       0.907  -3.716   0.760  0.00  0.00    +0.000 OA
ATOM     17  N3  UNL     1       1.800  -1.802  -0.219  0.00  0.00    +0.000 N 
ATOM     18  H16 UNL     1       1.662  -1.190  -1.011  0.00  0.00    +0.000 HD
BRANCH  17  19
ATOM     19  C13 UNL     1       2.789  -1.405   0.720  0.00  0.00    +0.000 A 
ATOM     20  C14 UNL     1       3.025  -2.105   1.906  0.00  0.00    +0.000 A 
ATOM     21  N4  UNL     1       3.951  -1.763   2.833  0.00  0.00    +0.000 NA
ATOM     22  C15 UNL     1       4.688  -0.665   2.567  0.00  0.00    +0.000 A 
ATOM     23  C16 UNL     1       4.560   0.119   1.422  0.00  0.00    +0.000 A 
ATOM     24  C17 UNL     1       3.587  -0.247   0.461  0.00  0.00    +0.000 A 
ATOM     25  C18 UNL     1       5.385   1.244   1.224  0.00  0.00    +0.000 A 
ATOM     26  C19 UNL     1       5.270   2.021   0.075  0.00  0.00    +0.000 A 
ATOM     27  C20 UNL     1       4.326   1.687  -0.885  0.00  0.00    +0.000 A 
ATOM     28  C21 UNL     1       3.497   0.575  -0.696  0.00  0.00    +0.000 A 
ENDBRANCH  17  19
ENDBRANCH   1  15
TORSDOF 4
