REMARK  Name = /home/anacleto/Desktop/manuscript_Mpro/naturecomm/supplementary_file_S2/6-chemical-library/molecular_docking/3D_ligand_structure/3870.pdb
REMARK  2 active torsions:
REMARK  status: ('A' for Active; 'I' for Inactive)
REMARK    1  A    between atoms: C9_11  and  C10_12
REMARK    2  A    between atoms: N3_17  and  C15_20
REMARK                            x       y       z     vdW  Elec       q    Type
REMARK                         _______ _______ _______ _____ _____    ______ ____
ROOT
ATOM      1  C10 UNL     1       1.423  -0.759  -0.468  0.00  0.00    +0.000 C 
ATOM      2  O2  UNL     1       1.850  -1.712  -1.126  0.00  0.00    +0.000 OA
ATOM      3  N2  UNL     1       0.103  -0.343  -0.588  0.00  0.00    +0.000 N 
ATOM      4  C11 UNL     1      -0.490   0.809   0.102  0.00  0.00    +0.000 C 
ATOM      5  C12 UNL     1      -1.904   1.180  -0.390  0.00  0.00    +0.000 C 
ATOM      6  N3  UNL     1      -2.792   0.010  -0.394  0.00  0.00    +0.000 N 
ATOM      7  C13 UNL     1      -2.201  -1.279  -0.809  0.00  0.00    +0.000 C 
ATOM      8  C14 UNL     1      -0.810  -1.105  -1.446  0.00  0.00    +0.000 C 
ENDROOT
BRANCH   1  19
ATOM      9  C1  UNL     1       4.117   0.381  -1.213  0.00  0.00    +0.000 A 
ATOM     10  C2  UNL     1       5.444   0.652  -1.554  0.00  0.00    +0.000 A 
ATOM     11  C3  UNL     1       6.423   0.713  -0.564  0.00  0.00    +0.000 A 
ATOM     12  C4  UNL     1       6.076   0.502   0.770  0.00  0.00    +0.000 A 
ATOM     13  C5  UNL     1       4.752   0.213   1.105  0.00  0.00    +0.000 A 
ATOM     14  C6  UNL     1       3.757   0.141   0.121  0.00  0.00    +0.000 A 
ATOM     15  N1  UNL     1       4.417   0.037   2.450  0.00  0.00    +0.000 N 
ATOM     16  C7  UNL     1       3.194  -0.382   2.891  0.00  0.00    +0.000 C 
ATOM     17  O1  UNL     1       2.937  -0.432   4.091  0.00  0.00    +0.000 OA
ATOM     18  C8  UNL     1       2.232  -0.871   1.842  0.00  0.00    +0.000 C 
ATOM     19  C9  UNL     1       2.314  -0.050   0.557  0.00  0.00    +0.000 C 
ATOM     20  H5  UNL     1       5.100   0.231   3.171  0.00  0.00    +0.000 HD
ENDBRANCH   1  19
BRANCH   6  21
ATOM     21  C15 UNL     1      -4.175   0.149  -0.382  0.00  0.00    +0.000 A 
ATOM     22  C16 UNL     1      -5.015  -0.944  -0.106  0.00  0.00    +0.000 A 
ATOM     23  C17 UNL     1      -6.410  -0.824  -0.079  0.00  0.00    +0.000 A 
ATOM     24  C18 UNL     1      -7.007   0.406  -0.327  0.00  0.00    +0.000 A 
ATOM     25  C19 UNL     1      -6.207   1.509  -0.595  0.00  0.00    +0.000 A 
ATOM     26  C20 UNL     1      -4.812   1.378  -0.618  0.00  0.00    +0.000 A 
ENDBRANCH   6  21
TORSDOF 2
