REMARK  Name = /home/anacleto/Desktop/manuscript_Mpro/naturecomm/supplementary_file_S2/6-chemical-library/molecular_docking/3D_ligand_structure/3890.pdb
REMARK  4 active torsions:
REMARK  status: ('A' for Active; 'I' for Inactive)
REMARK    1  A    between atoms: C5_6  and  N2_7
REMARK    2  A    between atoms: C6_8  and  C7_10
REMARK    3  A    between atoms: C7_10  and  N3_11
REMARK    4  A    between atoms: C14_18  and  C15_20
REMARK                            x       y       z     vdW  Elec       q    Type
REMARK                         _______ _______ _______ _____ _____    ______ ____
ROOT
ATOM      1  N3  UNL     1      -1.140   0.462   0.439  0.00  0.00    +0.000 N 
ATOM      2  C8  UNL     1      -1.154   1.836   0.317  0.00  0.00    +0.000 A 
ATOM      3  C9  UNL     1      -2.474   2.131  -0.005  0.00  0.00    +0.000 A 
ATOM      4  C10 UNL     1      -0.174   2.826   0.462  0.00  0.00    +0.000 A 
ATOM      5  C11 UNL     1      -0.573   4.153   0.264  0.00  0.00    +0.000 A 
ATOM      6  C12 UNL     1      -1.893   4.472  -0.058  0.00  0.00    +0.000 A 
ATOM      7  C13 UNL     1      -2.858   3.467  -0.195  0.00  0.00    +0.000 A 
ATOM      8  C14 UNL     1      -2.404  -0.015   0.147  0.00  0.00    +0.000 A 
ATOM      9  N4  UNL     1      -3.229   0.992  -0.077  0.00  0.00    +0.000 NA
ENDROOT
BRANCH   8  10
ATOM     10  C15 UNL     1      -2.803  -1.423   0.150  0.00  0.00    +0.000 A 
ATOM     11  C16 UNL     1      -2.175  -2.361  -0.679  0.00  0.00    +0.000 A 
ATOM     12  C17 UNL     1      -2.568  -3.701  -0.654  0.00  0.00    +0.000 A 
ATOM     13  C18 UNL     1      -3.599  -4.112   0.189  0.00  0.00    +0.000 A 
ATOM     14  C19 UNL     1      -4.246  -3.181   1.001  0.00  0.00    +0.000 A 
ATOM     15  C20 UNL     1      -3.853  -1.841   0.977  0.00  0.00    +0.000 A 
ENDBRANCH   8  10
BRANCH   1  16
ATOM     16  C7  UNL     1      -0.018  -0.306   0.948  0.00  0.00    +0.000 C 
BRANCH  16  18
ATOM     17  N2  UNL     1       2.348  -0.161   0.432  0.00  0.00    +0.000 N 
ATOM     18  C6  UNL     1       1.091  -0.455  -0.078  0.00  0.00    +0.000 C 
ATOM     19  O1  UNL     1       0.863  -0.825  -1.225  0.00  0.00    +0.000 OA
ATOM     20  H5  UNL     1       2.415   0.095   1.410  0.00  0.00    +0.000 HD
BRANCH  17  26
ATOM     21  C1  UNL     1       3.718  -0.502  -1.623  0.00  0.00    +0.000 A 
ATOM     22  N1  UNL     1       4.911  -0.523  -2.274  0.00  0.00    +0.000 NA
ATOM     23  C2  UNL     1       6.008  -0.217  -1.552  0.00  0.00    +0.000 A 
ATOM     24  C3  UNL     1       5.971   0.108  -0.209  0.00  0.00    +0.000 A 
ATOM     25  C4  UNL     1       4.735   0.120   0.436  0.00  0.00    +0.000 A 
ATOM     26  C5  UNL     1       3.571  -0.191  -0.274  0.00  0.00    +0.000 A 
ENDBRANCH  17  26
ENDBRANCH  16  18
ENDBRANCH   1  16
TORSDOF 4
