REMARK  Name = /home/anacleto/Desktop/manuscript_Mpro/naturecomm/supplementary_file_S2/6-chemical-library/molecular_docking/3D_ligand_structure/3899.pdb
REMARK  6 active torsions:
REMARK  status: ('A' for Active; 'I' for Inactive)
REMARK    1  A    between atoms: C4_5  and  C5_6
REMARK    2  A    between atoms: C5_6  and  N1_7
REMARK    3  A    between atoms: C7_11  and  C8_12
REMARK    4  A    between atoms: C8_12  and  N4_13
REMARK    5  A    between atoms: N4_13  and  C9_14
REMARK    6  A    between atoms: C9_14  and  C10_15
REMARK                            x       y       z     vdW  Elec       q    Type
REMARK                         _______ _______ _______ _____ _____    ______ ____
ROOT
ATOM      1  N4  UNL     1      -1.357   1.744   0.308  0.00  0.00    +0.000 NA
ATOM      2  H13 UNL     1      -1.008   1.019   0.930  0.00  0.00    +0.000 HD
ENDROOT
BRANCH   1   3
ATOM      3  C8  UNL     1      -0.419   2.871   0.285  0.00  0.00    +0.000 C 
BRANCH   3   8
ATOM      4  N1  UNL     1       2.945   1.520   0.207  0.00  0.00    +0.000 N 
ATOM      5  N2  UNL     1       2.846   2.078  -1.010  0.00  0.00    +0.000 NA
ATOM      6  N3  UNL     1       1.638   2.617  -1.102  0.00  0.00    +0.000 NA
ATOM      7  C6  UNL     1       1.809   1.701   0.934  0.00  0.00    +0.000 A 
ATOM      8  C7  UNL     1       0.977   2.397   0.081  0.00  0.00    +0.000 A 
BRANCH   4   9
ATOM      9  C5  UNL     1       4.154   0.826   0.598  0.00  0.00    +0.000 C 
BRANCH   9  14
ATOM     10  C1  UNL     1       3.401  -1.538   0.069  0.00  0.00    +0.000 C 
ATOM     11  O1  UNL     1       3.850  -2.171   1.275  0.00  0.00    +0.000 OA
ATOM     12  C2  UNL     1       5.266  -1.964   1.396  0.00  0.00    +0.000 C 
ATOM     13  C3  UNL     1       5.697  -1.128   0.205  0.00  0.00    +0.000 C 
ATOM     14  C4  UNL     1       4.412  -0.444  -0.227  0.00  0.00    +0.000 C 
ENDBRANCH   9  14
ENDBRANCH   4   9
ENDBRANCH   3   8
ENDBRANCH   1   3
BRANCH   1  15
ATOM     15  C9  UNL     1      -1.624   1.205  -1.030  0.00  0.00    +0.000 C 
BRANCH  15  16
ATOM     16  C10 UNL     1      -2.448  -0.110  -1.032  0.00  0.00    +0.000 C 
ATOM     17  C11 UNL     1      -1.598  -1.283  -0.523  0.00  0.00    +0.000 C 
ATOM     18  C12 UNL     1      -2.470  -2.521  -0.443  0.00  0.00    +0.000 C 
ATOM     19  O2  UNL     1      -3.505  -2.368   0.528  0.00  0.00    +0.000 OA
ATOM     20  C13 UNL     1      -4.216  -1.201   0.420  0.00  0.00    +0.000 A 
ATOM     21  C14 UNL     1      -3.775  -0.077  -0.296  0.00  0.00    +0.000 A 
ATOM     22  C15 UNL     1      -5.431  -1.179   1.107  0.00  0.00    +0.000 A 
ATOM     23  C16 UNL     1      -6.243  -0.048   1.062  0.00  0.00    +0.000 A 
ATOM     24  C17 UNL     1      -5.837   1.063   0.329  0.00  0.00    +0.000 A 
ATOM     25  C18 UNL     1      -4.615   1.048  -0.348  0.00  0.00    +0.000 A 
ENDBRANCH  15  16
ENDBRANCH   1  15
TORSDOF 6
