REMARK  Name = /home/anacleto/Desktop/manuscript_Mpro/naturecomm/supplementary_file_S2/6-chemical-library/molecular_docking/3D_ligand_structure/3902.pdb
REMARK  4 active torsions:
REMARK  status: ('A' for Active; 'I' for Inactive)
REMARK    1  A    between atoms: C7_9  and  C8_10
REMARK    2  A    between atoms: C8_10  and  N2_11
REMARK    3  A    between atoms: C10_15  and  C12_18
REMARK    4  A    between atoms: C12_18  and  C13_19
REMARK                            x       y       z     vdW  Elec       q    Type
REMARK                         _______ _______ _______ _____ _____    ______ ____
ROOT
ATOM      1  N2  UNL     1       1.058   0.850  -0.416  0.00  0.00    +0.000 N 
ATOM      2  C9  UNL     1       1.250   0.193  -1.588  0.00  0.00    +0.000 C 
ATOM      3  O2  UNL     1       2.140   0.370  -2.402  0.00  0.00    +0.000 OA
ATOM      4  N3  UNL     1       0.250  -0.738  -1.736  0.00  0.00    +0.000 N 
ATOM      5  C10 UNL     1      -0.632  -0.787  -0.593  0.00  0.00    +0.000 C 
ATOM      6  C11 UNL     1      -0.049   0.374   0.227  0.00  0.00    +0.000 C 
ATOM      7  O3  UNL     1      -0.512   0.795   1.277  0.00  0.00    +0.000 OA
ATOM      8  H7  UNL     1       0.279  -1.409  -2.493  0.00  0.00    +0.000 HD
ENDROOT
BRANCH   1   9
ATOM      9  C8  UNL     1       1.919   1.897   0.084  0.00  0.00    +0.000 C 
BRANCH   9  18
ATOM     10  C1  UNL     1       5.045   0.999  -0.880  0.00  0.00    +0.000 A 
ATOM     11  C2  UNL     1       6.370   0.540  -0.917  0.00  0.00    +0.000 A 
ATOM     12  C3  UNL     1       6.997   0.052   0.234  0.00  0.00    +0.000 A 
ATOM     13  C4  UNL     1       6.324   0.003   1.459  0.00  0.00    +0.000 A 
ATOM     14  C5  UNL     1       5.011   0.466   1.458  0.00  0.00    +0.000 A 
ATOM     15  C6  UNL     1       4.355   0.958   0.344  0.00  0.00    +0.000 A 
ATOM     16  O1  UNL     1       4.176   0.510   2.529  0.00  0.00    +0.000 OA
ATOM     17  N1  UNL     1       2.954   1.035   2.143  0.00  0.00    +0.000 NA
ATOM     18  C7  UNL     1       3.065   1.301   0.832  0.00  0.00    +0.000 A 
ENDBRANCH   9  18
ENDBRANCH   1   9
BRANCH   5  19
ATOM     19  C12 UNL     1      -2.092  -0.572  -0.995  0.00  0.00    +0.000 C 
BRANCH  19  20
ATOM     20  C13 UNL     1      -3.080  -1.486  -0.232  0.00  0.00    +0.000 C 
ATOM     21  C14 UNL     1      -4.494  -1.395  -0.837  0.00  0.00    +0.000 C 
ATOM     22  C15 UNL     1      -5.207  -0.086  -0.501  0.00  0.00    +0.000 C 
ATOM     23  C16 UNL     1      -5.239   0.167   1.003  0.00  0.00    +0.000 C 
ATOM     24  C17 UNL     1      -3.846   0.100   1.620  0.00  0.00    +0.000 C 
ATOM     25  C18 UNL     1      -3.143  -1.213   1.279  0.00  0.00    +0.000 C 
ENDBRANCH  19  20
ENDBRANCH   5  19
TORSDOF 4
