REMARK  Name = /home/anacleto/Desktop/manuscript_Mpro/naturecomm/supplementary_file_S2/6-chemical-library/molecular_docking/3D_ligand_structure/3920.pdb
REMARK  2 active torsions:
REMARK  status: ('A' for Active; 'I' for Inactive)
REMARK    1  A    between atoms: C7_9  and  C8_10
REMARK    2  A    between atoms: N4_18  and  C13_19
REMARK                            x       y       z     vdW  Elec       q    Type
REMARK                         _______ _______ _______ _____ _____    ______ ____
ROOT
ATOM      1  C8  UNL     1       1.817   1.162  -1.301  0.00  0.00    +0.000 C 
ATOM      2  O1  UNL     1       1.914   1.909  -2.271  0.00  0.00    +0.000 OA
ATOM      3  N3  UNL     1       0.627   0.543  -0.930  0.00  0.00    +0.000 N 
ATOM      4  C9  UNL     1       0.399  -0.079   0.381  0.00  0.00    +0.000 C 
ATOM      5  C10 UNL     1      -1.045  -0.064   0.926  0.00  0.00    +0.000 C 
ATOM      6  O2  UNL     1      -1.211  -0.078   2.147  0.00  0.00    +0.000 OA
ATOM      7  C11 UNL     1      -0.544   0.782  -1.760  0.00  0.00    +0.000 C 
ATOM      8  C12 UNL     1      -1.657  -0.207  -1.447  0.00  0.00    +0.000 C 
ATOM      9  N4  UNL     1      -2.066  -0.114  -0.042  0.00  0.00    +0.000 N 
ENDROOT
BRANCH   1  18
ATOM     10  C1  UNL     1       3.340  -1.644  -0.962  0.00  0.00    +0.000 A 
ATOM     11  N1  UNL     1       4.208  -2.567  -0.539  0.00  0.00    +0.000 NA
ATOM     12  N2  UNL     1       5.044  -1.872   0.253  0.00  0.00    +0.000 N 
ATOM     13  C2  UNL     1       4.732  -0.542   0.364  0.00  0.00    +0.000 A 
ATOM     14  C3  UNL     1       3.594  -0.365  -0.419  0.00  0.00    +0.000 A 
ATOM     15  C4  UNL     1       5.344   0.503   1.066  0.00  0.00    +0.000 A 
ATOM     16  C5  UNL     1       4.775   1.777   0.948  0.00  0.00    +0.000 A 
ATOM     17  C6  UNL     1       3.633   1.989   0.173  0.00  0.00    +0.000 A 
ATOM     18  C7  UNL     1       3.024   0.917  -0.496  0.00  0.00    +0.000 A 
ATOM     19  H2  UNL     1       5.815  -2.366   0.688  0.00  0.00    +0.000 HD
ENDBRANCH   1  18
BRANCH   9  20
ATOM     20  C13 UNL     1      -3.458  -0.238   0.297  0.00  0.00    +0.000 A 
ATOM     21  C14 UNL     1      -3.875  -0.800   1.513  0.00  0.00    +0.000 A 
ATOM     22  C15 UNL     1      -5.232  -0.930   1.834  0.00  0.00    +0.000 A 
ATOM     23  C16 UNL     1      -6.206  -0.496   0.943  0.00  0.00    +0.000 A 
ATOM     24  C17 UNL     1      -5.821   0.072  -0.265  0.00  0.00    +0.000 A 
ATOM     25  C18 UNL     1      -4.463   0.199  -0.582  0.00  0.00    +0.000 A 
ENDBRANCH   9  20
TORSDOF 2
