REMARK  Name = /home/anacleto/Desktop/manuscript_Mpro/naturecomm/supplementary_file_S2/6-chemical-library/molecular_docking/3D_ligand_structure/3925.pdb
REMARK  3 active torsions:
REMARK  status: ('A' for Active; 'I' for Inactive)
REMARK    1  A    between atoms: N1_7  and  C7_10
REMARK    2  A    between atoms: C7_10  and  C8_11
REMARK    3  A    between atoms: C13_19  and  C14_20
REMARK                            x       y       z     vdW  Elec       q    Type
REMARK                         _______ _______ _______ _____ _____    ______ ____
ROOT
ATOM      1  C8  UNL     1       1.118  -0.837   1.645  0.00  0.00    +0.000 C 
ATOM      2  O1  UNL     1       0.795  -0.188   2.637  0.00  0.00    +0.000 OA
ATOM      3  N4  UNL     1       0.322  -1.147   0.556  0.00  0.00    +0.000 N 
ATOM      4  C9  UNL     1      -1.014  -0.765   0.386  0.00  0.00    +0.000 A 
ATOM      5  N5  UNL     1      -1.672  -0.112   1.355  0.00  0.00    +0.000 NA
ATOM      6  C10 UNL     1      -2.966   0.227   1.127  0.00  0.00    +0.000 A 
ATOM      7  C11 UNL     1      -1.624  -1.098  -0.819  0.00  0.00    +0.000 A 
ATOM      8  C12 UNL     1      -2.958  -0.739  -1.033  0.00  0.00    +0.000 A 
ATOM      9  C13 UNL     1      -3.662  -0.054  -0.043  0.00  0.00    +0.000 A 
ATOM     10  H7  UNL     1       0.754  -1.634  -0.224  0.00  0.00    +0.000 HD
ENDROOT
BRANCH   9  11
ATOM     11  C14 UNL     1      -5.048   0.331  -0.235  0.00  0.00    +0.000 A 
ATOM     12  C15 UNL     1      -6.037  -0.180  -1.110  0.00  0.00    +0.000 A 
ATOM     13  N6  UNL     1      -7.206   0.456  -1.000  0.00  0.00    +0.000 NA
ATOM     14  N7  UNL     1      -6.974   1.380  -0.055  0.00  0.00    +0.000 N 
ATOM     15  C16 UNL     1      -5.699   1.347   0.433  0.00  0.00    +0.000 A 
ATOM     16  H12 UNL     1      -7.731   2.003   0.206  0.00  0.00    +0.000 HD
ENDBRANCH   9  11
BRANCH   1  17
ATOM     17  C7  UNL     1       2.505  -1.439   1.574  0.00  0.00    +0.000 C 
BRANCH  17  24
ATOM     18  C1  UNL     1       5.144   0.611  -1.968  0.00  0.00    +0.000 A 
ATOM     19  C2  UNL     1       5.722   1.653  -1.232  0.00  0.00    +0.000 A 
ATOM     20  C3  UNL     1       5.441   1.812   0.128  0.00  0.00    +0.000 A 
ATOM     21  C4  UNL     1       4.579   0.938   0.802  0.00  0.00    +0.000 A 
ATOM     22  C5  UNL     1       4.021  -0.098   0.047  0.00  0.00    +0.000 A 
ATOM     23  C6  UNL     1       4.278  -0.272  -1.309  0.00  0.00    +0.000 A 
ATOM     24  N1  UNL     1       3.160  -1.122   0.327  0.00  0.00    +0.000 N 
ATOM     25  N2  UNL     1       2.887  -1.866  -0.767  0.00  0.00    +0.000 NA
ATOM     26  N3  UNL     1       3.574  -1.351  -1.777  0.00  0.00    +0.000 NA
ENDBRANCH  17  24
ENDBRANCH   1  17
TORSDOF 3
