REMARK  Name = /home/anacleto/Desktop/manuscript_Mpro/naturecomm/supplementary_file_S2/6-chemical-library/molecular_docking/3D_ligand_structure/3928.pdb
REMARK  4 active torsions:
REMARK  status: ('A' for Active; 'I' for Inactive)
REMARK    1  A    between atoms: N1_7  and  C7_10
REMARK    2  A    between atoms: C7_10  and  C8_11
REMARK    3  A    between atoms: N4_13  and  C9_14
REMARK    4  A    between atoms: C14_19  and  C15_20
REMARK                            x       y       z     vdW  Elec       q    Type
REMARK                         _______ _______ _______ _____ _____    ______ ____
ROOT
ATOM      1  C8  UNL     1      -1.213  -1.950   0.087  0.00  0.00    +0.000 C 
ATOM      2  O1  UNL     1      -0.885  -2.501   1.136  0.00  0.00    +0.000 OA
ATOM      3  N4  UNL     1      -0.414  -1.129  -0.693  0.00  0.00    +0.000 N 
ATOM      4  H7  UNL     1      -0.856  -0.697  -1.504  0.00  0.00    +0.000 HD
ENDROOT
BRANCH   3   5
ATOM      5  C9  UNL     1       0.921  -0.745  -0.456  0.00  0.00    +0.000 A 
ATOM      6  C10 UNL     1       1.491   0.163  -1.356  0.00  0.00    +0.000 A 
ATOM      7  C11 UNL     1       2.814   0.598  -1.198  0.00  0.00    +0.000 A 
ATOM      8  C12 UNL     1       1.695  -1.213   0.604  0.00  0.00    +0.000 A 
ATOM      9  C13 UNL     1       3.019  -0.778   0.760  0.00  0.00    +0.000 A 
ATOM     10  C14 UNL     1       3.596   0.132  -0.135  0.00  0.00    +0.000 A 
BRANCH  10  11
ATOM     11  C15 UNL     1       4.974   0.558   0.064  0.00  0.00    +0.000 A 
ATOM     12  C16 UNL     1       5.681   1.464  -0.699  0.00  0.00    +0.000 A 
ATOM     13  N5  UNL     1       6.921   1.534  -0.122  0.00  0.00    +0.000 N 
ATOM     14  C17 UNL     1       6.926   0.688   0.948  0.00  0.00    +0.000 A 
ATOM     15  N6  UNL     1       5.769   0.085   1.087  0.00  0.00    +0.000 NA
ATOM     16  H13 UNL     1       7.695   2.107  -0.427  0.00  0.00    +0.000 HD
ENDBRANCH  10  11
ENDBRANCH   3   5
BRANCH   1  17
ATOM     17  C7  UNL     1      -2.588  -2.200  -0.493  0.00  0.00    +0.000 C 
BRANCH  17  24
ATOM     18  C1  UNL     1      -5.293   1.841  -0.269  0.00  0.00    +0.000 A 
ATOM     19  C2  UNL     1      -5.811   1.682   1.023  0.00  0.00    +0.000 A 
ATOM     20  C3  UNL     1      -5.474   0.570   1.799  0.00  0.00    +0.000 A 
ATOM     21  C4  UNL     1      -4.614  -0.424   1.316  0.00  0.00    +0.000 A 
ATOM     22  C5  UNL     1      -4.115  -0.245   0.022  0.00  0.00    +0.000 A 
ATOM     23  C6  UNL     1      -4.429   0.856  -0.767  0.00  0.00    +0.000 A 
ATOM     24  N1  UNL     1      -3.274  -0.964  -0.781  0.00  0.00    +0.000 N 
ATOM     25  N2  UNL     1      -3.066  -0.356  -1.968  0.00  0.00    +0.000 NA
ATOM     26  N3  UNL     1      -3.777   0.763  -1.969  0.00  0.00    +0.000 NA
ENDBRANCH  17  24
ENDBRANCH   1  17
TORSDOF 4
