REMARK  Name = /home/anacleto/Desktop/manuscript_Mpro/naturecomm/supplementary_file_S2/6-chemical-library/molecular_docking/3D_ligand_structure/3932.pdb
REMARK  2 active torsions:
REMARK  status: ('A' for Active; 'I' for Inactive)
REMARK    1  A    between atoms: C7_8  and  C10_11
REMARK    2  A    between atoms: N3_16  and  C15_19
REMARK                            x       y       z     vdW  Elec       q    Type
REMARK                         _______ _______ _______ _____ _____    ______ ____
ROOT
ATOM      1  C10 UNL     1      -1.108  -1.988   1.024  0.00  0.00    +0.000 C 
ATOM      2  O1  UNL     1      -1.078  -3.028   1.687  0.00  0.00    +0.000 OA
ATOM      3  N2  UNL     1       0.066  -1.323   0.664  0.00  0.00    +0.000 N 
ATOM      4  C11 UNL     1       0.157  -0.234  -0.316  0.00  0.00    +0.000 C 
ATOM      5  C12 UNL     1       1.553  -0.101  -0.960  0.00  0.00    +0.000 C 
ATOM      6  N3  UNL     1       2.614   0.008   0.053  0.00  0.00    +0.000 N 
ATOM      7  C13 UNL     1       2.391  -0.684   1.336  0.00  0.00    +0.000 C 
ATOM      8  C14 UNL     1       1.336  -1.798   1.213  0.00  0.00    +0.000 C 
ENDROOT
BRANCH   1  16
ATOM      9  C1  UNL     1      -6.173   0.074  -0.412  0.00  0.00    +0.000 A 
ATOM     10  C2  UNL     1      -6.286   1.431  -0.704  0.00  0.00    +0.000 A 
ATOM     11  C3  UNL     1      -5.159   2.243  -0.643  0.00  0.00    +0.000 A 
ATOM     12  C4  UNL     1      -3.922   1.694  -0.291  0.00  0.00    +0.000 A 
ATOM     13  C5  UNL     1      -3.780   0.344   0.004  0.00  0.00    +0.000 A 
ATOM     14  C6  UNL     1      -4.928  -0.475  -0.058  0.00  0.00    +0.000 A 
ATOM     15  N1  UNL     1      -2.569  -0.133   0.334  0.00  0.00    +0.000 NA
ATOM     16  C7  UNL     1      -2.454  -1.457   0.614  0.00  0.00    +0.000 A 
ATOM     17  C8  UNL     1      -3.533  -2.332   0.591  0.00  0.00    +0.000 A 
ATOM     18  C9  UNL     1      -4.784  -1.834   0.244  0.00  0.00    +0.000 A 
ENDBRANCH   1  16
BRANCH   6  19
ATOM     19  C15 UNL     1       3.838   0.592  -0.234  0.00  0.00    +0.000 A 
ATOM     20  C16 UNL     1       4.710   1.016   0.784  0.00  0.00    +0.000 A 
ATOM     21  C17 UNL     1       5.947   1.611   0.506  0.00  0.00    +0.000 A 
ATOM     22  C18 UNL     1       6.348   1.802  -0.809  0.00  0.00    +0.000 A 
ATOM     23  C19 UNL     1       5.510   1.399  -1.841  0.00  0.00    +0.000 A 
ATOM     24  C20 UNL     1       4.274   0.806  -1.553  0.00  0.00    +0.000 A 
ENDBRANCH   6  19
TORSDOF 2
