REMARK  Name = /home/anacleto/Desktop/manuscript_Mpro/naturecomm/supplementary_file_S2/6-chemical-library/molecular_docking/3D_ligand_structure/3934.pdb
REMARK  3 active torsions:
REMARK  status: ('A' for Active; 'I' for Inactive)
REMARK    1  A    between atoms: C9_9  and  N1_11
REMARK    2  A    between atoms: N2_12  and  C11_13
REMARK    3  A    between atoms: C16_18  and  C17_19
REMARK                            x       y       z     vdW  Elec       q    Type
REMARK                         _______ _______ _______ _____ _____    ______ ____
ROOT
ATOM      1  N1  UNL     1      -1.271   0.565  -0.132  0.00  0.00    +0.000 NA
ATOM      2  N2  UNL     1      -0.696  -0.266  -0.871  0.00  0.00    +0.000 NA
ENDROOT
BRANCH   1  11
ATOM      3  C1  UNL     1      -5.727  -0.206   1.677  0.00  0.00    +0.000 A 
ATOM      4  C2  UNL     1      -7.114  -0.231   1.521  0.00  0.00    +0.000 A 
ATOM      5  C3  UNL     1      -7.682   0.095   0.293  0.00  0.00    +0.000 A 
ATOM      6  C4  UNL     1      -6.865   0.448  -0.782  0.00  0.00    +0.000 A 
ATOM      7  C5  UNL     1      -5.468   0.478  -0.642  0.00  0.00    +0.000 A 
ATOM      8  C6  UNL     1      -4.891   0.146   0.605  0.00  0.00    +0.000 A 
ATOM      9  C7  UNL     1      -4.634   0.833  -1.713  0.00  0.00    +0.000 A 
ATOM     10  C8  UNL     1      -3.246   0.858  -1.553  0.00  0.00    +0.000 A 
ATOM     11  C9  UNL     1      -2.663   0.519  -0.328  0.00  0.00    +0.000 A 
ATOM     12  C10 UNL     1      -3.493   0.176   0.745  0.00  0.00    +0.000 A 
ENDBRANCH   1  11
BRANCH   2  13
ATOM     13  C11 UNL     1       0.696  -0.233  -0.667  0.00  0.00    +0.000 A 
ATOM     14  C12 UNL     1       1.353  -1.393  -0.252  0.00  0.00    +0.000 A 
ATOM     15  C13 UNL     1       2.740  -1.402  -0.068  0.00  0.00    +0.000 A 
ATOM     16  C14 UNL     1       1.455   0.916  -0.917  0.00  0.00    +0.000 A 
ATOM     17  C15 UNL     1       2.843   0.908  -0.733  0.00  0.00    +0.000 A 
ATOM     18  C16 UNL     1       3.509  -0.251  -0.303  0.00  0.00    +0.000 A 
BRANCH  18  19
ATOM     19  C17 UNL     1       4.968  -0.259  -0.109  0.00  0.00    +0.000 A 
ATOM     20  C18 UNL     1       5.594   0.692   0.713  0.00  0.00    +0.000 A 
ATOM     21  C19 UNL     1       6.980   0.685   0.899  0.00  0.00    +0.000 A 
ATOM     22  C20 UNL     1       7.763  -0.275   0.263  0.00  0.00    +0.000 A 
ATOM     23  C21 UNL     1       7.163  -1.227  -0.557  0.00  0.00    +0.000 A 
ATOM     24  C22 UNL     1       5.777  -1.219  -0.740  0.00  0.00    +0.000 A 
ENDBRANCH  18  19
ENDBRANCH   2  13
TORSDOF 3
