REMARK  Name = /home/anacleto/Desktop/manuscript_Mpro/naturecomm/supplementary_file_S2/6-chemical-library/molecular_docking/3D_ligand_structure/3939.pdb
REMARK  2 active torsions:
REMARK  status: ('A' for Active; 'I' for Inactive)
REMARK    1  A    between atoms: C2_5  and  C3_6
REMARK    2  A    between atoms: C11_17  and  C12_19
REMARK                            x       y       z     vdW  Elec       q    Type
REMARK                         _______ _______ _______ _____ _____    ______ ____
ROOT
ATOM      1  C3  UNL     1       3.023   0.348   0.353  0.00  0.00    +0.000 C 
ATOM      2  O1  UNL     1       3.816  -0.210   1.112  0.00  0.00    +0.000 OA
ATOM      3  N3  UNL     1       1.648   0.109   0.431  0.00  0.00    +0.000 N 
ATOM      4  C4  UNL     1       1.143  -0.747   1.511  0.00  0.00    +0.000 C 
ATOM      5  C5  UNL     1       1.110  -2.210   1.030  0.00  0.00    +0.000 C 
ATOM      6  C6  UNL     1       0.333  -2.392  -0.277  0.00  0.00    +0.000 C 
ATOM      7  C7  UNL     1       0.693  -1.323  -1.314  0.00  0.00    +0.000 C 
ATOM      8  C8  UNL     1       0.746   0.106  -0.733  0.00  0.00    +0.000 C 
ATOM      9  C9  UNL     1      -0.240  -0.241   1.979  0.00  0.00    +0.000 C 
ATOM     10  N4  UNL     1      -1.192   0.005   0.886  0.00  0.00    +0.000 N 
ATOM     11  C10 UNL     1      -0.647   0.639  -0.325  0.00  0.00    +0.000 C 
ATOM     12  C11 UNL     1      -2.545  -0.244   1.126  0.00  0.00    +0.000 C 
ATOM     13  O2  UNL     1      -2.906  -0.910   2.093  0.00  0.00    +0.000 OA
ENDROOT
BRANCH  12  14
ATOM     14  C12 UNL     1      -3.508   0.303   0.206  0.00  0.00    +0.000 A 
ATOM     15  C13 UNL     1      -4.623  -0.299  -0.340  0.00  0.00    +0.000 A 
ATOM     16  N5  UNL     1      -5.310   0.567  -1.154  0.00  0.00    +0.000 NA
ATOM     17  C14 UNL     1      -4.666   1.706  -1.063  0.00  0.00    +0.000 A 
ATOM     18  N6  UNL     1      -3.584   1.603  -0.238  0.00  0.00    +0.000 N 
ATOM     19  H16 UNL     1      -2.965   2.357   0.025  0.00  0.00    +0.000 HD
ENDBRANCH  12  14
BRANCH   1  24
ATOM     20  N1  UNL     1       2.705   2.342  -1.139  0.00  0.00    +0.000 NA
ATOM     21  N2  UNL     1       3.359   3.113  -1.990  0.00  0.00    +0.000 NA
ATOM     22  S1  UNL     1       4.963   2.675  -2.163  0.00  0.00    +0.000 S 
ATOM     23  C1  UNL     1       4.824   1.366  -1.068  0.00  0.00    +0.000 A 
ATOM     24  C2  UNL     1       3.508   1.320  -0.629  0.00  0.00    +0.000 A 
ENDBRANCH   1  24
TORSDOF 2
