REMARK  Name = /home/anacleto/Desktop/manuscript_Mpro/naturecomm/supplementary_file_S2/6-chemical-library/molecular_docking/3D_ligand_structure/3946.pdb
REMARK  4 active torsions:
REMARK  status: ('A' for Active; 'I' for Inactive)
REMARK    1  A    between atoms: C6_6  and  C7_7
REMARK    2  A    between atoms: C7_7  and  N1_8
REMARK    3  A    between atoms: C11_16  and  S1_17
REMARK    4  A    between atoms: S1_17  and  C12_18
REMARK                            x       y       z     vdW  Elec       q    Type
REMARK                         _______ _______ _______ _____ _____    ______ ____
ROOT
ATOM      1  N1  UNL     1      -1.532   1.280  -0.353  0.00  0.00    +0.000 N 
ATOM      2  N2  UNL     1      -0.836   1.958   0.589  0.00  0.00    +0.000 NA
ATOM      3  N3  UNL     1       0.416   2.073   0.151  0.00  0.00    +0.000 NA
ATOM      4  C8  UNL     1      -0.758   1.001  -1.444  0.00  0.00    +0.000 A 
ATOM      5  C9  UNL     1       0.489   1.489  -1.091  0.00  0.00    +0.000 A 
ATOM      6  N4  UNL     1      -1.108   0.393  -2.593  0.00  0.00    +0.000 NA
ATOM      7  C10 UNL     1      -0.049   0.289  -3.424  0.00  0.00    +0.000 A 
ATOM      8  N5  UNL     1       1.214   0.714  -3.222  0.00  0.00    +0.000 NA
ATOM      9  C11 UNL     1       1.503   1.303  -2.030  0.00  0.00    +0.000 A 
ENDROOT
BRANCH   1  10
ATOM     10  C7  UNL     1      -2.942   0.998  -0.181  0.00  0.00    +0.000 C 
BRANCH  10  16
ATOM     11  C1  UNL     1      -3.069  -0.471   1.872  0.00  0.00    +0.000 A 
ATOM     12  C2  UNL     1      -3.246  -1.716   2.479  0.00  0.00    +0.000 A 
ATOM     13  C3  UNL     1      -3.513  -2.841   1.698  0.00  0.00    +0.000 A 
ATOM     14  C4  UNL     1      -3.592  -2.726   0.312  0.00  0.00    +0.000 A 
ATOM     15  C5  UNL     1      -3.409  -1.484  -0.298  0.00  0.00    +0.000 A 
ATOM     16  C6  UNL     1      -3.155  -0.342   0.477  0.00  0.00    +0.000 A 
ENDBRANCH  10  16
ENDBRANCH   1  10
BRANCH   9  17
ATOM     17  S1  UNL     1       3.143   1.871  -1.720  0.00  0.00    +0.000 S 
BRANCH  17  18
ATOM     18  C12 UNL     1       3.698   0.717  -0.474  0.00  0.00    +0.000 A 
ATOM     19  C13 UNL     1       4.941   0.922   0.121  0.00  0.00    +0.000 A 
ATOM     20  C14 UNL     1       5.392   0.013   1.077  0.00  0.00    +0.000 A 
ATOM     21  C15 UNL     1       4.587  -1.066   1.419  0.00  0.00    +0.000 A 
ATOM     22  C16 UNL     1       3.361  -1.193   0.784  0.00  0.00    +0.000 A 
ATOM     23  N6  UNL     1       2.907  -0.334  -0.154  0.00  0.00    +0.000 NA
ENDBRANCH  17  18
ENDBRANCH   9  17
TORSDOF 4
