REMARK  Name = /home/anacleto/Desktop/manuscript_Mpro/naturecomm/supplementary_file_S2/6-chemical-library/molecular_docking/3D_ligand_structure/3958.pdb
REMARK  3 active torsions:
REMARK  status: ('A' for Active; 'I' for Inactive)
REMARK    1  A    between atoms: N1_7  and  C7_10
REMARK    2  A    between atoms: C7_10  and  C8_11
REMARK    3  A    between atoms: C12_17  and  C13_18
REMARK                            x       y       z     vdW  Elec       q    Type
REMARK                         _______ _______ _______ _____ _____    ______ ____
ROOT
ATOM      1  C8  UNL     1      -0.015  -0.396  -1.953  0.00  0.00    +0.000 C 
ATOM      2  O1  UNL     1      -0.281   0.693  -2.469  0.00  0.00    +0.000 OA
ATOM      3  N4  UNL     1      -0.952  -1.108  -1.240  0.00  0.00    +0.000 N 
ATOM      4  C9  UNL     1      -0.832  -2.453  -0.707  0.00  0.00    +0.000 C 
ATOM      5  C10 UNL     1      -2.275  -2.905  -0.560  0.00  0.00    +0.000 C 
ATOM      6  C11 UNL     1      -2.988  -1.629  -0.130  0.00  0.00    +0.000 C 
ATOM      7  C12 UNL     1      -2.253  -0.514  -0.894  0.00  0.00    +0.000 C 
ENDROOT
BRANCH   7   8
ATOM      8  C13 UNL     1      -2.169   0.737  -0.028  0.00  0.00    +0.000 A 
ATOM      9  N5  UNL     1      -1.171   0.815   0.882  0.00  0.00    +0.000 NA
ATOM     10  C14 UNL     1      -1.129   1.925   1.639  0.00  0.00    +0.000 A 
ATOM     11  C15 UNL     1      -2.051   2.938   1.546  0.00  0.00    +0.000 A 
ATOM     12  C16 UNL     1      -3.047   2.752   0.616  0.00  0.00    +0.000 A 
ATOM     13  N6  UNL     1      -3.139   1.665  -0.172  0.00  0.00    +0.000 NA
ENDBRANCH   7   8
BRANCH   1  14
ATOM     14  C7  UNL     1       1.364  -0.988  -2.119  0.00  0.00    +0.000 C 
BRANCH  14  21
ATOM     15  C1  UNL     1       3.776   0.267   1.922  0.00  0.00    +0.000 A 
ATOM     16  C2  UNL     1       3.625   1.658   1.839  0.00  0.00    +0.000 A 
ATOM     17  C3  UNL     1       2.919   2.240   0.783  0.00  0.00    +0.000 A 
ATOM     18  C4  UNL     1       2.341   1.459  -0.225  0.00  0.00    +0.000 A 
ATOM     19  C5  UNL     1       2.507   0.074  -0.121  0.00  0.00    +0.000 A 
ATOM     20  C6  UNL     1       3.204  -0.529   0.919  0.00  0.00    +0.000 A 
ATOM     21  N1  UNL     1       2.101  -0.994  -0.877  0.00  0.00    +0.000 N 
ATOM     22  N2  UNL     1       2.536  -2.164  -0.365  0.00  0.00    +0.000 NA
ATOM     23  N3  UNL     1       3.203  -1.888   0.749  0.00  0.00    +0.000 NA
ENDBRANCH  14  21
ENDBRANCH   1  14
TORSDOF 3
