REMARK  Name = /home/anacleto/Desktop/manuscript_Mpro/naturecomm/supplementary_file_S2/6-chemical-library/molecular_docking/3D_ligand_structure/3963.pdb
REMARK  2 active torsions:
REMARK  status: ('A' for Active; 'I' for Inactive)
REMARK    1  A    between atoms: C6_9  and  C7_10
REMARK    2  A    between atoms: N5_15  and  C12_18
REMARK                            x       y       z     vdW  Elec       q    Type
REMARK                         _______ _______ _______ _____ _____    ______ ____
ROOT
ATOM      1  C7  UNL     1      -2.141  -0.436   0.984  0.00  0.00    +0.000 C 
ATOM      2  O1  UNL     1      -2.500  -1.255   1.831  0.00  0.00    +0.000 OA
ATOM      3  N4  UNL     1      -0.804  -0.164   0.722  0.00  0.00    +0.000 N 
ATOM      4  C8  UNL     1       0.199  -0.774   1.599  0.00  0.00    +0.000 C 
ATOM      5  C9  UNL     1       1.582  -0.108   1.494  0.00  0.00    +0.000 C 
ATOM      6  N5  UNL     1       2.066  -0.060   0.101  0.00  0.00    +0.000 N 
ATOM      7  C10 UNL     1       1.064  -0.220  -0.964  0.00  0.00    +0.000 C 
ATOM      8  C11 UNL     1      -0.295   0.379  -0.546  0.00  0.00    +0.000 C 
ENDROOT
BRANCH   1  17
ATOM      9  N1  UNL     1      -4.804  -1.723   0.173  0.00  0.00    +0.000 N 
ATOM     10  N2  UNL     1      -6.006  -1.969  -0.374  0.00  0.00    +0.000 NA
ATOM     11  N3  UNL     1      -6.401  -0.857  -0.985  0.00  0.00    +0.000 NA
ATOM     12  C1  UNL     1      -5.424   0.089  -0.821  0.00  0.00    +0.000 A 
ATOM     13  C2  UNL     1      -4.373  -0.456  -0.104  0.00  0.00    +0.000 A 
ATOM     14  C3  UNL     1      -5.350   1.424  -1.242  0.00  0.00    +0.000 A 
ATOM     15  C4  UNL     1      -4.214   2.171  -0.897  0.00  0.00    +0.000 A 
ATOM     16  C5  UNL     1      -3.165   1.593  -0.172  0.00  0.00    +0.000 A 
ATOM     17  C6  UNL     1      -3.206   0.243   0.213  0.00  0.00    +0.000 A 
ATOM     18  H1  UNL     1      -4.343  -2.437   0.729  0.00  0.00    +0.000 HD
ENDBRANCH   1  17
BRANCH   6  19
ATOM     19  C12 UNL     1       3.426  -0.085  -0.171  0.00  0.00    +0.000 A 
ATOM     20  C13 UNL     1       3.939  -0.569  -1.386  0.00  0.00    +0.000 A 
ATOM     21  C14 UNL     1       5.313  -0.587  -1.659  0.00  0.00    +0.000 A 
ATOM     22  C15 UNL     1       6.218  -0.114  -0.717  0.00  0.00    +0.000 A 
ATOM     23  C16 UNL     1       5.745   0.377   0.493  0.00  0.00    +0.000 A 
ATOM     24  C17 UNL     1       4.370   0.390   0.756  0.00  0.00    +0.000 A 
ENDBRANCH   6  19
TORSDOF 2
