REMARK  Name = /home/anacleto/Desktop/manuscript_Mpro/naturecomm/supplementary_file_S2/6-chemical-library/molecular_docking/3D_ligand_structure/397.pdb
REMARK  10 active torsions:
REMARK  status: ('A' for Active; 'I' for Inactive)
REMARK    1  A    between atoms: C3_5  and  C4_6
REMARK    2  A    between atoms: C4_6  and  C5_7
REMARK    3  A    between atoms: C5_7  and  C6_8
REMARK    4  A    between atoms: N3_10  and  C7_11
REMARK    5  A    between atoms: C7_11  and  C8_12
REMARK    6  A    between atoms: N4_14  and  C9_15
REMARK    7  A    between atoms: C9_15  and  C10_16
REMARK    8  A    between atoms: N5_18  and  C11_19
REMARK    9  A    between atoms: C11_19  and  C12_20
REMARK   10  A    between atoms: C12_20  and  C13_21
REMARK                            x       y       z     vdW  Elec       q    Type
REMARK                         _______ _______ _______ _____ _____    ______ ____
ROOT
ATOM      1  C8  UNL     1       0.590  -0.343  -1.257  0.00  0.00    +0.000 C 
ATOM      2  O2  UNL     1       0.484   0.268  -0.192  0.00  0.00    +0.000 OA
ATOM      3  N4  UNL     1      -0.046   0.063  -2.406  0.00  0.00    +0.000 N 
ATOM      4  H11 UNL     1       0.196  -0.395  -3.276  0.00  0.00    +0.000 HD
ENDROOT
BRANCH   1   5
ATOM      5  C7  UNL     1       1.363  -1.659  -1.380  0.00  0.00    +0.000 C 
BRANCH   5   8
ATOM      6  C6  UNL     1       3.705  -1.110  -0.925  0.00  0.00    +0.000 C 
ATOM      7  O1  UNL     1       3.910  -0.795  -2.092  0.00  0.00    +0.000 OA
ATOM      8  N3  UNL     1       2.505  -1.630  -0.487  0.00  0.00    +0.000 N 
ATOM      9  H8  UNL     1       2.299  -1.549   0.503  0.00  0.00    +0.000 HD
BRANCH   6  10
ATOM     10  C5  UNL     1       4.725  -0.961   0.183  0.00  0.00    +0.000 C 
BRANCH  10  11
ATOM     11  C4  UNL     1       6.071  -0.481  -0.354  0.00  0.00    +0.000 C 
BRANCH  11  16
ATOM     12  N1  UNL     1       7.405   0.936   1.245  0.00  0.00    +0.000 N 
ATOM     13  C1  UNL     1       8.320   0.735   2.239  0.00  0.00    +0.000 A 
ATOM     14  N2  UNL     1       8.582  -0.541   2.400  0.00  0.00    +0.000 NA
ATOM     15  C2  UNL     1       7.811  -1.191   1.472  0.00  0.00    +0.000 A 
ATOM     16  C3  UNL     1       7.058  -0.294   0.745  0.00  0.00    +0.000 A 
ATOM     17  H1  UNL     1       7.056   1.833   0.938  0.00  0.00    +0.000 HD
ENDBRANCH  11  16
ENDBRANCH  10  11
ENDBRANCH   6  10
ENDBRANCH   5   8
ENDBRANCH   1   5
BRANCH   3  18
ATOM     18  C9  UNL     1      -0.688   1.368  -2.512  0.00  0.00    +0.000 C 
BRANCH  18  19
ATOM     19  C10 UNL     1      -2.106   1.423  -1.929  0.00  0.00    +0.000 C 
ATOM     20  O3  UNL     1      -3.028   1.980  -2.521  0.00  0.00    +0.000 OA
ATOM     21  N5  UNL     1      -2.233   0.905  -0.659  0.00  0.00    +0.000 N 
ATOM     22  H14 UNL     1      -1.370   0.687  -0.160  0.00  0.00    +0.000 HD
BRANCH  21  23
ATOM     23  C11 UNL     1      -3.467   1.002   0.094  0.00  0.00    +0.000 C 
BRANCH  23  24
ATOM     24  C12 UNL     1      -4.513  -0.012  -0.373  0.00  0.00    +0.000 C 
BRANCH  24  25
ATOM     25  C13 UNL     1      -5.775   0.070   0.449  0.00  0.00    +0.000 A 
ATOM     26  C14 UNL     1      -6.768   1.004   0.126  0.00  0.00    +0.000 A 
ATOM     27  C15 UNL     1      -7.928   1.098   0.896  0.00  0.00    +0.000 A 
ATOM     28  C16 UNL     1      -8.105   0.260   1.996  0.00  0.00    +0.000 A 
ATOM     29  C17 UNL     1      -7.122  -0.670   2.327  0.00  0.00    +0.000 A 
ATOM     30  C18 UNL     1      -5.960  -0.765   1.559  0.00  0.00    +0.000 A 
ENDBRANCH  24  25
ENDBRANCH  23  24
ENDBRANCH  21  23
ENDBRANCH  18  19
ENDBRANCH   3  18
TORSDOF 10
