REMARK  Name = /home/anacleto/Desktop/manuscript_Mpro/naturecomm/supplementary_file_S2/6-chemical-library/molecular_docking/3D_ligand_structure/3971.pdb
REMARK  2 active torsions:
REMARK  status: ('A' for Active; 'I' for Inactive)
REMARK    1  A    between atoms: C7_9  and  C8_10
REMARK    2  A    between atoms: N4_15  and  C13_18
REMARK                            x       y       z     vdW  Elec       q    Type
REMARK                         _______ _______ _______ _____ _____    ______ ____
ROOT
ATOM      1  C8  UNL     1      -1.435  -0.371  -1.766  0.00  0.00    +0.000 C 
ATOM      2  O1  UNL     1      -1.345  -0.759  -2.929  0.00  0.00    +0.000 OA
ATOM      3  N3  UNL     1      -0.422  -0.589  -0.827  0.00  0.00    +0.000 N 
ATOM      4  C9  UNL     1      -0.104   0.418   0.201  0.00  0.00    +0.000 C 
ATOM      5  C10 UNL     1       0.738  -0.164   1.353  0.00  0.00    +0.000 C 
ATOM      6  N4  UNL     1       1.926  -0.886   0.852  0.00  0.00    +0.000 N 
ATOM      7  C11 UNL     1       1.559  -1.943  -0.124  0.00  0.00    +0.000 C 
ATOM      8  C12 UNL     1       0.741  -1.356  -1.290  0.00  0.00    +0.000 C 
ENDROOT
BRANCH   1  17
ATOM      9  C1  UNL     1      -3.386  -0.819   0.945  0.00  0.00    +0.000 A 
ATOM     10  C2  UNL     1      -4.385  -0.716   1.914  0.00  0.00    +0.000 A 
ATOM     11  C3  UNL     1      -5.368   0.254   1.767  0.00  0.00    +0.000 A 
ATOM     12  N1  UNL     1      -5.461   1.134   0.745  0.00  0.00    +0.000 NA
ATOM     13  C4  UNL     1      -4.478   0.989  -0.163  0.00  0.00    +0.000 A 
ATOM     14  C5  UNL     1      -3.426   0.079  -0.138  0.00  0.00    +0.000 A 
ATOM     15  N2  UNL     1      -4.370   1.732  -1.303  0.00  0.00    +0.000 N 
ATOM     16  C6  UNL     1      -3.274   1.327  -2.018  0.00  0.00    +0.000 A 
ATOM     17  C7  UNL     1      -2.635   0.321  -1.308  0.00  0.00    +0.000 A 
ATOM     18  H4  UNL     1      -5.030   2.449  -1.568  0.00  0.00    +0.000 HD
ENDBRANCH   1  17
BRANCH   6  19
ATOM     19  C13 UNL     1       3.132  -0.215   0.634  0.00  0.00    +0.000 A 
ATOM     20  C14 UNL     1       3.263   1.181   0.684  0.00  0.00    +0.000 A 
ATOM     21  C15 UNL     1       4.493   1.819   0.469  0.00  0.00    +0.000 A 
ATOM     22  C16 UNL     1       5.635   1.070   0.214  0.00  0.00    +0.000 A 
ATOM     23  C17 UNL     1       5.547  -0.315   0.186  0.00  0.00    +0.000 A 
ATOM     24  C18 UNL     1       4.314  -0.942   0.400  0.00  0.00    +0.000 A 
ENDBRANCH   6  19
TORSDOF 2
