REMARK  Name = /home/anacleto/Desktop/manuscript_Mpro/naturecomm/supplementary_file_S2/6-chemical-library/molecular_docking/3D_ligand_structure/3982.pdb
REMARK  2 active torsions:
REMARK  status: ('A' for Active; 'I' for Inactive)
REMARK    1  A    between atoms: C6_6  and  C7_7
REMARK    2  A    between atoms: C7_7  and  N1_8
REMARK                            x       y       z     vdW  Elec       q    Type
REMARK                         _______ _______ _______ _____ _____    ______ ____
ROOT
ATOM      1  N1  UNL     1      -2.095  -1.431   1.396  0.00  0.00    +0.000 NA
ATOM      2  C8  UNL     1      -1.400  -0.260   1.949  0.00  0.00    +0.000 C 
ATOM      3  C9  UNL     1       0.105  -0.511   2.214  0.00  0.00    +0.000 C 
ATOM      4  N2  UNL     1       0.805  -0.979   1.005  0.00  0.00    +0.000 N 
ATOM      5  C10 UNL     1      -0.051  -1.372  -0.126  0.00  0.00    +0.000 C 
ATOM      6  C11 UNL     1      -1.292  -2.141   0.385  0.00  0.00    +0.000 C 
ATOM      7  C12 UNL     1       2.037  -0.424   0.682  0.00  0.00    +0.000 A 
ATOM      8  N3  UNL     1       2.351  -0.228  -0.619  0.00  0.00    +0.000 NA
ATOM      9  C13 UNL     1       2.988  -0.099   1.652  0.00  0.00    +0.000 A 
ATOM     10  N4  UNL     1       4.206   0.438   1.390  0.00  0.00    +0.000 NA
ATOM     11  C14 UNL     1       4.487   0.638   0.093  0.00  0.00    +0.000 A 
ATOM     12  C15 UNL     1       3.556   0.300  -0.916  0.00  0.00    +0.000 A 
ATOM     13  C16 UNL     1       5.714   1.182  -0.270  0.00  0.00    +0.000 A 
ATOM     14  C17 UNL     1       6.043   1.401  -1.608  0.00  0.00    +0.000 A 
ATOM     15  C18 UNL     1       5.130   1.070  -2.600  0.00  0.00    +0.000 A 
ATOM     16  C19 UNL     1       3.896   0.522  -2.245  0.00  0.00    +0.000 A 
ENDROOT
BRANCH   1  17
ATOM     17  C7  UNL     1      -3.494  -1.195   1.028  0.00  0.00    +0.000 C 
BRANCH  17  23
ATOM     18  C1  UNL     1      -3.807  -0.593  -1.421  0.00  0.00    +0.000 A 
ATOM     19  C2  UNL     1      -4.044   0.337  -2.434  0.00  0.00    +0.000 A 
ATOM     20  C3  UNL     1      -4.238   1.680  -2.118  0.00  0.00    +0.000 A 
ATOM     21  C4  UNL     1      -4.199   2.093  -0.789  0.00  0.00    +0.000 A 
ATOM     22  C5  UNL     1      -3.961   1.163   0.225  0.00  0.00    +0.000 A 
ATOM     23  C6  UNL     1      -3.753  -0.192  -0.078  0.00  0.00    +0.000 A 
ENDBRANCH  17  23
ENDBRANCH   1  17
TORSDOF 2
