REMARK  Name = /home/anacleto/Desktop/manuscript_Mpro/naturecomm/supplementary_file_S2/6-chemical-library/molecular_docking/3D_ligand_structure/3989.pdb
REMARK  3 active torsions:
REMARK  status: ('A' for Active; 'I' for Inactive)
REMARK    1  A    between atoms: N5_10  and  C6_11
REMARK    2  A    between atoms: C6_11  and  C7_12
REMARK    3  A    between atoms: C10_15  and  C13_18
REMARK                            x       y       z     vdW  Elec       q    Type
REMARK                         _______ _______ _______ _____ _____    ______ ____
ROOT
ATOM      1  C6  UNL     1       1.313   1.456   0.124  0.00  0.00    +0.000 C 
ENDROOT
BRANCH   1  11
ATOM      2  N1  UNL     1       4.322  -1.755   0.266  0.00  0.00    +0.000 NA
ATOM      3  C1  UNL     1       5.543  -2.207   0.466  0.00  0.00    +0.000 A 
ATOM      4  N2  UNL     1       6.471  -1.201   0.437  0.00  0.00    +0.000 N 
ATOM      5  C2  UNL     1       5.805  -0.033   0.205  0.00  0.00    +0.000 A 
ATOM      6  C3  UNL     1       4.474  -0.393   0.090  0.00  0.00    +0.000 A 
ATOM      7  N3  UNL     1       6.337   1.193   0.110  0.00  0.00    +0.000 NA
ATOM      8  C4  UNL     1       5.373   2.107  -0.124  0.00  0.00    +0.000 A 
ATOM      9  N4  UNL     1       4.042   1.911  -0.254  0.00  0.00    +0.000 NA
ATOM     10  C5  UNL     1       3.553   0.644  -0.159  0.00  0.00    +0.000 A 
ATOM     11  N5  UNL     1       2.189   0.388  -0.314  0.00  0.00    +0.000 N 
ATOM     12  H2  UNL     1       7.467  -1.288   0.563  0.00  0.00    +0.000 HD
ATOM     13  H4  UNL     1       1.958  -0.537   0.043  0.00  0.00    +0.000 HD
ENDBRANCH   1  11
BRANCH   1  14
ATOM     14  C7  UNL     1      -0.119   0.975   0.076  0.00  0.00    +0.000 A 
ATOM     15  C8  UNL     1      -0.805   0.639   1.248  0.00  0.00    +0.000 A 
ATOM     16  C9  UNL     1      -2.129   0.184   1.194  0.00  0.00    +0.000 A 
ATOM     17  C10 UNL     1      -2.810   0.047  -0.030  0.00  0.00    +0.000 A 
ATOM     18  C11 UNL     1      -2.097   0.368  -1.199  0.00  0.00    +0.000 A 
ATOM     19  C12 UNL     1      -0.775   0.825  -1.150  0.00  0.00    +0.000 A 
BRANCH  17  20
ATOM     20  C13 UNL     1      -4.210  -0.426  -0.105  0.00  0.00    +0.000 A 
ATOM     21  C14 UNL     1      -5.151  -0.175   0.894  0.00  0.00    +0.000 A 
ATOM     22  C15 UNL     1      -6.452  -0.655   0.749  0.00  0.00    +0.000 A 
ATOM     23  C16 UNL     1      -6.788  -1.373  -0.390  0.00  0.00    +0.000 A 
ATOM     24  C17 UNL     1      -5.806  -1.576  -1.342  0.00  0.00    +0.000 A 
ATOM     25  N6  UNL     1      -4.540  -1.119  -1.226  0.00  0.00    +0.000 NA
ENDBRANCH  17  20
ENDBRANCH   1  14
TORSDOF 3
