REMARK  Name = /home/anacleto/Desktop/manuscript_Mpro/naturecomm/supplementary_file_S2/6-chemical-library/molecular_docking/3D_ligand_structure/3996.pdb
REMARK  1 active torsions:
REMARK  status: ('A' for Active; 'I' for Inactive)
REMARK    1  A    between atoms: C7_9  and  C8_10
REMARK                            x       y       z     vdW  Elec       q    Type
REMARK                         _______ _______ _______ _____ _____    ______ ____
ROOT
ATOM      1  C8  UNL     1      -1.332  -1.074  -0.869  0.00  0.00    +0.000 C 
ATOM      2  O1  UNL     1      -1.544  -1.788  -1.846  0.00  0.00    +0.000 OA
ATOM      3  N3  UNL     1      -0.056  -0.790  -0.397  0.00  0.00    +0.000 N 
ATOM      4  C9  UNL     1       0.270   0.288   0.546  0.00  0.00    +0.000 C 
ATOM      5  C10 UNL     1       1.654   0.919   0.294  0.00  0.00    +0.000 C 
ATOM      6  N4  UNL     1       2.709  -0.095   0.269  0.00  0.00    +0.000 N 
ATOM      7  C11 UNL     1       2.348  -1.451  -0.171  0.00  0.00    +0.000 C 
ATOM      8  C12 UNL     1       1.082  -1.449  -1.042  0.00  0.00    +0.000 C 
ATOM      9  C13 UNL     1       4.026   0.194   0.471  0.00  0.00    +0.000 A 
ATOM     10  N5  UNL     1       4.971  -0.726   0.468  0.00  0.00    +0.000 NA
ATOM     11  C14 UNL     1       6.212  -0.170   0.693  0.00  0.00    +0.000 A 
ATOM     12  C15 UNL     1       6.226   1.193   0.870  0.00  0.00    +0.000 A 
ATOM     13  S1  UNL     1       4.633   1.798   0.752  0.00  0.00    +0.000 S 
ENDROOT
BRANCH   1  22
ATOM     14  C1  UNL     1      -3.628   0.660  -2.227  0.00  0.00    +0.000 A 
ATOM     15  N1  UNL     1      -4.722   1.410  -2.390  0.00  0.00    +0.000 NA
ATOM     16  N2  UNL     1      -5.258   1.453  -1.158  0.00  0.00    +0.000 N 
ATOM     17  C2  UNL     1      -4.534   0.782  -0.207  0.00  0.00    +0.000 A 
ATOM     18  C3  UNL     1      -3.443   0.249  -0.887  0.00  0.00    +0.000 A 
ATOM     19  C4  UNL     1      -4.743   0.595   1.164  0.00  0.00    +0.000 A 
ATOM     20  C5  UNL     1      -3.802  -0.175   1.858  0.00  0.00    +0.000 A 
ATOM     21  C6  UNL     1      -2.695  -0.721   1.206  0.00  0.00    +0.000 A 
ATOM     22  C7  UNL     1      -2.494  -0.498  -0.166  0.00  0.00    +0.000 A 
ATOM     23  H2  UNL     1      -6.126   1.962  -1.031  0.00  0.00    +0.000 HD
ENDBRANCH   1  22
TORSDOF 1
