REMARK  Name = /home/anacleto/Desktop/manuscript_Mpro/naturecomm/supplementary_file_S2/6-chemical-library/molecular_docking/3D_ligand_structure/4006.pdb
REMARK  2 active torsions:
REMARK  status: ('A' for Active; 'I' for Inactive)
REMARK    1  A    between atoms: C3_4  and  N2_7
REMARK    2  A    between atoms: C9_15  and  C11_17
REMARK                            x       y       z     vdW  Elec       q    Type
REMARK                         _______ _______ _______ _____ _____    ______ ____
ROOT
ATOM      1  N2  UNL     1      -2.203   0.037   0.459  0.00  0.00    +0.000 N 
ATOM      2  C5  UNL     1      -2.042  -1.333   0.533  0.00  0.00    +0.000 C 
ATOM      3  O2  UNL     1      -2.913  -2.186   0.575  0.00  0.00    +0.000 OA
ATOM      4  N3  UNL     1      -0.689  -1.636   0.497  0.00  0.00    +0.000 N 
ATOM      5  C6  UNL     1      -1.018   0.690   0.194  0.00  0.00    +0.000 C 
ATOM      6  O3  UNL     1      -0.899   1.892  -0.008  0.00  0.00    +0.000 OA
ATOM      7  C7  UNL     1       0.097  -0.423   0.214  0.00  0.00    +0.000 C 
ATOM      8  C8  UNL     1       1.054  -0.539  -0.989  0.00  0.00    +0.000 C 
ATOM      9  C9  UNL     1       2.200  -0.864   0.008  0.00  0.00    +0.000 C 
ATOM     10  C10 UNL     1       1.326  -0.227   1.122  0.00  0.00    +0.000 C 
ATOM     11  H7  UNL     1      -0.426  -2.597   0.324  0.00  0.00    +0.000 HD
ENDROOT
BRANCH   1  15
ATOM     12  N1  UNL     1      -5.491   0.345  -0.833  0.00  0.00    +0.000 N 
ATOM     13  C1  UNL     1      -5.861   0.583   0.530  0.00  0.00    +0.000 C 
ATOM     14  C2  UNL     1      -4.587   0.308   1.313  0.00  0.00    +0.000 C 
ATOM     15  C3  UNL     1      -3.484   0.698   0.327  0.00  0.00    +0.000 C 
ATOM     16  C4  UNL     1      -4.122   0.390  -1.024  0.00  0.00    +0.000 C 
ATOM     17  O1  UNL     1      -3.559   0.245  -2.096  0.00  0.00    +0.000 OA
ATOM     18  H1  UNL     1      -6.124   0.195  -1.610  0.00  0.00    +0.000 HD
ENDBRANCH   1  15
BRANCH   9  19
ATOM     19  C11 UNL     1       3.644  -0.266  -0.264  0.00  0.00    +0.000 A 
ATOM     20  C12 UNL     1       3.865   1.103  -0.515  0.00  0.00    +0.000 A 
ATOM     21  C13 UNL     1       5.143   1.619  -0.753  0.00  0.00    +0.000 A 
ATOM     22  C14 UNL     1       6.247   0.775  -0.745  0.00  0.00    +0.000 A 
ATOM     23  C15 UNL     1       6.070  -0.582  -0.501  0.00  0.00    +0.000 A 
ATOM     24  C16 UNL     1       4.789  -1.089  -0.264  0.00  0.00    +0.000 A 
ENDBRANCH   9  19
TORSDOF 2
