REMARK  Name = /home/anacleto/Desktop/manuscript_Mpro/naturecomm/supplementary_file_S2/6-chemical-library/molecular_docking/3D_ligand_structure/4015.pdb
REMARK  3 active torsions:
REMARK  status: ('A' for Active; 'I' for Inactive)
REMARK    1  A    between atoms: N1_7  and  C7_10
REMARK    2  A    between atoms: C7_10  and  C8_11
REMARK    3  A    between atoms: C12_17  and  C13_18
REMARK                            x       y       z     vdW  Elec       q    Type
REMARK                         _______ _______ _______ _____ _____    ______ ____
ROOT
ATOM      1  C8  UNL     1      -0.238   0.800   0.281  0.00  0.00    +0.000 C 
ATOM      2  O1  UNL     1      -0.106   1.720  -0.532  0.00  0.00    +0.000 OA
ATOM      3  N4  UNL     1      -1.191  -0.181   0.109  0.00  0.00    +0.000 N 
ATOM      4  C9  UNL     1      -1.299  -1.429   0.856  0.00  0.00    +0.000 C 
ATOM      5  C10 UNL     1      -2.534  -2.119   0.298  0.00  0.00    +0.000 C 
ATOM      6  C11 UNL     1      -2.582  -1.626  -1.144  0.00  0.00    +0.000 C 
ATOM      7  C12 UNL     1      -2.079  -0.180  -1.055  0.00  0.00    +0.000 C 
ENDROOT
BRANCH   7   8
ATOM      8  C13 UNL     1      -3.161   0.850  -0.874  0.00  0.00    +0.000 A 
ATOM      9  C14 UNL     1      -3.202   2.155  -1.427  0.00  0.00    +0.000 A 
ATOM     10  C15 UNL     1      -4.374   2.687  -0.960  0.00  0.00    +0.000 A 
ATOM     11  O2  UNL     1      -5.004   1.776  -0.181  0.00  0.00    +0.000 OA
ATOM     12  N5  UNL     1      -4.247   0.620  -0.118  0.00  0.00    +0.000 NA
ENDBRANCH   7   8
BRANCH   1  13
ATOM     13  C7  UNL     1       0.641   0.740   1.508  0.00  0.00    +0.000 C 
BRANCH  13  20
ATOM     14  C1  UNL     1       4.879  -1.176   0.065  0.00  0.00    +0.000 A 
ATOM     15  C2  UNL     1       5.275  -0.173  -0.830  0.00  0.00    +0.000 A 
ATOM     16  C3  UNL     1       4.470   0.947  -1.051  0.00  0.00    +0.000 A 
ATOM     17  C4  UNL     1       3.246   1.108  -0.391  0.00  0.00    +0.000 A 
ATOM     18  C5  UNL     1       2.872   0.094   0.496  0.00  0.00    +0.000 A 
ATOM     19  C6  UNL     1       3.655  -1.030   0.734  0.00  0.00    +0.000 A 
ATOM     20  N1  UNL     1       1.785  -0.115   1.302  0.00  0.00    +0.000 N 
ATOM     21  N2  UNL     1       1.894  -1.264   2.000  0.00  0.00    +0.000 NA
ATOM     22  N3  UNL     1       3.034  -1.840   1.646  0.00  0.00    +0.000 NA
ENDBRANCH  13  20
ENDBRANCH   1  13
TORSDOF 3
