REMARK  Name = /home/anacleto/Desktop/manuscript_Mpro/naturecomm/supplementary_file_S2/6-chemical-library/molecular_docking/3D_ligand_structure/4043.pdb
REMARK  2 active torsions:
REMARK  status: ('A' for Active; 'I' for Inactive)
REMARK    1  A    between atoms: C7_9  and  C8_10
REMARK    2  A    between atoms: C10_13  and  C11_15
REMARK                            x       y       z     vdW  Elec       q    Type
REMARK                         _______ _______ _______ _____ _____    ______ ____
ROOT
ATOM      1  C8  UNL     1       0.286   0.147  -0.340  0.00  0.00    +0.000 A 
ATOM      2  C9  UNL     1       0.230   1.149  -1.279  0.00  0.00    +0.000 A 
ATOM      3  S1  UNL     1      -1.394   1.615  -1.539  0.00  0.00    +0.000 S 
ATOM      4  C10 UNL     1      -1.930   0.460  -0.359  0.00  0.00    +0.000 A 
ATOM      5  N3  UNL     1      -0.944  -0.265   0.146  0.00  0.00    +0.000 NA
ENDROOT
BRANCH   1  14
ATOM      6  C1  UNL     1       3.483   1.150  -0.143  0.00  0.00    +0.000 A 
ATOM      7  C2  UNL     1       4.862   1.214   0.067  0.00  0.00    +0.000 A 
ATOM      8  C3  UNL     1       5.515   0.110   0.596  0.00  0.00    +0.000 A 
ATOM      9  N1  UNL     1       4.929  -1.056   0.945  0.00  0.00    +0.000 NA
ATOM     10  C4  UNL     1       3.601  -1.065   0.725  0.00  0.00    +0.000 A 
ATOM     11  C5  UNL     1       2.816  -0.045   0.189  0.00  0.00    +0.000 A 
ATOM     12  N2  UNL     1       2.789  -2.124   1.019  0.00  0.00    +0.000 N 
ATOM     13  C6  UNL     1       1.496  -1.822   0.688  0.00  0.00    +0.000 A 
ATOM     14  C7  UNL     1       1.479  -0.547   0.153  0.00  0.00    +0.000 A 
ATOM     15  H4  UNL     1       3.122  -2.984   1.429  0.00  0.00    +0.000 HD
ENDBRANCH   1  14
BRANCH   4  16
ATOM     16  C11 UNL     1      -3.316   0.272  -0.063  0.00  0.00    +0.000 A 
ATOM     17  C12 UNL     1      -4.304   1.390  -0.038  0.00  0.00    +0.000 A 
ATOM     18  O1  UNL     1      -4.004   2.564  -0.229  0.00  0.00    +0.000 OA
ATOM     19  N4  UNL     1      -5.608   1.036   0.231  0.00  0.00    +0.000 N 
ATOM     20  N5  UNL     1      -6.054  -0.215   0.537  0.00  0.00    +0.000 NA
ATOM     21  C13 UNL     1      -5.160  -1.147   0.549  0.00  0.00    +0.000 A 
ATOM     22  C14 UNL     1      -3.736  -0.962   0.250  0.00  0.00    +0.000 A 
ATOM     23  H7  UNL     1      -6.295   1.783   0.260  0.00  0.00    +0.000 HD
ENDBRANCH   4  16
TORSDOF 2
