REMARK  Name = /home/anacleto/Desktop/manuscript_Mpro/naturecomm/supplementary_file_S2/6-chemical-library/molecular_docking/3D_ligand_structure/4045.pdb
REMARK  2 active torsions:
REMARK  status: ('A' for Active; 'I' for Inactive)
REMARK    1  A    between atoms: C5_7  and  C7_10
REMARK    2  A    between atoms: N5_15  and  C10_16
REMARK                            x       y       z     vdW  Elec       q    Type
REMARK                         _______ _______ _______ _____ _____    ______ ____
ROOT
ATOM      1  C7  UNL     1      -0.928  -0.783  -0.488  0.00  0.00    +0.000 A 
ATOM      2  C8  UNL     1      -1.084  -1.995  -1.117  0.00  0.00    +0.000 A 
ATOM      3  S1  UNL     1       0.449  -2.708  -1.407  0.00  0.00    +0.000 S 
ATOM      4  C9  UNL     1       1.225  -1.348  -0.670  0.00  0.00    +0.000 A 
ATOM      5  N4  UNL     1       0.387  -0.431  -0.242  0.00  0.00    +0.000 NA
ATOM      6  N5  UNL     1       2.577  -1.341  -0.600  0.00  0.00    +0.000 N 
ATOM      7  H6  UNL     1       3.050  -2.146  -0.989  0.00  0.00    +0.000 HD
ENDROOT
BRANCH   1  14
ATOM      8  N1  UNL     1      -5.276   1.552   0.493  0.00  0.00    +0.000 NA
ATOM      9  C1  UNL     1      -6.047   0.642  -0.012  0.00  0.00    +0.000 A 
ATOM     10  C2  UNL     1      -5.612  -0.631  -0.643  0.00  0.00    +0.000 A 
ATOM     11  C3  UNL     1      -4.287  -0.826  -0.677  0.00  0.00    +0.000 A 
ATOM     12  N2  UNL     1      -3.429   0.133  -0.143  0.00  0.00    +0.000 N 
ATOM     13  C4  UNL     1      -3.933   1.308   0.435  0.00  0.00    +0.000 A 
ATOM     14  C5  UNL     1      -2.056   0.196  -0.042  0.00  0.00    +0.000 A 
ATOM     15  C6  UNL     1      -1.801   1.396   0.586  0.00  0.00    +0.000 A 
ATOM     16  N3  UNL     1      -2.954   2.070   0.875  0.00  0.00    +0.000 NA
ENDBRANCH   1  14
BRANCH   6  17
ATOM     17  C10 UNL     1       3.444  -0.372  -0.060  0.00  0.00    +0.000 A 
ATOM     18  C11 UNL     1       4.828  -0.614  -0.115  0.00  0.00    +0.000 A 
ATOM     19  C12 UNL     1       5.751   0.302   0.401  0.00  0.00    +0.000 A 
ATOM     20  C13 UNL     1       5.305   1.483   0.985  0.00  0.00    +0.000 A 
ATOM     21  C14 UNL     1       3.940   1.743   1.050  0.00  0.00    +0.000 A 
ATOM     22  C15 UNL     1       3.021   0.823   0.532  0.00  0.00    +0.000 A 
ENDBRANCH   6  17
TORSDOF 2
