REMARK  Name = /home/anacleto/Desktop/manuscript_Mpro/naturecomm/supplementary_file_S2/6-chemical-library/molecular_docking/3D_ligand_structure/4049.pdb
REMARK  2 active torsions:
REMARK  status: ('A' for Active; 'I' for Inactive)
REMARK    1  A    between atoms: C9_10  and  C10_11
REMARK    2  A    between atoms: N5_18  and  C13_19
REMARK                            x       y       z     vdW  Elec       q    Type
REMARK                         _______ _______ _______ _____ _____    ______ ____
ROOT
ATOM      1  C10 UNL     1       0.563   0.531   0.644  0.00  0.00    +0.000 C 
ATOM      2  O1  UNL     1       1.515   1.115   1.169  0.00  0.00    +0.000 OA
ATOM      3  N2  UNL     1       0.364   0.393  -0.713  0.00  0.00    +0.000 N 
ATOM      4  C11 UNL     1       1.240   0.893  -1.651  0.00  0.00    +0.000 A 
ATOM      5  N3  UNL     1       0.870   1.369  -2.822  0.00  0.00    +0.000 NA
ATOM      6  N4  UNL     1       1.995   1.813  -3.497  0.00  0.00    +0.000 NA
ATOM      7  C12 UNL     1       3.038   1.512  -2.761  0.00  0.00    +0.000 A 
ATOM      8  N5  UNL     1       2.617   0.911  -1.607  0.00  0.00    +0.000 N 
ATOM      9  H11 UNL     1      -0.582   0.244  -1.049  0.00  0.00    +0.000 HD
ENDROOT
BRANCH   1  19
ATOM     10  C1  UNL     1      -2.178   1.829   1.348  0.00  0.00    +0.000 A 
ATOM     11  C2  UNL     1      -3.429   2.347   1.010  0.00  0.00    +0.000 A 
ATOM     12  C3  UNL     1      -4.432   1.495   0.543  0.00  0.00    +0.000 A 
ATOM     13  C4  UNL     1      -4.185   0.123   0.400  0.00  0.00    +0.000 A 
ATOM     14  C5  UNL     1      -2.924  -0.411   0.712  0.00  0.00    +0.000 A 
ATOM     15  C6  UNL     1      -1.914   0.450   1.199  0.00  0.00    +0.000 A 
ATOM     16  C7  UNL     1      -2.687  -1.906   0.609  0.00  0.00    +0.000 C 
ATOM     17  N1  UNL     1      -1.273  -2.214   0.331  0.00  0.00    +0.000 NA
ATOM     18  C8  UNL     1      -0.424  -1.633   1.400  0.00  0.00    +0.000 C 
ATOM     19  C9  UNL     1      -0.529  -0.104   1.510  0.00  0.00    +0.000 C 
ATOM     20  H7  UNL     1      -1.166  -3.233   0.326  0.00  0.00    +0.000 HD
ENDBRANCH   1  19
BRANCH   8  21
ATOM     21  C13 UNL     1       3.518   0.239  -0.654  0.00  0.00    +0.000 C 
ATOM     22  C14 UNL     1       3.382  -1.238  -0.331  0.00  0.00    +0.000 C 
ATOM     23  C15 UNL     1       4.575  -0.743  -1.093  0.00  0.00    +0.000 C 
ENDBRANCH   8  21
TORSDOF 2
