REMARK  Name = /home/anacleto/Desktop/manuscript_Mpro/naturecomm/supplementary_file_S2/6-chemical-library/molecular_docking/3D_ligand_structure/4057.pdb
REMARK  3 active torsions:
REMARK  status: ('A' for Active; 'I' for Inactive)
REMARK    1  A    between atoms: C4_5  and  C5_6
REMARK    2  A    between atoms: C6_9  and  S2_11
REMARK    3  A    between atoms: S2_11  and  C7_12
REMARK                            x       y       z     vdW  Elec       q    Type
REMARK                         _______ _______ _______ _____ _____    ______ ____
ROOT
ATOM      1  C5  UNL     1       1.912  -0.101  -0.390  0.00  0.00    +0.000 A 
ATOM      2  N1  UNL     1       1.378  -1.021   0.395  0.00  0.00    +0.000 NA
ATOM      3  N2  UNL     1       0.110  -1.271  -0.083  0.00  0.00    +0.000 NA
ATOM      4  C6  UNL     1      -0.059  -0.483  -1.125  0.00  0.00    +0.000 A 
ATOM      5  O1  UNL     1       1.049   0.272  -1.393  0.00  0.00    +0.000 OA
ENDROOT
BRANCH   1  10
ATOM      6  S1  UNL     1       3.879   1.605  -1.282  0.00  0.00    +0.000 S 
ATOM      7  C1  UNL     1       5.357   1.673  -0.423  0.00  0.00    +0.000 A 
ATOM      8  C2  UNL     1       5.366   0.819   0.656  0.00  0.00    +0.000 A 
ATOM      9  C3  UNL     1       4.139   0.101   0.776  0.00  0.00    +0.000 A 
ATOM     10  C4  UNL     1       3.233   0.430  -0.215  0.00  0.00    +0.000 A 
ENDBRANCH   1  10
BRANCH   4  11
ATOM     11  S2  UNL     1      -1.499  -0.426  -2.104  0.00  0.00    +0.000 S 
BRANCH  11  12
ATOM     12  C7  UNL     1      -2.649  -0.730  -0.836  0.00  0.00    +0.000 A 
ATOM     13  C8  UNL     1      -3.381  -1.857  -0.833  0.00  0.00    +0.000 A 
ATOM     14  C9  UNL     1      -4.332  -1.999   0.299  0.00  0.00    +0.000 A 
ATOM     15  N3  UNL     1      -4.528  -1.147   1.255  0.00  0.00    +0.000 NA
ATOM     16  N4  UNL     1      -2.837   0.215   0.185  0.00  0.00    +0.000 N 
ATOM     17  C10 UNL     1      -3.771  -0.011   1.209  0.00  0.00    +0.000 A 
ATOM     18  N5  UNL     1      -2.243   1.426   0.383  0.00  0.00    +0.000 NA
ATOM     19  C11 UNL     1      -2.832   1.846   1.501  0.00  0.00    +0.000 A 
ATOM     20  N6  UNL     1      -3.766   1.015   2.032  0.00  0.00    +0.000 NA
ENDBRANCH  11  12
ENDBRANCH   4  11
TORSDOF 3
