REMARK  Name = /home/anacleto/Desktop/manuscript_Mpro/naturecomm/supplementary_file_S2/6-chemical-library/molecular_docking/3D_ligand_structure/4059.pdb
REMARK  3 active torsions:
REMARK  status: ('A' for Active; 'I' for Inactive)
REMARK    1  A    between atoms: C2_5  and  C3_6
REMARK    2  A    between atoms: C3_6  and  N3_7
REMARK    3  A    between atoms: C8_15  and  C10_17
REMARK                            x       y       z     vdW  Elec       q    Type
REMARK                         _______ _______ _______ _____ _____    ______ ____
ROOT
ATOM      1  N3  UNL     1      -2.252   0.135   1.223  0.00  0.00    +0.000 N 
ATOM      2  C4  UNL     1      -1.904  -0.972   1.969  0.00  0.00    +0.000 C 
ATOM      3  O2  UNL     1      -2.563  -1.515   2.840  0.00  0.00    +0.000 OA
ATOM      4  N4  UNL     1      -0.635  -1.383   1.597  0.00  0.00    +0.000 N 
ATOM      5  C5  UNL     1      -1.260   0.536   0.357  0.00  0.00    +0.000 C 
ATOM      6  O3  UNL     1      -1.334   1.505  -0.388  0.00  0.00    +0.000 OA
ATOM      7  C6  UNL     1      -0.084  -0.501   0.555  0.00  0.00    +0.000 C 
ATOM      8  C7  UNL     1       1.342   0.025   0.837  0.00  0.00    +0.000 C 
ATOM      9  C8  UNL     1       1.878  -1.142  -0.017  0.00  0.00    +0.000 C 
ATOM     10  C9  UNL     1       0.484  -1.232  -0.680  0.00  0.00    +0.000 C 
ATOM     11  H4  UNL     1      -0.204  -2.178   2.047  0.00  0.00    +0.000 HD
ENDROOT
BRANCH   9  12
ATOM     12  C10 UNL     1       2.986  -0.854  -1.043  0.00  0.00    +0.000 C 
ATOM     13  C11 UNL     1       4.323  -0.506  -0.357  0.00  0.00    +0.000 C 
ATOM     14  C12 UNL     1       4.089   0.974  -0.703  0.00  0.00    +0.000 C 
ATOM     15  C13 UNL     1       3.002   0.536  -1.701  0.00  0.00    +0.000 C 
ENDBRANCH   9  12
BRANCH   1  16
ATOM     16  C3  UNL     1      -3.522   0.813   1.351  0.00  0.00    +0.000 C 
BRANCH  16  21
ATOM     17  N1  UNL     1      -5.322  -0.551   0.354  0.00  0.00    +0.000 NA
ATOM     18  O1  UNL     1      -5.957  -0.612  -0.885  0.00  0.00    +0.000 OA
ATOM     19  N2  UNL     1      -5.436   0.335  -1.764  0.00  0.00    +0.000 NA
ATOM     20  C1  UNL     1      -4.493   0.960  -1.062  0.00  0.00    +0.000 A 
ATOM     21  C2  UNL     1      -4.418   0.425   0.231  0.00  0.00    +0.000 A 
ENDBRANCH  16  21
ENDBRANCH   1  16
TORSDOF 3
