REMARK  Name = /home/anacleto/Desktop/manuscript_Mpro/naturecomm/supplementary_file_S2/6-chemical-library/molecular_docking/3D_ligand_structure/406.pdb
REMARK  8 active torsions:
REMARK  status: ('A' for Active; 'I' for Inactive)
REMARK    1  A    between atoms: C3_4  and  C5_7
REMARK    2  A    between atoms: C5_7  and  C6_8
REMARK    3  A    between atoms: C6_8  and  N2_9
REMARK    4  A    between atoms: C7_10  and  C8_12
REMARK    5  A    between atoms: C8_12  and  N3_13
REMARK    6  A    between atoms: C9_14  and  O4_16
REMARK    7  A    between atoms: O4_16  and  C10_17
REMARK    8  A    between atoms: C10_17  and  C11_18
REMARK                            x       y       z     vdW  Elec       q    Type
REMARK                         _______ _______ _______ _____ _____    ______ ____
ROOT
ATOM      1  N2  UNL     1      -1.290  -0.570   0.528  0.00  0.00    +0.000 N 
ATOM      2  C7  UNL     1      -0.924  -1.876   0.777  0.00  0.00    +0.000 C 
ATOM      3  O2  UNL     1      -1.702  -2.719   1.218  0.00  0.00    +0.000 OA
ATOM      4  H11 UNL     1      -0.540   0.089   0.362  0.00  0.00    +0.000 HD
ENDROOT
BRANCH   1   5
ATOM      5  C6  UNL     1      -2.592  -0.050   0.895  0.00  0.00    +0.000 C 
BRANCH   5   6
ATOM      6  C5  UNL     1      -3.675  -0.481  -0.096  0.00  0.00    +0.000 C 
BRANCH   6  10
ATOM      7  N1  UNL     1      -5.945   1.668  -1.144  0.00  0.00    +0.000 N 
ATOM      8  C1  UNL     1      -6.303   0.412  -1.726  0.00  0.00    +0.000 C 
ATOM      9  C2  UNL     1      -6.177  -0.554  -0.564  0.00  0.00    +0.000 C 
ATOM     10  C3  UNL     1      -5.057   0.042   0.304  0.00  0.00    +0.000 C 
ATOM     11  C4  UNL     1      -5.184   1.522  -0.004  0.00  0.00    +0.000 C 
ATOM     12  O1  UNL     1      -4.661   2.437   0.608  0.00  0.00    +0.000 OA
ATOM     13  H1  UNL     1      -6.055   2.577  -1.577  0.00  0.00    +0.000 HD
ENDBRANCH   6  10
ENDBRANCH   5   6
ENDBRANCH   1   5
BRANCH   2  14
ATOM     14  C8  UNL     1       0.536  -2.217   0.454  0.00  0.00    +0.000 C 
BRANCH  14  15
ATOM     15  N3  UNL     1       1.280  -1.128  -0.155  0.00  0.00    +0.000 N 
ATOM     16  C9  UNL     1       2.101  -0.308   0.553  0.00  0.00    +0.000 C 
ATOM     17  O3  UNL     1       2.267  -0.355   1.761  0.00  0.00    +0.000 OA
ATOM     18  H14 UNL     1       1.244  -0.986  -1.155  0.00  0.00    +0.000 HD
BRANCH  16  19
ATOM     19  O4  UNL     1       2.672   0.575  -0.296  0.00  0.00    +0.000 OA
BRANCH  19  20
ATOM     20  C10 UNL     1       3.600   1.492   0.295  0.00  0.00    +0.000 C 
BRANCH  20  21
ATOM     21  C11 UNL     1       5.005   0.991   0.082  0.00  0.00    +0.000 A 
ATOM     22  C12 UNL     1       5.680   1.248  -1.119  0.00  0.00    +0.000 A 
ATOM     23  C13 UNL     1       6.975   0.765  -1.319  0.00  0.00    +0.000 A 
ATOM     24  C14 UNL     1       7.601   0.015  -0.326  0.00  0.00    +0.000 A 
ATOM     25  C15 UNL     1       6.934  -0.258   0.867  0.00  0.00    +0.000 A 
ATOM     26  C16 UNL     1       5.640   0.225   1.069  0.00  0.00    +0.000 A 
ENDBRANCH  20  21
ENDBRANCH  19  20
ENDBRANCH  16  19
ENDBRANCH  14  15
ENDBRANCH   2  14
TORSDOF 8
