REMARK  Name = /home/anacleto/Desktop/manuscript_Mpro/naturecomm/supplementary_file_S2/6-chemical-library/molecular_docking/3D_ligand_structure/4060.pdb
REMARK  3 active torsions:
REMARK  status: ('A' for Active; 'I' for Inactive)
REMARK    1  A    between atoms: C2_5  and  C3_6
REMARK    2  A    between atoms: C3_6  and  N4_7
REMARK    3  A    between atoms: C8_15  and  C10_17
REMARK                            x       y       z     vdW  Elec       q    Type
REMARK                         _______ _______ _______ _____ _____    ______ ____
ROOT
ATOM      1  N4  UNL     1       2.114   0.941   0.942  0.00  0.00    +0.000 N 
ATOM      2  C4  UNL     1       1.729   2.238   0.668  0.00  0.00    +0.000 C 
ATOM      3  O1  UNL     1       2.356   3.261   0.886  0.00  0.00    +0.000 OA
ATOM      4  N5  UNL     1       0.453   2.223   0.128  0.00  0.00    +0.000 N 
ATOM      5  C5  UNL     1       1.124   0.022   0.677  0.00  0.00    +0.000 C 
ATOM      6  O2  UNL     1       1.229  -1.184   0.880  0.00  0.00    +0.000 OA
ATOM      7  C6  UNL     1      -0.081   0.853   0.082  0.00  0.00    +0.000 C 
ATOM      8  C7  UNL     1      -1.485   0.683   0.701  0.00  0.00    +0.000 C 
ATOM      9  C8  UNL     1      -2.069   0.797  -0.721  0.00  0.00    +0.000 C 
ATOM     10  C9  UNL     1      -0.675   0.436  -1.280  0.00  0.00    +0.000 C 
ATOM     11  H5  UNL     1      -0.018   3.092  -0.082  0.00  0.00    +0.000 HD
ENDROOT
BRANCH   9  12
ATOM     12  C10 UNL     1      -3.145  -0.209  -1.138  0.00  0.00    +0.000 C 
ATOM     13  C11 UNL     1      -4.362  -0.213  -0.187  0.00  0.00    +0.000 C 
ATOM     14  C12 UNL     1      -4.439  -1.737  -0.424  0.00  0.00    +0.000 C 
ATOM     15  C13 UNL     1      -2.932  -1.691  -0.761  0.00  0.00    +0.000 C 
ENDBRANCH   9  12
BRANCH   1  16
ATOM     16  C3  UNL     1       3.381   0.598   1.548  0.00  0.00    +0.000 C 
BRANCH  16  21
ATOM     17  N1  UNL     1       3.969  -1.415   0.173  0.00  0.00    +0.000 N 
ATOM     18  N2  UNL     1       4.897  -1.857  -0.691  0.00  0.00    +0.000 NA
ATOM     19  C1  UNL     1       5.706  -0.800  -0.776  0.00  0.00    +0.000 A 
ATOM     20  N3  UNL     1       5.341   0.275  -0.017  0.00  0.00    +0.000 NA
ATOM     21  C2  UNL     1       4.238  -0.133   0.576  0.00  0.00    +0.000 A 
ATOM     22  H1  UNL     1       3.175  -2.001   0.420  0.00  0.00    +0.000 HD
ENDBRANCH  16  21
ENDBRANCH   1  16
TORSDOF 3
