REMARK  Name = /home/anacleto/Desktop/manuscript_Mpro/naturecomm/supplementary_file_S2/6-chemical-library/molecular_docking/3D_ligand_structure/4072.pdb
REMARK  8 active torsions:
REMARK  status: ('A' for Active; 'I' for Inactive)
REMARK    1  A    between atoms: C6_6  and  N1_7
REMARK    2  A    between atoms: N1_7  and  C11_15
REMARK    3  A    between atoms: C7_8  and  C8_10
REMARK    4  A    between atoms: C11_15  and  C12_16
REMARK    5  A    between atoms: C11_15  and  C17_22
REMARK    6  A    between atoms: N4_24  and  C18_25
REMARK    7  A    between atoms: C18_25  and  S1_26
REMARK    8  A    between atoms: S1_26  and  C19_29
REMARK                            x       y       z     vdW  Elec       q    Type
REMARK                         _______ _______ _______ _____ _____    ______ ____
ROOT
ATOM      1  C11 UNL     1      -1.263  -1.223   0.539  0.00  0.00    +0.000 C 
ENDROOT
BRANCH   1   2
ATOM      2  C12 UNL     1      -1.199  -1.943  -0.798  0.00  0.00    +0.000 A 
ATOM      3  C13 UNL     1      -0.460  -1.470  -1.890  0.00  0.00    +0.000 A 
ATOM      4  C14 UNL     1      -0.441  -2.192  -3.079  0.00  0.00    +0.000 A 
ATOM      5  C15 UNL     1      -1.172  -3.365  -3.146  0.00  0.00    +0.000 A 
ATOM      6  N3  UNL     1      -1.909  -3.847  -2.123  0.00  0.00    +0.000 NA
ATOM      7  C16 UNL     1      -1.908  -3.129  -0.978  0.00  0.00    +0.000 A 
ENDBRANCH   1   2
BRANCH   1   8
ATOM      8  C17 UNL     1       0.091  -0.538   0.906  0.00  0.00    +0.000 C 
ATOM      9  O3  UNL     1       0.247   0.677   1.012  0.00  0.00    +0.000 OA
ATOM     10  N4  UNL     1       1.146  -1.417   1.109  0.00  0.00    +0.000 N 
ATOM     11  H13 UNL     1       1.054  -2.362   0.751  0.00  0.00    +0.000 HD
BRANCH  10  12
ATOM     12  C18 UNL     1       2.504  -0.889   1.219  0.00  0.00    +0.000 C 
BRANCH  12  13
ATOM     13  S1  UNL     1       3.410  -0.741  -0.340  0.00  0.00    +0.000 S 
ATOM     14  O4  UNL     1       2.696   0.140  -1.245  0.00  0.00    +0.000 OA
ATOM     15  O5  UNL     1       3.768  -2.083  -0.769  0.00  0.00    +0.000 OA
BRANCH  13  16
ATOM     16  C19 UNL     1       4.901   0.090   0.147  0.00  0.00    +0.000 A 
ATOM     17  C20 UNL     1       4.891   1.482   0.283  0.00  0.00    +0.000 A 
ATOM     18  C21 UNL     1       6.059   2.140   0.664  0.00  0.00    +0.000 A 
ATOM     19  C22 UNL     1       7.228   1.411   0.895  0.00  0.00    +0.000 A 
ATOM     20  C23 UNL     1       7.235   0.024   0.740  0.00  0.00    +0.000 A 
ATOM     21  C24 UNL     1       6.071  -0.643   0.360  0.00  0.00    +0.000 A 
ENDBRANCH  13  16
ENDBRANCH  12  13
ENDBRANCH  10  12
ENDBRANCH   1   8
BRANCH   1  22
ATOM     22  N1  UNL     1      -2.433  -0.331   0.728  0.00  0.00    +0.000 N 
ATOM     23  C7  UNL     1      -2.799  -0.143   2.084  0.00  0.00    +0.000 C 
ATOM     24  O1  UNL     1      -2.169  -0.690   2.992  0.00  0.00    +0.000 OA
BRANCH  22  30
ATOM     25  C1  UNL     1      -2.379   2.037   0.042  0.00  0.00    +0.000 A 
ATOM     26  C2  UNL     1      -2.630   3.030  -0.907  0.00  0.00    +0.000 A 
ATOM     27  C3  UNL     1      -3.170   2.692  -2.145  0.00  0.00    +0.000 A 
ATOM     28  C4  UNL     1      -3.461   1.361  -2.436  0.00  0.00    +0.000 A 
ATOM     29  C5  UNL     1      -3.208   0.366  -1.489  0.00  0.00    +0.000 A 
ATOM     30  C6  UNL     1      -2.657   0.693  -0.245  0.00  0.00    +0.000 A 
ENDBRANCH  22  30
BRANCH  23  31
ATOM     31  C8  UNL     1      -4.005   0.637   2.389  0.00  0.00    +0.000 A 
ATOM     32  C9  UNL     1      -5.134   0.812   1.616  0.00  0.00    +0.000 A 
ATOM     33  O2  UNL     1      -6.025   1.574   2.310  0.00  0.00    +0.000 OA
ATOM     34  C10 UNL     1      -5.395   1.815   3.490  0.00  0.00    +0.000 A 
ATOM     35  N2  UNL     1      -4.203   1.280   3.604  0.00  0.00    +0.000 NA
ENDBRANCH  23  31
ENDBRANCH   1  22
TORSDOF 8
