REMARK  Name = /home/anacleto/Desktop/manuscript_Mpro/naturecomm/supplementary_file_S2/6-chemical-library/molecular_docking/3D_ligand_structure/4081.pdb
REMARK  8 active torsions:
REMARK  status: ('A' for Active; 'I' for Inactive)
REMARK    1  A    between atoms: C4_7  and  C5_8
REMARK    2  A    between atoms: N3_10  and  C6_11
REMARK    3  A    between atoms: N3_10  and  C12_17
REMARK    4  A    between atoms: C12_17  and  C13_18
REMARK    5  A    between atoms: C12_17  and  C18_24
REMARK    6  A    between atoms: N5_26  and  C19_27
REMARK    7  A    between atoms: C19_27  and  C20_28
REMARK    8  A    between atoms: C20_28  and  C21_29
REMARK                            x       y       z     vdW  Elec       q    Type
REMARK                         _______ _______ _______ _____ _____    ______ ____
ROOT
ATOM      1  C12 UNL     1      -0.494   0.434  -0.887  0.00  0.00    +0.000 C 
ENDROOT
BRANCH   1   2
ATOM      2  C13 UNL     1      -0.667   0.109  -2.365  0.00  0.00    +0.000 A 
ATOM      3  C14 UNL     1      -1.262   1.045  -3.224  0.00  0.00    +0.000 A 
ATOM      4  C15 UNL     1      -1.413   0.755  -4.577  0.00  0.00    +0.000 A 
ATOM      5  C16 UNL     1      -0.964  -0.470  -5.036  0.00  0.00    +0.000 A 
ATOM      6  N4  UNL     1      -0.398  -1.402  -4.243  0.00  0.00    +0.000 NA
ATOM      7  C17 UNL     1      -0.280  -1.104  -2.928  0.00  0.00    +0.000 A 
ENDBRANCH   1   2
BRANCH   1   8
ATOM      8  C18 UNL     1       0.789  -0.116  -0.204  0.00  0.00    +0.000 C 
ATOM      9  O3  UNL     1       0.809  -0.514   0.960  0.00  0.00    +0.000 OA
ATOM     10  N5  UNL     1       1.952  -0.011  -0.951  0.00  0.00    +0.000 N 
ATOM     11  H14 UNL     1       1.913   0.299  -1.915  0.00  0.00    +0.000 HD
BRANCH  10  12
ATOM     12  C19 UNL     1       3.226  -0.491  -0.442  0.00  0.00    +0.000 C 
BRANCH  12  13
ATOM     13  C20 UNL     1       3.867   0.493   0.539  0.00  0.00    +0.000 C 
BRANCH  13  14
ATOM     14  C21 UNL     1       5.210   0.005   1.019  0.00  0.00    +0.000 A 
ATOM     15  C22 UNL     1       6.392   0.456   0.417  0.00  0.00    +0.000 A 
ATOM     16  C23 UNL     1       7.631  -0.015   0.855  0.00  0.00    +0.000 A 
ATOM     17  C24 UNL     1       7.699  -0.942   1.893  0.00  0.00    +0.000 A 
ATOM     18  C25 UNL     1       6.529  -1.400   2.496  0.00  0.00    +0.000 A 
ATOM     19  C26 UNL     1       5.289  -0.929   2.061  0.00  0.00    +0.000 A 
ENDBRANCH  13  14
ENDBRANCH  12  13
ENDBRANCH  10  12
ENDBRANCH   1   8
BRANCH   1  22
ATOM     20  C5  UNL     1      -2.076  -1.181   0.097  0.00  0.00    +0.000 C 
ATOM     21  O2  UNL     1      -1.522  -2.145  -0.424  0.00  0.00    +0.000 OA
ATOM     22  N3  UNL     1      -1.715   0.156  -0.104  0.00  0.00    +0.000 N 
BRANCH  20  29
ATOM     23  N1  UNL     1      -3.178  -1.009   2.269  0.00  0.00    +0.000 NA
ATOM     24  N2  UNL     1      -4.236  -1.327   3.078  0.00  0.00    +0.000 N 
ATOM     25  C1  UNL     1      -5.312  -2.103   2.725  0.00  0.00    +0.000 A 
ATOM     26  O1  UNL     1      -6.250  -2.340   3.477  0.00  0.00    +0.000 OA
ATOM     27  C2  UNL     1      -5.288  -2.656   1.355  0.00  0.00    +0.000 A 
ATOM     28  C3  UNL     1      -4.274  -2.373   0.533  0.00  0.00    +0.000 A 
ATOM     29  C4  UNL     1      -3.208  -1.493   1.064  0.00  0.00    +0.000 A 
ATOM     30  H1  UNL     1      -4.221  -0.940   4.015  0.00  0.00    +0.000 HD
ENDBRANCH  20  29
BRANCH  22  31
ATOM     31  C6  UNL     1      -2.540   1.262   0.251  0.00  0.00    +0.000 A 
ATOM     32  C7  UNL     1      -1.980   2.388   0.869  0.00  0.00    +0.000 A 
ATOM     33  C8  UNL     1      -2.776   3.488   1.198  0.00  0.00    +0.000 A 
ATOM     34  C9  UNL     1      -4.137   3.476   0.905  0.00  0.00    +0.000 A 
ATOM     35  C10 UNL     1      -4.704   2.365   0.284  0.00  0.00    +0.000 A 
ATOM     36  C11 UNL     1      -3.909   1.264  -0.044  0.00  0.00    +0.000 A 
ENDBRANCH  22  31
ENDBRANCH   1  22
TORSDOF 8
