REMARK  Name = /home/anacleto/Desktop/manuscript_Mpro/naturecomm/supplementary_file_S2/6-chemical-library/molecular_docking/3D_ligand_structure/4103.pdb
REMARK  8 active torsions:
REMARK  status: ('A' for Active; 'I' for Inactive)
REMARK    1  A    between atoms: C6_6  and  N1_7
REMARK    2  A    between atoms: N1_7  and  C11_15
REMARK    3  A    between atoms: C7_8  and  C8_10
REMARK    4  A    between atoms: C11_15  and  C12_16
REMARK    5  A    between atoms: C11_15  and  C17_22
REMARK    6  A    between atoms: N4_24  and  C18_25
REMARK    7  A    between atoms: C18_25  and  C19_26
REMARK    8  A    between atoms: C19_26  and  C20_27
REMARK                            x       y       z     vdW  Elec       q    Type
REMARK                         _______ _______ _______ _____ _____    ______ ____
ROOT
ATOM      1  C11 UNL     1      -1.400  -0.398   0.913  0.00  0.00    +0.000 C 
ENDROOT
BRANCH   1   2
ATOM      2  C12 UNL     1      -2.078  -1.627   1.526  0.00  0.00    +0.000 A 
ATOM      3  C13 UNL     1      -3.454  -1.596   1.810  0.00  0.00    +0.000 A 
ATOM      4  C14 UNL     1      -4.084  -2.708   2.360  0.00  0.00    +0.000 A 
ATOM      5  C15 UNL     1      -3.319  -3.829   2.621  0.00  0.00    +0.000 A 
ATOM      6  N3  UNL     1      -1.995  -3.902   2.378  0.00  0.00    +0.000 NA
ATOM      7  C16 UNL     1      -1.405  -2.804   1.846  0.00  0.00    +0.000 A 
ENDBRANCH   1   2
BRANCH   1   8
ATOM      8  C17 UNL     1       0.156  -0.439   0.845  0.00  0.00    +0.000 C 
ATOM      9  O2  UNL     1       0.850  -0.760   1.810  0.00  0.00    +0.000 OA
ATOM     10  N4  UNL     1       0.720  -0.104  -0.372  0.00  0.00    +0.000 N 
ATOM     11  H13 UNL     1       0.117   0.297  -1.081  0.00  0.00    +0.000 HD
BRANCH  10  12
ATOM     12  C18 UNL     1       2.154   0.038  -0.535  0.00  0.00    +0.000 C 
BRANCH  12  13
ATOM     13  C19 UNL     1       2.663   1.374   0.012  0.00  0.00    +0.000 C 
BRANCH  13  14
ATOM     14  C20 UNL     1       4.151   1.526  -0.184  0.00  0.00    +0.000 A 
ATOM     15  C21 UNL     1       5.043   1.004   0.762  0.00  0.00    +0.000 A 
ATOM     16  C22 UNL     1       6.421   1.123   0.574  0.00  0.00    +0.000 A 
ATOM     17  C23 UNL     1       6.918   1.762  -0.561  0.00  0.00    +0.000 A 
ATOM     18  C24 UNL     1       6.039   2.280  -1.509  0.00  0.00    +0.000 A 
ATOM     19  C25 UNL     1       4.660   2.162  -1.324  0.00  0.00    +0.000 A 
ENDBRANCH  13  14
ENDBRANCH  12  13
ENDBRANCH  10  12
ENDBRANCH   1   8
BRANCH   1  20
ATOM     20  N1  UNL     1      -2.054   0.079  -0.356  0.00  0.00    +0.000 N 
ATOM     21  C7  UNL     1      -2.387   1.460  -0.537  0.00  0.00    +0.000 C 
ATOM     22  O1  UNL     1      -3.060   1.852  -1.493  0.00  0.00    +0.000 OA
BRANCH  20  28
ATOM     23  C1  UNL     1      -3.552  -0.771  -2.167  0.00  0.00    +0.000 A 
ATOM     24  C2  UNL     1      -3.902  -1.737  -3.120  0.00  0.00    +0.000 A 
ATOM     25  C3  UNL     1      -3.124  -2.875  -3.282  0.00  0.00    +0.000 A 
ATOM     26  C4  UNL     1      -1.998  -3.047  -2.488  0.00  0.00    +0.000 A 
ATOM     27  C5  UNL     1      -1.650  -2.079  -1.537  0.00  0.00    +0.000 A 
ATOM     28  C6  UNL     1      -2.416  -0.913  -1.355  0.00  0.00    +0.000 A 
ENDBRANCH  20  28
BRANCH  21  29
ATOM     29  C8  UNL     1      -1.858   2.448   0.415  0.00  0.00    +0.000 A 
ATOM     30  N2  UNL     1      -0.680   2.361   1.005  0.00  0.00    +0.000 NA
ATOM     31  C9  UNL     1      -0.470   3.471   1.800  0.00  0.00    +0.000 A 
ATOM     32  C10 UNL     1      -1.486   4.401   1.799  0.00  0.00    +0.000 A 
ATOM     33  S1  UNL     1      -2.750   3.875   0.768  0.00  0.00    +0.000 S 
ENDBRANCH  21  29
ENDBRANCH   1  20
TORSDOF 8
