REMARK  Name = /home/anacleto/Desktop/manuscript_Mpro/naturecomm/supplementary_file_S2/6-chemical-library/molecular_docking/3D_ligand_structure/4110.pdb
REMARK  8 active torsions:
REMARK  status: ('A' for Active; 'I' for Inactive)
REMARK    1  A    between atoms: C5_6  and  N2_7
REMARK    2  A    between atoms: N2_7  and  C10_15
REMARK    3  A    between atoms: C6_8  and  C7_10
REMARK    4  A    between atoms: C10_15  and  C11_16
REMARK    5  A    between atoms: C10_15  and  C16_22
REMARK    6  A    between atoms: N5_24  and  C17_25
REMARK    7  A    between atoms: C17_25  and  C18_26
REMARK    8  A    between atoms: C18_26  and  C19_27
REMARK                            x       y       z     vdW  Elec       q    Type
REMARK                         _______ _______ _______ _____ _____    ______ ____
ROOT
ATOM      1  C10 UNL     1      -1.025  -0.001   1.168  0.00  0.00    +0.000 C 
ENDROOT
BRANCH   1   2
ATOM      2  C11 UNL     1      -1.523   1.282   1.823  0.00  0.00    +0.000 A 
ATOM      3  C12 UNL     1      -2.888   1.456   2.103  0.00  0.00    +0.000 A 
ATOM      4  C13 UNL     1      -3.342   2.631   2.696  0.00  0.00    +0.000 A 
ATOM      5  C14 UNL     1      -2.414   3.608   3.004  0.00  0.00    +0.000 A 
ATOM      6  N4  UNL     1      -1.094   3.484   2.765  0.00  0.00    +0.000 NA
ATOM      7  C15 UNL     1      -0.678   2.328   2.192  0.00  0.00    +0.000 A 
ENDBRANCH   1   2
BRANCH   1   8
ATOM      8  C16 UNL     1       0.517  -0.194   1.081  0.00  0.00    +0.000 C 
ATOM      9  O3  UNL     1       1.250  -0.070   2.062  0.00  0.00    +0.000 OA
ATOM     10  N5  UNL     1       1.009  -0.547  -0.160  0.00  0.00    +0.000 N 
ATOM     11  H18 UNL     1       0.434  -0.266  -0.947  0.00  0.00    +0.000 HD
BRANCH  10  12
ATOM     12  C17 UNL     1       2.436  -0.668  -0.398  0.00  0.00    +0.000 C 
BRANCH  12  13
ATOM     13  C18 UNL     1       3.118   0.693  -0.550  0.00  0.00    +0.000 C 
BRANCH  13  14
ATOM     14  C19 UNL     1       4.597   0.552  -0.803  0.00  0.00    +0.000 A 
ATOM     15  C20 UNL     1       5.489   0.440   0.272  0.00  0.00    +0.000 A 
ATOM     16  C21 UNL     1       6.857   0.289   0.042  0.00  0.00    +0.000 A 
ATOM     17  C22 UNL     1       7.345   0.246  -1.263  0.00  0.00    +0.000 A 
ATOM     18  C23 UNL     1       6.465   0.351  -2.339  0.00  0.00    +0.000 A 
ATOM     19  C24 UNL     1       5.096   0.502  -2.112  0.00  0.00    +0.000 A 
ENDBRANCH  13  14
ENDBRANCH  12  13
ENDBRANCH  10  12
ENDBRANCH   1   8
BRANCH   1  20
ATOM     20  N2  UNL     1      -1.771  -0.397  -0.067  0.00  0.00    +0.000 N 
ATOM     21  C6  UNL     1      -2.203   0.501  -1.055  0.00  0.00    +0.000 C 
ATOM     22  O1  UNL     1      -3.143   0.232  -1.801  0.00  0.00    +0.000 OA
BRANCH  20  28
ATOM     23  C1  UNL     1      -1.922  -2.496  -1.499  0.00  0.00    +0.000 C 
ATOM     24  N1  UNL     1      -2.296  -3.918  -1.499  0.00  0.00    +0.000 NA
ATOM     25  C2  UNL     1      -3.719  -4.074  -1.184  0.00  0.00    +0.000 C 
ATOM     26  C3  UNL     1      -4.068  -3.481   0.181  0.00  0.00    +0.000 C 
ATOM     27  C4  UNL     1      -3.674  -2.007   0.274  0.00  0.00    +0.000 C 
ATOM     28  C5  UNL     1      -2.207  -1.810  -0.136  0.00  0.00    +0.000 C 
ATOM     29  H3  UNL     1      -1.740  -4.417  -0.804  0.00  0.00    +0.000 HD
ENDBRANCH  20  28
BRANCH  21  30
ATOM     30  C7  UNL     1      -1.486   1.760  -1.233  0.00  0.00    +0.000 A 
ATOM     31  C8  UNL     1      -1.991   2.883  -1.850  0.00  0.00    +0.000 A 
ATOM     32  O2  UNL     1      -1.024   3.840  -1.863  0.00  0.00    +0.000 OA
ATOM     33  C9  UNL     1       0.037   3.238  -1.263  0.00  0.00    +0.000 A 
ATOM     34  N3  UNL     1      -0.164   1.991  -0.893  0.00  0.00    +0.000 NA
ENDBRANCH  21  30
ENDBRANCH   1  20
TORSDOF 8
