REMARK  Name = /home/anacleto/Desktop/manuscript_Mpro/naturecomm/supplementary_file_S2/6-chemical-library/molecular_docking/3D_ligand_structure/4114.pdb
REMARK  8 active torsions:
REMARK  status: ('A' for Active; 'I' for Inactive)
REMARK    1  A    between atoms: C6_6  and  N1_7
REMARK    2  A    between atoms: N1_7  and  C12_15
REMARK    3  A    between atoms: C7_8  and  C8_10
REMARK    4  A    between atoms: C12_15  and  C13_16
REMARK    5  A    between atoms: C12_15  and  C18_22
REMARK    6  A    between atoms: N3_24  and  C19_25
REMARK    7  A    between atoms: C19_25  and  C20_26
REMARK    8  A    between atoms: C20_26  and  C21_27
REMARK                            x       y       z     vdW  Elec       q    Type
REMARK                         _______ _______ _______ _____ _____    ______ ____
ROOT
ATOM      1  C12 UNL     1      -0.413  -1.062  -0.218  0.00  0.00    +0.000 C 
ENDROOT
BRANCH   1   2
ATOM      2  C13 UNL     1      -0.345  -2.068  -1.358  0.00  0.00    +0.000 A 
ATOM      3  C14 UNL     1       0.126  -1.766  -2.641  0.00  0.00    +0.000 A 
ATOM      4  C15 UNL     1       0.153  -2.749  -3.626  0.00  0.00    +0.000 A 
ATOM      5  C16 UNL     1      -0.295  -4.017  -3.300  0.00  0.00    +0.000 A 
ATOM      6  N2  UNL     1      -0.760  -4.353  -2.079  0.00  0.00    +0.000 NA
ATOM      7  C17 UNL     1      -0.790  -3.373  -1.148  0.00  0.00    +0.000 A 
ENDBRANCH   1   2
BRANCH   1   8
ATOM      8  C18 UNL     1       0.787  -0.087  -0.064  0.00  0.00    +0.000 C 
ATOM      9  O3  UNL     1       0.667   1.044   0.412  0.00  0.00    +0.000 OA
ATOM     10  N3  UNL     1       2.035  -0.616  -0.353  0.00  0.00    +0.000 N 
ATOM     11  H18 UNL     1       2.108  -1.541  -0.759  0.00  0.00    +0.000 HD
BRANCH  10  12
ATOM     12  C19 UNL     1       3.244   0.179  -0.239  0.00  0.00    +0.000 C 
BRANCH  12  13
ATOM     13  C20 UNL     1       3.743   0.266   1.205  0.00  0.00    +0.000 C 
BRANCH  13  14
ATOM     14  C21 UNL     1       5.018   1.065   1.306  0.00  0.00    +0.000 A 
ATOM     15  C22 UNL     1       6.265   0.427   1.284  0.00  0.00    +0.000 A 
ATOM     16  C23 UNL     1       7.442   1.175   1.359  0.00  0.00    +0.000 A 
ATOM     17  C24 UNL     1       7.382   2.564   1.451  0.00  0.00    +0.000 A 
ATOM     18  C25 UNL     1       6.146   3.208   1.469  0.00  0.00    +0.000 A 
ATOM     19  C26 UNL     1       4.969   2.463   1.395  0.00  0.00    +0.000 A 
ENDBRANCH  13  14
ENDBRANCH  12  13
ENDBRANCH  10  12
ENDBRANCH   1   8
BRANCH   1  20
ATOM     20  N1  UNL     1      -1.706  -0.342  -0.138  0.00  0.00    +0.000 N 
ATOM     21  C7  UNL     1      -1.995   0.623  -1.105  0.00  0.00    +0.000 C 
ATOM     22  O1  UNL     1      -1.269   0.794  -2.093  0.00  0.00    +0.000 OA
BRANCH  20  28
ATOM     23  C1  UNL     1      -2.412  -1.030   2.093  0.00  0.00    +0.000 A 
ATOM     24  C2  UNL     1      -3.330  -1.652   2.941  0.00  0.00    +0.000 A 
ATOM     25  C3  UNL     1      -4.512  -2.177   2.421  0.00  0.00    +0.000 A 
ATOM     26  C4  UNL     1      -4.775  -2.082   1.056  0.00  0.00    +0.000 A 
ATOM     27  C5  UNL     1      -3.859  -1.456   0.208  0.00  0.00    +0.000 A 
ATOM     28  C6  UNL     1      -2.678  -0.914   0.723  0.00  0.00    +0.000 A 
ENDBRANCH  20  28
BRANCH  21  29
ATOM     29  C8  UNL     1      -3.143   1.637  -0.853  0.00  0.00    +0.000 C 
ATOM     30  C9  UNL     1      -2.847   2.536   0.343  0.00  0.00    +0.000 C 
ATOM     31  C10 UNL     1      -4.215   3.069   0.684  0.00  0.00    +0.000 C 
ATOM     32  C11 UNL     1      -5.095   1.876   0.390  0.00  0.00    +0.000 C 
ATOM     33  O2  UNL     1      -4.483   1.172  -0.700  0.00  0.00    +0.000 OA
ENDBRANCH  21  29
ENDBRANCH   1  20
TORSDOF 8
