REMARK  Name = /home/anacleto/Desktop/manuscript_Mpro/naturecomm/supplementary_file_S2/6-chemical-library/molecular_docking/3D_ligand_structure/4116.pdb
REMARK  8 active torsions:
REMARK  status: ('A' for Active; 'I' for Inactive)
REMARK    1  A    between atoms: C4_6  and  N3_7
REMARK    2  A    between atoms: N3_7  and  C9_15
REMARK    3  A    between atoms: C5_8  and  C6_10
REMARK    4  A    between atoms: C9_15  and  C10_16
REMARK    5  A    between atoms: C9_15  and  C15_22
REMARK    6  A    between atoms: N6_24  and  C16_25
REMARK    7  A    between atoms: C16_25  and  C17_26
REMARK    8  A    between atoms: C17_26  and  C18_27
REMARK                            x       y       z     vdW  Elec       q    Type
REMARK                         _______ _______ _______ _____ _____    ______ ____
ROOT
ATOM      1  C9  UNL     1      -1.028  -0.301  -0.817  0.00  0.00    +0.000 C 
ENDROOT
BRANCH   1   2
ATOM      2  C10 UNL     1      -1.116  -0.031  -2.313  0.00  0.00    +0.000 A 
ATOM      3  C11 UNL     1      -1.855  -0.888  -3.143  0.00  0.00    +0.000 A 
ATOM      4  C12 UNL     1      -1.935  -0.640  -4.511  0.00  0.00    +0.000 A 
ATOM      5  C13 UNL     1      -1.267   0.458  -5.017  0.00  0.00    +0.000 A 
ATOM      6  N5  UNL     1      -0.551   1.310  -4.255  0.00  0.00    +0.000 NA
ATOM      7  C14 UNL     1      -0.510   1.064  -2.925  0.00  0.00    +0.000 A 
ENDBRANCH   1   2
BRANCH   1   8
ATOM      8  C15 UNL     1       0.320   0.039  -0.120  0.00  0.00    +0.000 C 
ATOM      9  O3  UNL     1       0.378   0.439   1.044  0.00  0.00    +0.000 OA
ATOM     10  N6  UNL     1       1.464  -0.264  -0.839  0.00  0.00    +0.000 N 
ATOM     11  H11 UNL     1       1.398  -0.569  -1.804  0.00  0.00    +0.000 HD
BRANCH  10  12
ATOM     12  C16 UNL     1       2.788   0.000  -0.303  0.00  0.00    +0.000 C 
BRANCH  12  13
ATOM     13  C17 UNL     1       3.242  -1.084   0.676  0.00  0.00    +0.000 C 
BRANCH  13  14
ATOM     14  C18 UNL     1       4.625  -0.808   1.209  0.00  0.00    +0.000 A 
ATOM     15  C19 UNL     1       4.797   0.015   2.330  0.00  0.00    +0.000 A 
ATOM     16  C20 UNL     1       6.076   0.292   2.814  0.00  0.00    +0.000 A 
ATOM     17  C21 UNL     1       7.194  -0.246   2.179  0.00  0.00    +0.000 A 
ATOM     18  C22 UNL     1       7.034  -1.062   1.059  0.00  0.00    +0.000 A 
ATOM     19  C23 UNL     1       5.755  -1.341   0.574  0.00  0.00    +0.000 A 
ENDBRANCH  13  14
ENDBRANCH  12  13
ENDBRANCH  10  12
ENDBRANCH   1   8
BRANCH   1  20
ATOM     20  N3  UNL     1      -2.189   0.230  -0.064  0.00  0.00    +0.000 N 
ATOM     21  C5  UNL     1      -2.271   1.625   0.104  0.00  0.00    +0.000 C 
ATOM     22  O1  UNL     1      -1.515   2.392  -0.494  0.00  0.00    +0.000 OA
BRANCH  20  28
ATOM     23  C1  UNL     1      -3.147  -1.939   0.614  0.00  0.00    +0.000 A 
ATOM     24  N1  UNL     1      -4.148  -2.841   0.719  0.00  0.00    +0.000 NA
ATOM     25  C2  UNL     1      -5.355  -2.415   0.317  0.00  0.00    +0.000 A 
ATOM     26  N2  UNL     1      -5.635  -1.205  -0.189  0.00  0.00    +0.000 NA
ATOM     27  C3  UNL     1      -4.593  -0.347  -0.269  0.00  0.00    +0.000 A 
ATOM     28  C4  UNL     1      -3.297  -0.657   0.111  0.00  0.00    +0.000 A 
ENDBRANCH  20  28
BRANCH  21  29
ATOM     29  C6  UNL     1      -3.222   2.168   1.078  0.00  0.00    +0.000 A 
ATOM     30  C7  UNL     1      -3.490   3.511   1.249  0.00  0.00    +0.000 A 
ATOM     31  O2  UNL     1      -4.401   3.648   2.250  0.00  0.00    +0.000 OA
ATOM     32  C8  UNL     1      -4.627   2.370   2.660  0.00  0.00    +0.000 A 
ATOM     33  N4  UNL     1      -3.963   1.448   2.001  0.00  0.00    +0.000 NA
ENDBRANCH  21  29
ENDBRANCH   1  20
TORSDOF 8
