REMARK  Name = /home/anacleto/Desktop/manuscript_Mpro/naturecomm/supplementary_file_S2/6-chemical-library/molecular_docking/3D_ligand_structure/4122.pdb
REMARK  8 active torsions:
REMARK  status: ('A' for Active; 'I' for Inactive)
REMARK    1  A    between atoms: C6_6  and  N1_7
REMARK    2  A    between atoms: N1_7  and  C11_15
REMARK    3  A    between atoms: C7_8  and  C8_10
REMARK    4  A    between atoms: C11_15  and  C12_16
REMARK    5  A    between atoms: C11_15  and  C16_22
REMARK    6  A    between atoms: N5_24  and  C17_25
REMARK    7  A    between atoms: C17_25  and  C18_26
REMARK    8  A    between atoms: C18_26  and  C19_27
REMARK                            x       y       z     vdW  Elec       q    Type
REMARK                         _______ _______ _______ _____ _____    ______ ____
ROOT
ATOM      1  C11 UNL     1      -0.986  -1.353   0.608  0.00  0.00    +0.000 C 
ENDROOT
BRANCH   1   2
ATOM      2  C12 UNL     1      -1.055  -2.123  -0.700  0.00  0.00    +0.000 A 
ATOM      3  C13 UNL     1      -0.660  -1.581  -1.926  0.00  0.00    +0.000 A 
ATOM      4  C14 UNL     1      -0.768  -2.364  -3.059  0.00  0.00    +0.000 A 
ATOM      5  N3  UNL     1      -1.231  -3.628  -3.025  0.00  0.00    +0.000 NA
ATOM      6  N4  UNL     1      -1.630  -4.163  -1.840  0.00  0.00    +0.000 NA
ATOM      7  C15 UNL     1      -1.548  -3.421  -0.716  0.00  0.00    +0.000 A 
ENDBRANCH   1   2
BRANCH   1   8
ATOM      8  C16 UNL     1       0.302  -0.475   0.696  0.00  0.00    +0.000 C 
ATOM      9  O3  UNL     1       0.299   0.755   0.709  0.00  0.00    +0.000 OA
ATOM     10  N5  UNL     1       1.485  -1.201   0.727  0.00  0.00    +0.000 N 
ATOM     11  H12 UNL     1       1.461  -2.209   0.638  0.00  0.00    +0.000 HD
BRANCH  10  12
ATOM     12  C17 UNL     1       2.779  -0.545   0.759  0.00  0.00    +0.000 C 
BRANCH  12  13
ATOM     13  C18 UNL     1       3.208  -0.054  -0.626  0.00  0.00    +0.000 C 
BRANCH  13  14
ATOM     14  C19 UNL     1       4.573   0.583  -0.596  0.00  0.00    +0.000 A 
ATOM     15  C20 UNL     1       5.717  -0.162  -0.911  0.00  0.00    +0.000 A 
ATOM     16  C21 UNL     1       6.980   0.429  -0.862  0.00  0.00    +0.000 A 
ATOM     17  C22 UNL     1       7.112   1.767  -0.495  0.00  0.00    +0.000 A 
ATOM     18  C23 UNL     1       5.981   2.515  -0.175  0.00  0.00    +0.000 A 
ATOM     19  C24 UNL     1       4.717   1.926  -0.223  0.00  0.00    +0.000 A 
ENDBRANCH  13  14
ENDBRANCH  12  13
ENDBRANCH  10  12
ENDBRANCH   1   8
BRANCH   1  20
ATOM     20  N1  UNL     1      -2.214  -0.612   0.970  0.00  0.00    +0.000 N 
ATOM     21  C7  UNL     1      -2.349  -0.342   2.350  0.00  0.00    +0.000 C 
ATOM     22  O1  UNL     1      -1.501  -0.717   3.164  0.00  0.00    +0.000 OA
BRANCH  20  28
ATOM     23  C1  UNL     1      -3.606  -0.303  -1.016  0.00  0.00    +0.000 A 
ATOM     24  C2  UNL     1      -4.182   0.520  -1.985  0.00  0.00    +0.000 A 
ATOM     25  C3  UNL     1      -3.963   1.896  -1.952  0.00  0.00    +0.000 A 
ATOM     26  C4  UNL     1      -3.174   2.451  -0.947  0.00  0.00    +0.000 A 
ATOM     27  C5  UNL     1      -2.599   1.629   0.025  0.00  0.00    +0.000 A 
ATOM     28  C6  UNL     1      -2.801   0.244  -0.010  0.00  0.00    +0.000 A 
ENDBRANCH  20  28
BRANCH  21  29
ATOM     29  C8  UNL     1      -3.567   0.323   2.821  0.00  0.00    +0.000 A 
ATOM     30  C9  UNL     1      -3.713   0.915   4.058  0.00  0.00    +0.000 A 
ATOM     31  O2  UNL     1      -4.980   1.404   4.157  0.00  0.00    +0.000 OA
ATOM     32  C10 UNL     1      -5.552   1.064   2.971  0.00  0.00    +0.000 A 
ATOM     33  N2  UNL     1      -4.772   0.408   2.144  0.00  0.00    +0.000 NA
ENDBRANCH  21  29
ENDBRANCH   1  20
TORSDOF 8
