REMARK  Name = /home/anacleto/Desktop/manuscript_Mpro/naturecomm/supplementary_file_S2/6-chemical-library/molecular_docking/3D_ligand_structure/4126.pdb
REMARK  8 active torsions:
REMARK  status: ('A' for Active; 'I' for Inactive)
REMARK    1  A    between atoms: C6_6  and  N1_7
REMARK    2  A    between atoms: N1_7  and  C10_15
REMARK    3  A    between atoms: C7_8  and  C8_10
REMARK    4  A    between atoms: C10_15  and  C11_16
REMARK    5  A    between atoms: C10_15  and  C16_22
REMARK    6  A    between atoms: N6_24  and  C17_25
REMARK    7  A    between atoms: C17_25  and  C18_26
REMARK    8  A    between atoms: C18_26  and  C19_27
REMARK                            x       y       z     vdW  Elec       q    Type
REMARK                         _______ _______ _______ _____ _____    ______ ____
ROOT
ATOM      1  C10 UNL     1      -1.338   0.100   0.913  0.00  0.00    +0.000 C 
ENDROOT
BRANCH   1   2
ATOM      2  C11 UNL     1      -1.850  -1.232   0.380  0.00  0.00    +0.000 A 
ATOM      3  C12 UNL     1      -2.856  -1.373  -0.582  0.00  0.00    +0.000 A 
ATOM      4  C13 UNL     1      -3.259  -2.643  -0.993  0.00  0.00    +0.000 A 
ATOM      5  C14 UNL     1      -2.651  -3.746  -0.423  0.00  0.00    +0.000 A 
ATOM      6  N5  UNL     1      -1.692  -3.659   0.520  0.00  0.00    +0.000 NA
ATOM      7  C15 UNL     1      -1.328  -2.417   0.908  0.00  0.00    +0.000 A 
ENDBRANCH   1   2
BRANCH   1   8
ATOM      8  C16 UNL     1       0.161   0.434   0.667  0.00  0.00    +0.000 C 
ATOM      9  O2  UNL     1       0.629   1.526   1.003  0.00  0.00    +0.000 OA
ATOM     10  N6  UNL     1       0.948  -0.536   0.074  0.00  0.00    +0.000 N 
ATOM     11  H13 UNL     1       0.483  -1.172  -0.566  0.00  0.00    +0.000 HD
BRANCH  10  12
ATOM     12  C17 UNL     1       2.348  -0.267  -0.228  0.00  0.00    +0.000 C 
BRANCH  12  13
ATOM     13  C18 UNL     1       3.094  -1.542  -0.618  0.00  0.00    +0.000 C 
BRANCH  13  14
ATOM     14  C19 UNL     1       4.530  -1.260  -0.979  0.00  0.00    +0.000 A 
ATOM     15  C20 UNL     1       4.874  -0.908  -2.292  0.00  0.00    +0.000 A 
ATOM     16  C21 UNL     1       6.199  -0.623  -2.623  0.00  0.00    +0.000 A 
ATOM     17  C22 UNL     1       7.191  -0.683  -1.646  0.00  0.00    +0.000 A 
ATOM     18  C23 UNL     1       6.859  -1.025  -0.336  0.00  0.00    +0.000 A 
ATOM     19  C24 UNL     1       5.533  -1.310  -0.002  0.00  0.00    +0.000 A 
ENDBRANCH  13  14
ENDBRANCH  12  13
ENDBRANCH  10  12
ENDBRANCH   1   8
BRANCH   1  20
ATOM     20  N1  UNL     1      -2.226   1.279   0.671  0.00  0.00    +0.000 N 
ATOM     21  C7  UNL     1      -2.371   1.899  -0.594  0.00  0.00    +0.000 C 
ATOM     22  O1  UNL     1      -3.368   2.552  -0.899  0.00  0.00    +0.000 OA
BRANCH  20  28
ATOM     23  C1  UNL     1      -3.619   0.718   2.668  0.00  0.00    +0.000 A 
ATOM     24  C2  UNL     1      -4.487   1.104   3.696  0.00  0.00    +0.000 A 
ATOM     25  C3  UNL     1      -4.886   2.430   3.815  0.00  0.00    +0.000 A 
ATOM     26  C4  UNL     1      -4.423   3.371   2.903  0.00  0.00    +0.000 A 
ATOM     27  C5  UNL     1      -3.560   2.983   1.873  0.00  0.00    +0.000 A 
ATOM     28  C6  UNL     1      -3.142   1.649   1.731  0.00  0.00    +0.000 A 
ENDBRANCH  20  28
BRANCH  21  29
ATOM     29  C8  UNL     1      -1.351   1.718  -1.586  0.00  0.00    +0.000 A 
ATOM     30  C9  UNL     1      -1.425   1.168  -2.847  0.00  0.00    +0.000 A 
ATOM     31  N2  UNL     1      -0.214   1.273  -3.467  0.00  0.00    +0.000 NA
ATOM     32  N3  UNL     1       0.602   1.935  -2.660  0.00  0.00    +0.000 NA
ATOM     33  N4  UNL     1      -0.096   2.264  -1.562  0.00  0.00    +0.000 N 
ATOM     34  H7  UNL     1       0.366   2.777  -0.814  0.00  0.00    +0.000 HD
ENDBRANCH  21  29
ENDBRANCH   1  20
TORSDOF 8
