REMARK  Name = /home/anacleto/Desktop/manuscript_Mpro/naturecomm/supplementary_file_S2/6-chemical-library/molecular_docking/3D_ligand_structure/4130.pdb
REMARK  8 active torsions:
REMARK  status: ('A' for Active; 'I' for Inactive)
REMARK    1  A    between atoms: C6_6  and  N1_7
REMARK    2  A    between atoms: N1_7  and  C11_15
REMARK    3  A    between atoms: C7_8  and  C8_10
REMARK    4  A    between atoms: C11_15  and  C12_16
REMARK    5  A    between atoms: C11_15  and  C17_22
REMARK    6  A    between atoms: N4_24  and  C18_25
REMARK    7  A    between atoms: C18_25  and  C19_26
REMARK    8  A    between atoms: C19_26  and  C20_27
REMARK                            x       y       z     vdW  Elec       q    Type
REMARK                         _______ _______ _______ _____ _____    ______ ____
ROOT
ATOM      1  C11 UNL     1      -0.943  -0.965   0.307  0.00  0.00    +0.000 C 
ENDROOT
BRANCH   1   2
ATOM      2  C12 UNL     1      -0.953  -1.012   1.829  0.00  0.00    +0.000 A 
ATOM      3  C13 UNL     1      -0.364  -0.041   2.648  0.00  0.00    +0.000 A 
ATOM      4  C14 UNL     1      -0.421  -0.173   4.034  0.00  0.00    +0.000 A 
ATOM      5  C15 UNL     1      -1.064  -1.278   4.563  0.00  0.00    +0.000 A 
ATOM      6  N3  UNL     1      -1.640  -2.238   3.811  0.00  0.00    +0.000 NA
ATOM      7  C16 UNL     1      -1.583  -2.078   2.470  0.00  0.00    +0.000 A 
ENDBRANCH   1   2
BRANCH   1   8
ATOM      8  C17 UNL     1       0.214  -0.133  -0.308  0.00  0.00    +0.000 C 
ATOM      9  O3  UNL     1       0.046   0.897  -0.957  0.00  0.00    +0.000 OA
ATOM     10  N4  UNL     1       1.480  -0.646  -0.058  0.00  0.00    +0.000 N 
ATOM     11  H13 UNL     1       1.574  -1.341   0.674  0.00  0.00    +0.000 HD
BRANCH  10  12
ATOM     12  C18 UNL     1       2.671   0.084  -0.458  0.00  0.00    +0.000 C 
BRANCH  12  13
ATOM     13  C19 UNL     1       3.907  -0.815  -0.471  0.00  0.00    +0.000 C 
BRANCH  13  14
ATOM     14  C20 UNL     1       5.152  -0.054  -0.848  0.00  0.00    +0.000 A 
ATOM     15  C21 UNL     1       5.525   0.072  -2.193  0.00  0.00    +0.000 A 
ATOM     16  C22 UNL     1       6.668   0.792  -2.545  0.00  0.00    +0.000 A 
ATOM     17  C23 UNL     1       7.445   1.395  -1.558  0.00  0.00    +0.000 A 
ATOM     18  C24 UNL     1       7.079   1.280  -0.218  0.00  0.00    +0.000 A 
ATOM     19  C25 UNL     1       5.937   0.561   0.136  0.00  0.00    +0.000 A 
ENDBRANCH  13  14
ENDBRANCH  12  13
ENDBRANCH  10  12
ENDBRANCH   1   8
BRANCH   1  20
ATOM     20  N1  UNL     1      -2.244  -0.643  -0.321  0.00  0.00    +0.000 N 
ATOM     21  C7  UNL     1      -2.574  -1.376  -1.481  0.00  0.00    +0.000 C 
ATOM     22  O1  UNL     1      -1.993  -2.435  -1.733  0.00  0.00    +0.000 OA
BRANCH  20  28
ATOM     23  C1  UNL     1      -2.675   1.527   0.774  0.00  0.00    +0.000 A 
ATOM     24  C2  UNL     1      -3.551   2.416   1.402  0.00  0.00    +0.000 A 
ATOM     25  C3  UNL     1      -4.892   2.079   1.568  0.00  0.00    +0.000 A 
ATOM     26  C4  UNL     1      -5.358   0.853   1.104  0.00  0.00    +0.000 A 
ATOM     27  C5  UNL     1      -4.483  -0.036   0.474  0.00  0.00    +0.000 A 
ATOM     28  C6  UNL     1      -3.130   0.292   0.298  0.00  0.00    +0.000 A 
ENDBRANCH  20  28
BRANCH  21  29
ATOM     29  C8  UNL     1      -3.564  -0.858  -2.404  0.00  0.00    +0.000 A 
ATOM     30  C9  UNL     1      -4.269  -1.480  -3.413  0.00  0.00    +0.000 A 
ATOM     31  N2  UNL     1      -5.075  -0.578  -4.063  0.00  0.00    +0.000 NA
ATOM     32  C10 UNL     1      -4.809   0.555  -3.455  0.00  0.00    +0.000 A 
ATOM     33  O2  UNL     1      -3.899   0.473  -2.450  0.00  0.00    +0.000 OA
ENDBRANCH  21  29
ENDBRANCH   1  20
TORSDOF 8
