REMARK  Name = /home/anacleto/Desktop/manuscript_Mpro/naturecomm/supplementary_file_S2/6-chemical-library/molecular_docking/3D_ligand_structure/4133.pdb
REMARK  8 active torsions:
REMARK  status: ('A' for Active; 'I' for Inactive)
REMARK    1  A    between atoms: C6_6  and  N1_7
REMARK    2  A    between atoms: N1_7  and  C11_15
REMARK    3  A    between atoms: C7_8  and  C8_10
REMARK    4  A    between atoms: C11_15  and  C12_16
REMARK    5  A    between atoms: C11_15  and  C17_22
REMARK    6  A    between atoms: N5_24  and  C18_25
REMARK    7  A    between atoms: C18_25  and  C19_26
REMARK    8  A    between atoms: C19_26  and  C20_27
REMARK                            x       y       z     vdW  Elec       q    Type
REMARK                         _______ _______ _______ _____ _____    ______ ____
ROOT
ATOM      1  C11 UNL     1      -1.558   0.240  -0.457  0.00  0.00    +0.000 C 
ENDROOT
BRANCH   1   2
ATOM      2  C12 UNL     1      -2.072   0.142  -1.888  0.00  0.00    +0.000 A 
ATOM      3  C13 UNL     1      -2.974   1.094  -2.389  0.00  0.00    +0.000 A 
ATOM      4  C14 UNL     1      -3.430   0.999  -3.699  0.00  0.00    +0.000 A 
ATOM      5  C15 UNL     1      -2.970  -0.050  -4.478  0.00  0.00    +0.000 A 
ATOM      6  N4  UNL     1      -2.107  -0.988  -4.036  0.00  0.00    +0.000 NA
ATOM      7  C16 UNL     1      -1.684  -0.879  -2.754  0.00  0.00    +0.000 A 
ENDBRANCH   1   2
BRANCH   1   8
ATOM      8  C17 UNL     1      -0.047  -0.146  -0.365  0.00  0.00    +0.000 C 
ATOM      9  O2  UNL     1       0.361  -1.173   0.173  0.00  0.00    +0.000 OA
ATOM     10  N5  UNL     1       0.811   0.759  -0.968  0.00  0.00    +0.000 N 
ATOM     11  H14 UNL     1       0.445   1.678  -1.188  0.00  0.00    +0.000 HD
BRANCH  10  12
ATOM     12  C18 UNL     1       2.252   0.622  -0.854  0.00  0.00    +0.000 C 
BRANCH  12  13
ATOM     13  C19 UNL     1       2.770   1.165   0.482  0.00  0.00    +0.000 C 
BRANCH  13  14
ATOM     14  C20 UNL     1       4.273   1.087   0.580  0.00  0.00    +0.000 A 
ATOM     15  C21 UNL     1       4.883   0.045   1.294  0.00  0.00    +0.000 A 
ATOM     16  C22 UNL     1       6.274  -0.034   1.377  0.00  0.00    +0.000 A 
ATOM     17  C23 UNL     1       7.067   0.924   0.743  0.00  0.00    +0.000 A 
ATOM     18  C24 UNL     1       6.470   1.962   0.027  0.00  0.00    +0.000 A 
ATOM     19  C25 UNL     1       5.079   2.044  -0.054  0.00  0.00    +0.000 A 
ENDBRANCH  13  14
ENDBRANCH  12  13
ENDBRANCH  10  12
ENDBRANCH   1   8
BRANCH   1  20
ATOM     20  N1  UNL     1      -2.341  -0.473   0.587  0.00  0.00    +0.000 N 
ATOM     21  C7  UNL     1      -2.192  -0.191   1.967  0.00  0.00    +0.000 C 
ATOM     22  O1  UNL     1      -2.771  -0.864   2.826  0.00  0.00    +0.000 OA
BRANCH  20  28
ATOM     23  C1  UNL     1      -2.345  -2.929   0.703  0.00  0.00    +0.000 A 
ATOM     24  C2  UNL     1      -2.907  -4.160   0.361  0.00  0.00    +0.000 A 
ATOM     25  C3  UNL     1      -4.052  -4.207  -0.433  0.00  0.00    +0.000 A 
ATOM     26  C4  UNL     1      -4.640  -3.024  -0.878  0.00  0.00    +0.000 A 
ATOM     27  C5  UNL     1      -4.080  -1.791  -0.534  0.00  0.00    +0.000 A 
ATOM     28  C6  UNL     1      -2.918  -1.736   0.244  0.00  0.00    +0.000 A 
ENDBRANCH  20  28
BRANCH  21  29
ATOM     29  C8  UNL     1      -1.362   0.926   2.422  0.00  0.00    +0.000 A 
ATOM     30  N2  UNL     1      -0.774   1.868   1.704  0.00  0.00    +0.000 NA
ATOM     31  C9  UNL     1      -0.116   2.674   2.599  0.00  0.00    +0.000 A 
ATOM     32  C10 UNL     1      -0.297   2.223   3.883  0.00  0.00    +0.000 A 
ATOM     33  N3  UNL     1      -1.099   1.127   3.760  0.00  0.00    +0.000 N 
ATOM     34  H8  UNL     1      -1.448   0.528   4.500  0.00  0.00    +0.000 HD
ENDBRANCH  21  29
ENDBRANCH   1  20
TORSDOF 8
