REMARK  Name = /home/anacleto/Desktop/manuscript_Mpro/naturecomm/supplementary_file_S2/6-chemical-library/molecular_docking/3D_ligand_structure/4134.pdb
REMARK  8 active torsions:
REMARK  status: ('A' for Active; 'I' for Inactive)
REMARK    1  A    between atoms: C6_6  and  N1_7
REMARK    2  A    between atoms: N1_7  and  C11_15
REMARK    3  A    between atoms: C7_8  and  C8_10
REMARK    4  A    between atoms: C11_15  and  C12_16
REMARK    5  A    between atoms: C11_15  and  C17_22
REMARK    6  A    between atoms: N5_24  and  C18_25
REMARK    7  A    between atoms: C18_25  and  C19_26
REMARK    8  A    between atoms: C19_26  and  C20_27
REMARK                            x       y       z     vdW  Elec       q    Type
REMARK                         _______ _______ _______ _____ _____    ______ ____
ROOT
ATOM      1  C11 UNL     1      -1.316  -0.457   0.934  0.00  0.00    +0.000 C 
ENDROOT
BRANCH   1   2
ATOM      2  C12 UNL     1      -1.989  -0.290   2.292  0.00  0.00    +0.000 A 
ATOM      3  C13 UNL     1      -1.370   0.238   3.430  0.00  0.00    +0.000 A 
ATOM      4  C14 UNL     1      -2.077   0.355   4.625  0.00  0.00    +0.000 A 
ATOM      5  C15 UNL     1      -3.394  -0.061   4.653  0.00  0.00    +0.000 A 
ATOM      6  N4  UNL     1      -4.037  -0.569   3.583  0.00  0.00    +0.000 NA
ATOM      7  C16 UNL     1      -3.323  -0.679   2.440  0.00  0.00    +0.000 A 
ENDBRANCH   1   2
BRANCH   1   8
ATOM      8  C17 UNL     1       0.223  -0.252   0.845  0.00  0.00    +0.000 C 
ATOM      9  O2  UNL     1       0.999  -0.526   1.760  0.00  0.00    +0.000 OA
ATOM     10  N5  UNL     1       0.694   0.127  -0.401  0.00  0.00    +0.000 N 
ATOM     11  H14 UNL     1       0.040   0.180  -1.174  0.00  0.00    +0.000 HD
BRANCH  10  12
ATOM     12  C18 UNL     1       2.112   0.238  -0.690  0.00  0.00    +0.000 C 
BRANCH  12  13
ATOM     13  C19 UNL     1       2.755  -1.124  -0.959  0.00  0.00    +0.000 C 
BRANCH  13  14
ATOM     14  C20 UNL     1       4.215  -0.990  -1.312  0.00  0.00    +0.000 A 
ATOM     15  C21 UNL     1       5.179  -0.886  -0.300  0.00  0.00    +0.000 A 
ATOM     16  C22 UNL     1       6.529  -0.739  -0.622  0.00  0.00    +0.000 A 
ATOM     17  C23 UNL     1       6.927  -0.693  -1.957  0.00  0.00    +0.000 A 
ATOM     18  C24 UNL     1       5.975  -0.793  -2.971  0.00  0.00    +0.000 A 
ATOM     19  C25 UNL     1       4.624  -0.939  -2.651  0.00  0.00    +0.000 A 
ENDBRANCH  13  14
ENDBRANCH  12  13
ENDBRANCH  10  12
ENDBRANCH   1   8
BRANCH   1  20
ATOM     20  N1  UNL     1      -2.050   0.233  -0.175  0.00  0.00    +0.000 N 
ATOM     21  C7  UNL     1      -2.457   1.587  -0.083  0.00  0.00    +0.000 C 
ATOM     22  O1  UNL     1      -3.365   2.044  -0.777  0.00  0.00    +0.000 OA
BRANCH  20  28
ATOM     23  C1  UNL     1      -2.537   0.078  -2.598  0.00  0.00    +0.000 A 
ATOM     24  C2  UNL     1      -2.851  -0.649  -3.752  0.00  0.00    +0.000 A 
ATOM     25  C3  UNL     1      -3.067  -2.019  -3.675  0.00  0.00    +0.000 A 
ATOM     26  C4  UNL     1      -2.975  -2.657  -2.443  0.00  0.00    +0.000 A 
ATOM     27  C5  UNL     1      -2.660  -1.928  -1.289  0.00  0.00    +0.000 A 
ATOM     28  C6  UNL     1      -2.432  -0.543  -1.341  0.00  0.00    +0.000 A 
ENDBRANCH  20  28
BRANCH  21  29
ATOM     29  C8  UNL     1      -1.867   2.450   0.909  0.00  0.00    +0.000 A 
ATOM     30  C9  UNL     1      -0.571   2.846   1.171  0.00  0.00    +0.000 A 
ATOM     31  N2  UNL     1      -0.522   3.731   2.218  0.00  0.00    +0.000 NA
ATOM     32  C10 UNL     1      -1.773   3.927   2.563  0.00  0.00    +0.000 A 
ATOM     33  N3  UNL     1      -2.623   3.204   1.781  0.00  0.00    +0.000 N 
ATOM     34  H8  UNL     1      -3.633   3.198   1.835  0.00  0.00    +0.000 HD
ENDBRANCH  21  29
ENDBRANCH   1  20
TORSDOF 8
