REMARK  Name = /home/anacleto/Desktop/manuscript_Mpro/naturecomm/supplementary_file_S2/6-chemical-library/molecular_docking/3D_ligand_structure/4138.pdb
REMARK  8 active torsions:
REMARK  status: ('A' for Active; 'I' for Inactive)
REMARK    1  A    between atoms: C6_6  and  N1_7
REMARK    2  A    between atoms: N1_7  and  C12_15
REMARK    3  A    between atoms: C7_8  and  C8_10
REMARK    4  A    between atoms: C12_15  and  C13_16
REMARK    5  A    between atoms: C12_15  and  C18_22
REMARK    6  A    between atoms: N3_24  and  C19_25
REMARK    7  A    between atoms: C19_25  and  C20_26
REMARK    8  A    between atoms: C20_26  and  C21_27
REMARK                            x       y       z     vdW  Elec       q    Type
REMARK                         _______ _______ _______ _____ _____    ______ ____
ROOT
ATOM      1  C12 UNL     1      -1.269   1.152  -0.015  0.00  0.00    +0.000 C 
ENDROOT
BRANCH   1   2
ATOM      2  C13 UNL     1      -1.040   2.011  -1.253  0.00  0.00    +0.000 A 
ATOM      3  C14 UNL     1      -0.242   3.166  -1.173  0.00  0.00    +0.000 A 
ATOM      4  C15 UNL     1      -0.053   3.975  -2.290  0.00  0.00    +0.000 A 
ATOM      5  C16 UNL     1      -0.682   3.618  -3.467  0.00  0.00    +0.000 A 
ATOM      6  N2  UNL     1      -1.472   2.533  -3.587  0.00  0.00    +0.000 NA
ATOM      7  C17 UNL     1      -1.643   1.766  -2.483  0.00  0.00    +0.000 A 
ENDBRANCH   1   2
BRANCH   1   8
ATOM      8  C18 UNL     1      -0.048   0.452   0.656  0.00  0.00    +0.000 C 
ATOM      9  O3  UNL     1      -0.191  -0.285   1.635  0.00  0.00    +0.000 OA
ATOM     10  N3  UNL     1       1.209   0.748   0.164  0.00  0.00    +0.000 N 
ATOM     11  H14 UNL     1       1.276   1.048  -0.802  0.00  0.00    +0.000 HD
BRANCH  10  12
ATOM     12  C19 UNL     1       2.405   0.191   0.774  0.00  0.00    +0.000 C 
BRANCH  12  13
ATOM     13  C20 UNL     1       2.656  -1.264   0.373  0.00  0.00    +0.000 C 
BRANCH  13  14
ATOM     14  C21 UNL     1       3.884  -1.823   1.045  0.00  0.00    +0.000 A 
ATOM     15  C22 UNL     1       5.134  -1.767   0.414  0.00  0.00    +0.000 A 
ATOM     16  C23 UNL     1       6.270  -2.268   1.052  0.00  0.00    +0.000 A 
ATOM     17  C24 UNL     1       6.168  -2.825   2.325  0.00  0.00    +0.000 A 
ATOM     18  C25 UNL     1       4.930  -2.880   2.963  0.00  0.00    +0.000 A 
ATOM     19  C26 UNL     1       3.793  -2.380   2.328  0.00  0.00    +0.000 A 
ENDBRANCH  13  14
ENDBRANCH  12  13
ENDBRANCH  10  12
ENDBRANCH   1   8
BRANCH   1  20
ATOM     20  N1  UNL     1      -2.469   0.267  -0.022  0.00  0.00    +0.000 N 
ATOM     21  C7  UNL     1      -2.488  -1.050  -0.557  0.00  0.00    +0.000 C 
ATOM     22  O1  UNL     1      -3.497  -1.757  -0.493  0.00  0.00    +0.000 OA
BRANCH  20  28
ATOM     23  C1  UNL     1      -3.991   2.142   0.553  0.00  0.00    +0.000 A 
ATOM     24  C2  UNL     1      -5.111   2.654   1.218  0.00  0.00    +0.000 A 
ATOM     25  C3  UNL     1      -5.900   1.819   2.002  0.00  0.00    +0.000 A 
ATOM     26  C4  UNL     1      -5.569   0.474   2.120  0.00  0.00    +0.000 A 
ATOM     27  C5  UNL     1      -4.450  -0.036   1.453  0.00  0.00    +0.000 A 
ATOM     28  C6  UNL     1      -3.641   0.785   0.654  0.00  0.00    +0.000 A 
ENDBRANCH  20  28
BRANCH  21  29
ATOM     29  C8  UNL     1      -1.324  -1.605  -1.244  0.00  0.00    +0.000 A 
ATOM     30  C9  UNL     1      -1.009  -2.933  -1.487  0.00  0.00    +0.000 A 
ATOM     31  C10 UNL     1       0.153  -2.948  -2.292  0.00  0.00    +0.000 A 
ATOM     32  C11 UNL     1       0.472  -1.632  -2.515  0.00  0.00    +0.000 A 
ATOM     33  O2  UNL     1      -0.401  -0.816  -1.873  0.00  0.00    +0.000 OA
ENDBRANCH  21  29
ENDBRANCH   1  20
TORSDOF 8
