REMARK  Name = /home/anacleto/Desktop/manuscript_Mpro/naturecomm/supplementary_file_S2/6-chemical-library/molecular_docking/3D_ligand_structure/4146.pdb
REMARK  8 active torsions:
REMARK  status: ('A' for Active; 'I' for Inactive)
REMARK    1  A    between atoms: C3_5  and  C4_6
REMARK    2  A    between atoms: N2_8  and  C5_9
REMARK    3  A    between atoms: N2_8  and  C8_14
REMARK    4  A    between atoms: C8_14  and  C9_15
REMARK    5  A    between atoms: C8_14  and  C14_21
REMARK    6  A    between atoms: N6_23  and  C15_24
REMARK    7  A    between atoms: C15_24  and  C16_25
REMARK    8  A    between atoms: C16_25  and  C17_26
REMARK                            x       y       z     vdW  Elec       q    Type
REMARK                         _______ _______ _______ _____ _____    ______ ____
ROOT
ATOM      1  C8  UNL     1      -0.723   0.665   0.086  0.00  0.00    +0.000 C 
ENDROOT
BRANCH   1   2
ATOM      2  C9  UNL     1      -1.445   1.986  -0.143  0.00  0.00    +0.000 A 
ATOM      3  C10 UNL     1      -2.406   2.098  -1.160  0.00  0.00    +0.000 A 
ATOM      4  C11 UNL     1      -3.051   3.310  -1.386  0.00  0.00    +0.000 A 
ATOM      5  C12 UNL     1      -2.711   4.389  -0.591  0.00  0.00    +0.000 A 
ATOM      6  N5  UNL     1      -1.787   4.331   0.391  0.00  0.00    +0.000 NA
ATOM      7  C13 UNL     1      -1.177   3.139   0.592  0.00  0.00    +0.000 A 
ENDBRANCH   1   2
BRANCH   1   8
ATOM      8  C14 UNL     1       0.325   0.672   1.231  0.00  0.00    +0.000 C 
ATOM      9  O3  UNL     1       0.096   0.288   2.377  0.00  0.00    +0.000 OA
ATOM     10  N6  UNL     1       1.551   1.219   0.880  0.00  0.00    +0.000 N 
ATOM     11  H11 UNL     1       1.786   1.293  -0.104  0.00  0.00    +0.000 HD
BRANCH  10  12
ATOM     12  C15 UNL     1       2.669   1.222   1.809  0.00  0.00    +0.000 C 
BRANCH  12  13
ATOM     13  C16 UNL     1       3.422  -0.113   1.838  0.00  0.00    +0.000 C 
BRANCH  13  14
ATOM     14  C17 UNL     1       4.096  -0.420   0.520  0.00  0.00    +0.000 A 
ATOM     15  C18 UNL     1       5.309   0.194   0.180  0.00  0.00    +0.000 A 
ATOM     16  C19 UNL     1       5.914  -0.069  -1.050  0.00  0.00    +0.000 A 
ATOM     17  C20 UNL     1       5.312  -0.946  -1.951  0.00  0.00    +0.000 A 
ATOM     18  C21 UNL     1       4.106  -1.561  -1.622  0.00  0.00    +0.000 A 
ATOM     19  C22 UNL     1       3.501  -1.301  -0.392  0.00  0.00    +0.000 A 
ENDBRANCH  13  14
ENDBRANCH  12  13
ENDBRANCH  10  12
ENDBRANCH   1   8
BRANCH   1  22
ATOM     20  C4  UNL     1      -1.189  -1.617  -0.566  0.00  0.00    +0.000 C 
ATOM     21  O2  UNL     1       0.000  -1.783  -0.850  0.00  0.00    +0.000 OA
ATOM     22  N2  UNL     1      -1.618  -0.507   0.186  0.00  0.00    +0.000 N 
BRANCH  22  23
ATOM     23  C5  UNL     1      -2.619  -0.637   1.178  0.00  0.00    +0.000 A 
ATOM     24  C6  UNL     1      -3.326  -1.783   1.638  0.00  0.00    +0.000 A 
ATOM     25  N3  UNL     1      -4.183  -1.519   2.629  0.00  0.00    +0.000 NA
ATOM     26  N4  UNL     1      -4.017  -0.208   2.835  0.00  0.00    +0.000 N 
ATOM     27  C7  UNL     1      -3.098   0.361   2.001  0.00  0.00    +0.000 A 
ATOM     28  H4  UNL     1      -4.557   0.239   3.569  0.00  0.00    +0.000 HD
ENDBRANCH  22  23
BRANCH  20  33
ATOM     29  N1  UNL     1      -3.529  -2.181  -1.357  0.00  0.00    +0.000 NA
ATOM     30  C1  UNL     1      -4.025  -3.258  -1.922  0.00  0.00    +0.000 A 
ATOM     31  O1  UNL     1      -3.133  -4.264  -2.126  0.00  0.00    +0.000 OA
ATOM     32  C2  UNL     1      -1.963  -3.768  -1.636  0.00  0.00    +0.000 A 
ATOM     33  C3  UNL     1      -2.199  -2.504  -1.140  0.00  0.00    +0.000 A 
ENDBRANCH  20  33
ENDBRANCH   1  22
TORSDOF 8
