REMARK  Name = /home/anacleto/Desktop/manuscript_Mpro/naturecomm/supplementary_file_S2/6-chemical-library/molecular_docking/3D_ligand_structure/416.pdb
REMARK  6 active torsions:
REMARK  status: ('A' for Active; 'I' for Inactive)
REMARK    1  A    between atoms: C3_7  and  C4_8
REMARK    2  A    between atoms: N4_10  and  C5_11
REMARK    3  A    between atoms: C5_11  and  C6_12
REMARK    4  A    between atoms: N5_14  and  C7_15
REMARK    5  A    between atoms: C7_15  and  C8_16
REMARK    6  A    between atoms: C8_16  and  C9_17
REMARK                            x       y       z     vdW  Elec       q    Type
REMARK                         _______ _______ _______ _____ _____    ______ ____
ROOT
ATOM      1  C5  UNL     1       2.134   2.355  -0.921  0.00  0.00    +0.000 C 
ENDROOT
BRANCH   1   4
ATOM      2  C4  UNL     1       2.899   0.853   0.865  0.00  0.00    +0.000 C 
ATOM      3  O2  UNL     1       2.017   1.225   1.629  0.00  0.00    +0.000 OA
ATOM      4  N4  UNL     1       3.060   1.363  -0.408  0.00  0.00    +0.000 N 
ATOM      5  H3  UNL     1       3.575   0.804  -1.088  0.00  0.00    +0.000 HD
BRANCH   2  12
ATOM      6  N1  UNL     1       4.206  -0.325   2.524  0.00  0.00    +0.000 NA
ATOM      7  N2  UNL     1       5.077  -1.342   2.952  0.00  0.00    +0.000 NA
ATOM      8  C1  UNL     1       5.462  -2.244   2.117  0.00  0.00    +0.000 A 
ATOM      9  N3  UNL     1       5.114  -2.277   0.807  0.00  0.00    +0.000 N 
ATOM     10  C2  UNL     1       4.411  -1.243   0.272  0.00  0.00    +0.000 A 
ATOM     11  O1  UNL     1       4.257  -1.069  -0.928  0.00  0.00    +0.000 OA
ATOM     12  C3  UNL     1       3.864  -0.255   1.269  0.00  0.00    +0.000 A 
ATOM     13  H2  UNL     1       5.523  -2.947   0.173  0.00  0.00    +0.000 HD
ENDBRANCH   2  12
ENDBRANCH   1   4
BRANCH   1  14
ATOM     14  C6  UNL     1       0.830   1.682  -1.354  0.00  0.00    +0.000 C 
ATOM     15  O3  UNL     1       0.659   1.252  -2.490  0.00  0.00    +0.000 OA
ATOM     16  N5  UNL     1      -0.080   1.531  -0.324  0.00  0.00    +0.000 N 
ATOM     17  H6  UNL     1       0.321   1.574   0.615  0.00  0.00    +0.000 HD
BRANCH  16  18
ATOM     18  C7  UNL     1      -1.268   0.719  -0.499  0.00  0.00    +0.000 C 
BRANCH  18  19
ATOM     19  C8  UNL     1      -2.322   1.028   0.564  0.00  0.00    +0.000 C 
BRANCH  19  20
ATOM     20  C9  UNL     1      -3.536   0.143   0.430  0.00  0.00    +0.000 A 
ATOM     21  C10 UNL     1      -3.693  -0.977   1.257  0.00  0.00    +0.000 A 
ATOM     22  C11 UNL     1      -4.810  -1.804   1.122  0.00  0.00    +0.000 A 
ATOM     23  C12 UNL     1      -5.775  -1.522   0.157  0.00  0.00    +0.000 A 
ATOM     24  C13 UNL     1      -5.626  -0.412  -0.673  0.00  0.00    +0.000 A 
ATOM     25  C14 UNL     1      -4.511   0.417  -0.538  0.00  0.00    +0.000 A 
ENDBRANCH  19  20
ENDBRANCH  18  19
ENDBRANCH  16  18
ENDBRANCH   1  14
TORSDOF 6
