REMARK  Name = /home/anacleto/Desktop/manuscript_Mpro/naturecomm/supplementary_file_S2/6-chemical-library/molecular_docking/3D_ligand_structure/4162.pdb
REMARK  6 active torsions:
REMARK  status: ('A' for Active; 'I' for Inactive)
REMARK    1  A    between atoms: C6_6  and  N1_7
REMARK    2  A    between atoms: C7_8  and  C8_10
REMARK    3  A    between atoms: C8_10  and  C9_11
REMARK    4  A    between atoms: C8_10  and  N3_17
REMARK    5  A    between atoms: N3_17  and  C18_25
REMARK    6  A    between atoms: C14_18  and  C15_20
REMARK                            x       y       z     vdW  Elec       q    Type
REMARK                         _______ _______ _______ _____ _____    ______ ____
ROOT
ATOM      1  C8  UNL     1      -0.434  -0.320   0.461  0.00  0.00    +0.000 C 
ENDROOT
BRANCH   1   2
ATOM      2  C9  UNL     1      -0.565  -1.823   0.247  0.00  0.00    +0.000 A 
ATOM      3  C10 UNL     1      -0.969  -2.653   1.304  0.00  0.00    +0.000 A 
ATOM      4  C11 UNL     1      -1.075  -4.028   1.114  0.00  0.00    +0.000 A 
ATOM      5  C12 UNL     1      -0.772  -4.540  -0.134  0.00  0.00    +0.000 A 
ATOM      6  N2  UNL     1      -0.388  -3.780  -1.180  0.00  0.00    +0.000 NA
ATOM      7  C13 UNL     1      -0.312  -2.443  -0.974  0.00  0.00    +0.000 A 
ENDBRANCH   1   2
BRANCH   1   9
ATOM      8  N1  UNL     1       1.912  -0.324  -0.370  0.00  0.00    +0.000 N 
ATOM      9  C7  UNL     1       0.728   0.392  -0.290  0.00  0.00    +0.000 C 
ATOM     10  O1  UNL     1       0.647   1.552  -0.694  0.00  0.00    +0.000 OA
ATOM     11  H12 UNL     1       1.992  -1.207   0.120  0.00  0.00    +0.000 HD
BRANCH   8  17
ATOM     12  C1  UNL     1       4.053  -0.859  -1.442  0.00  0.00    +0.000 C 
ATOM     13  C2  UNL     1       5.288  -0.292  -2.146  0.00  0.00    +0.000 C 
ATOM     14  C3  UNL     1       5.708   1.085  -1.630  0.00  0.00    +0.000 C 
ATOM     15  C4  UNL     1       5.339   1.277  -0.166  0.00  0.00    +0.000 C 
ATOM     16  C5  UNL     1       3.829   1.164   0.063  0.00  0.00    +0.000 C 
ATOM     17  C6  UNL     1       3.120   0.247  -0.948  0.00  0.00    +0.000 C 
ENDBRANCH   8  17
ENDBRANCH   1   9
BRANCH   1  18
ATOM     18  N3  UNL     1      -1.716   0.412   0.316  0.00  0.00    +0.000 N 
ATOM     19  C14 UNL     1      -2.224   0.568  -0.985  0.00  0.00    +0.000 C 
ATOM     20  O2  UNL     1      -1.758  -0.055  -1.939  0.00  0.00    +0.000 OA
BRANCH  19  21
ATOM     21  C15 UNL     1      -3.276   1.534  -1.227  0.00  0.00    +0.000 A 
ATOM     22  C16 UNL     1      -3.779   2.606  -0.517  0.00  0.00    +0.000 A 
ATOM     23  N4  UNL     1      -4.791   3.234  -1.203  0.00  0.00    +0.000 NA
ATOM     24  C17 UNL     1      -4.881   2.591  -2.343  0.00  0.00    +0.000 A 
ATOM     25  N5  UNL     1      -3.978   1.574  -2.412  0.00  0.00    +0.000 N 
ATOM     26  H20 UNL     1      -3.824   0.950  -3.194  0.00  0.00    +0.000 HD
ENDBRANCH  19  21
BRANCH  18  27
ATOM     27  C18 UNL     1      -2.527   0.507   1.491  0.00  0.00    +0.000 A 
ATOM     28  C19 UNL     1      -3.851   0.047   1.496  0.00  0.00    +0.000 A 
ATOM     29  C20 UNL     1      -4.624   0.120   2.658  0.00  0.00    +0.000 A 
ATOM     30  C21 UNL     1      -4.081   0.649   3.826  0.00  0.00    +0.000 A 
ATOM     31  C22 UNL     1      -2.766   1.106   3.835  0.00  0.00    +0.000 A 
ATOM     32  C23 UNL     1      -1.991   1.033   2.675  0.00  0.00    +0.000 A 
ENDBRANCH  18  27
ENDBRANCH   1  18
TORSDOF 6
