REMARK  Name = /home/anacleto/Desktop/manuscript_Mpro/naturecomm/supplementary_file_S2/6-chemical-library/molecular_docking/3D_ligand_structure/4166.pdb
REMARK  7 active torsions:
REMARK  status: ('A' for Active; 'I' for Inactive)
REMARK    1  A    between atoms: C3_5  and  C4_6
REMARK    2  A    between atoms: C4_6  and  N2_7
REMARK    3  A    between atoms: C5_8  and  C6_10
REMARK    4  A    between atoms: C6_10  and  C7_11
REMARK    5  A    between atoms: C6_10  and  N4_17
REMARK    6  A    between atoms: N4_17  and  C16_25
REMARK    7  A    between atoms: C12_18  and  C13_20
REMARK                            x       y       z     vdW  Elec       q    Type
REMARK                         _______ _______ _______ _____ _____    ______ ____
ROOT
ATOM      1  C6  UNL     1       0.629  -1.006   0.260  0.00  0.00    +0.000 C 
ENDROOT
BRANCH   1   2
ATOM      2  C7  UNL     1       0.416  -2.493   0.499  0.00  0.00    +0.000 A 
ATOM      3  C8  UNL     1      -0.216  -2.931   1.673  0.00  0.00    +0.000 A 
ATOM      4  C9  UNL     1      -0.423  -4.290   1.894  0.00  0.00    +0.000 A 
ATOM      5  C10 UNL     1       0.006  -5.181   0.927  0.00  0.00    +0.000 A 
ATOM      6  N3  UNL     1       0.609  -4.806  -0.219  0.00  0.00    +0.000 NA
ATOM      7  C11 UNL     1       0.798  -3.477  -0.409  0.00  0.00    +0.000 A 
ENDBRANCH   1   2
BRANCH   1   9
ATOM      8  N2  UNL     1       1.705   0.621  -1.266  0.00  0.00    +0.000 N 
ATOM      9  C5  UNL     1       1.831  -0.607  -0.641  0.00  0.00    +0.000 C 
ATOM     10  O2  UNL     1       2.877  -1.252  -0.697  0.00  0.00    +0.000 OA
ATOM     11  H5  UNL     1       0.903   1.202  -1.046  0.00  0.00    +0.000 HD
BRANCH   8  12
ATOM     12  C4  UNL     1       2.801   1.230  -1.981  0.00  0.00    +0.000 C 
BRANCH  12  17
ATOM     13  O1  UNL     1       3.095   3.393  -0.895  0.00  0.00    +0.000 OA
ATOM     14  C1  UNL     1       3.956   3.922   0.018  0.00  0.00    +0.000 A 
ATOM     15  N1  UNL     1       4.879   3.098   0.460  0.00  0.00    +0.000 NA
ATOM     16  C2  UNL     1       4.618   1.933  -0.215  0.00  0.00    +0.000 A 
ATOM     17  C3  UNL     1       3.535   2.104  -1.046  0.00  0.00    +0.000 A 
ENDBRANCH  12  17
ENDBRANCH   8  12
ENDBRANCH   1   9
BRANCH   1  18
ATOM     18  N4  UNL     1      -0.611  -0.291  -0.134  0.00  0.00    +0.000 N 
ATOM     19  C12 UNL     1      -1.150  -0.586  -1.402  0.00  0.00    +0.000 C 
ATOM     20  O3  UNL     1      -0.740  -1.517  -2.092  0.00  0.00    +0.000 OA
BRANCH  18  21
ATOM     21  C16 UNL     1      -1.346   0.363   0.907  0.00  0.00    +0.000 A 
ATOM     22  C17 UNL     1      -2.720   0.139   1.073  0.00  0.00    +0.000 A 
ATOM     23  C18 UNL     1      -3.423   0.750   2.115  0.00  0.00    +0.000 A 
ATOM     24  C19 UNL     1      -2.761   1.590   3.006  0.00  0.00    +0.000 A 
ATOM     25  C20 UNL     1      -1.396   1.819   2.857  0.00  0.00    +0.000 A 
ATOM     26  C21 UNL     1      -0.691   1.207   1.816  0.00  0.00    +0.000 A 
ENDBRANCH  18  21
BRANCH  19  27
ATOM     27  C13 UNL     1      -2.122   0.352  -1.969  0.00  0.00    +0.000 A 
ATOM     28  C14 UNL     1      -2.969   0.081  -3.022  0.00  0.00    +0.000 A 
ATOM     29  O4  UNL     1      -3.690   1.203  -3.295  0.00  0.00    +0.000 OA
ATOM     30  C15 UNL     1      -3.220   2.117  -2.403  0.00  0.00    +0.000 A 
ATOM     31  N5  UNL     1      -2.277   1.679  -1.601  0.00  0.00    +0.000 NA
ENDBRANCH  19  27
ENDBRANCH   1  18
TORSDOF 7
