REMARK  Name = /home/anacleto/Desktop/manuscript_Mpro/naturecomm/supplementary_file_S2/6-chemical-library/molecular_docking/3D_ligand_structure/4172.pdb
REMARK  5 active torsions:
REMARK  status: ('A' for Active; 'I' for Inactive)
REMARK    1  A    between atoms: C6_7  and  C7_9
REMARK    2  A    between atoms: C7_9  and  C8_10
REMARK    3  A    between atoms: C7_9  and  N3_16
REMARK    4  A    between atoms: N3_16  and  C17_24
REMARK    5  A    between atoms: C13_17  and  C14_19
REMARK                            x       y       z     vdW  Elec       q    Type
REMARK                         _______ _______ _______ _____ _____    ______ ____
ROOT
ATOM      1  C7  UNL     1       0.084  -1.082  -0.823  0.00  0.00    +0.000 C 
ENDROOT
BRANCH   1   8
ATOM      2  C1  UNL     1       2.160  -0.414   1.321  0.00  0.00    +0.000 C 
ATOM      3  C2  UNL     1       2.527   0.718   2.274  0.00  0.00    +0.000 C 
ATOM      4  C3  UNL     1       3.907   1.282   1.950  0.00  0.00    +0.000 C 
ATOM      5  C4  UNL     1       3.983   1.698   0.484  0.00  0.00    +0.000 C 
ATOM      6  C5  UNL     1       3.577   0.556  -0.443  0.00  0.00    +0.000 C 
ATOM      7  N1  UNL     1       2.275  -0.001  -0.077  0.00  0.00    +0.000 N 
ATOM      8  C6  UNL     1       1.574  -0.661  -1.103  0.00  0.00    +0.000 C 
ATOM      9  O1  UNL     1       2.150  -0.946  -2.159  0.00  0.00    +0.000 OA
ENDBRANCH   1   8
BRANCH   1  10
ATOM     10  C8  UNL     1      -0.601  -1.838  -1.966  0.00  0.00    +0.000 A 
ATOM     11  C9  UNL     1       0.028  -2.932  -2.582  0.00  0.00    +0.000 A 
ATOM     12  C10 UNL     1      -0.618  -3.652  -3.584  0.00  0.00    +0.000 A 
ATOM     13  C11 UNL     1      -1.900  -3.277  -3.935  0.00  0.00    +0.000 A 
ATOM     14  N2  UNL     1      -2.561  -2.258  -3.353  0.00  0.00    +0.000 NA
ATOM     15  C12 UNL     1      -1.901  -1.567  -2.391  0.00  0.00    +0.000 A 
ENDBRANCH   1  10
BRANCH   1  16
ATOM     16  N3  UNL     1      -0.711   0.051  -0.280  0.00  0.00    +0.000 N 
ATOM     17  C13 UNL     1      -0.765   1.228  -1.059  0.00  0.00    +0.000 C 
ATOM     18  O2  UNL     1       0.085   1.485  -1.910  0.00  0.00    +0.000 OA
BRANCH  16  19
ATOM     19  C17 UNL     1      -1.358  -0.105   0.989  0.00  0.00    +0.000 A 
ATOM     20  C18 UNL     1      -1.894  -1.339   1.387  0.00  0.00    +0.000 A 
ATOM     21  C19 UNL     1      -2.473  -1.496   2.650  0.00  0.00    +0.000 A 
ATOM     22  C20 UNL     1      -2.512  -0.426   3.540  0.00  0.00    +0.000 A 
ATOM     23  C21 UNL     1      -1.976   0.802   3.167  0.00  0.00    +0.000 A 
ATOM     24  C22 UNL     1      -1.401   0.960   1.902  0.00  0.00    +0.000 A 
ENDBRANCH  16  19
BRANCH  17  25
ATOM     25  C14 UNL     1      -1.921   2.118  -0.924  0.00  0.00    +0.000 A 
ATOM     26  C15 UNL     1      -1.977   3.417  -1.386  0.00  0.00    +0.000 A 
ATOM     27  O3  UNL     1      -3.218   3.914  -1.133  0.00  0.00    +0.000 OA
ATOM     28  C16 UNL     1      -3.873   2.873  -0.552  0.00  0.00    +0.000 A 
ATOM     29  N4  UNL     1      -3.162   1.779  -0.408  0.00  0.00    +0.000 NA
ENDBRANCH  17  25
ENDBRANCH   1  16
TORSDOF 5
