REMARK  Name = /home/anacleto/Desktop/manuscript_Mpro/naturecomm/supplementary_file_S2/6-chemical-library/molecular_docking/3D_ligand_structure/418.pdb
REMARK  6 active torsions:
REMARK  status: ('A' for Active; 'I' for Inactive)
REMARK    1  A    between atoms: C4_7  and  C5_8
REMARK    2  A    between atoms: N3_10  and  C6_11
REMARK    3  A    between atoms: C6_11  and  C7_12
REMARK    4  A    between atoms: N4_14  and  C8_15
REMARK    5  A    between atoms: C8_15  and  C9_16
REMARK    6  A    between atoms: C9_16  and  C10_17
REMARK                            x       y       z     vdW  Elec       q    Type
REMARK                         _______ _______ _______ _____ _____    ______ ____
ROOT
ATOM      1  C6  UNL     1       1.682   1.281  -2.305  0.00  0.00    +0.000 C 
ENDROOT
BRANCH   1   4
ATOM      2  C5  UNL     1       3.155  -0.493  -1.376  0.00  0.00    +0.000 C 
ATOM      3  O2  UNL     1       3.011  -1.259  -2.320  0.00  0.00    +0.000 OA
ATOM      4  N3  UNL     1       2.544   0.731  -1.272  0.00  0.00    +0.000 N 
ATOM      5  H4  UNL     1       2.725   1.268  -0.427  0.00  0.00    +0.000 HD
BRANCH   2  12
ATOM      6  N1  UNL     1       4.039   0.086   0.886  0.00  0.00    +0.000 NA
ATOM      7  C1  UNL     1       4.800  -0.244   1.890  0.00  0.00    +0.000 A 
ATOM      8  C2  UNL     1       5.623  -1.516   1.958  0.00  0.00    +0.000 A 
ATOM      9  O1  UNL     1       6.310  -1.755   2.936  0.00  0.00    +0.000 OA
ATOM     10  N2  UNL     1       5.505  -2.320   0.851  0.00  0.00    +0.000 N 
ATOM     11  C3  UNL     1       4.705  -1.964  -0.204  0.00  0.00    +0.000 A 
ATOM     12  C4  UNL     1       4.013  -0.812  -0.174  0.00  0.00    +0.000 A 
ATOM     13  H2  UNL     1       6.034  -3.184   0.839  0.00  0.00    +0.000 HD
ENDBRANCH   2  12
ENDBRANCH   1   4
BRANCH   1  14
ATOM     14  C7  UNL     1       0.183   1.121  -2.020  0.00  0.00    +0.000 C 
ATOM     15  O3  UNL     1      -0.671   1.661  -2.720  0.00  0.00    +0.000 OA
ATOM     16  N4  UNL     1      -0.126   0.318  -0.944  0.00  0.00    +0.000 N 
ATOM     17  H7  UNL     1       0.633  -0.210  -0.531  0.00  0.00    +0.000 HD
BRANCH  16  18
ATOM     18  C8  UNL     1      -1.493  -0.023  -0.603  0.00  0.00    +0.000 C 
BRANCH  18  19
ATOM     19  C9  UNL     1      -2.212   1.116   0.122  0.00  0.00    +0.000 C 
BRANCH  19  20
ATOM     20  C10 UNL     1      -3.615   0.726   0.517  0.00  0.00    +0.000 A 
ATOM     21  C11 UNL     1      -4.666   0.850  -0.401  0.00  0.00    +0.000 A 
ATOM     22  C12 UNL     1      -5.962   0.472  -0.047  0.00  0.00    +0.000 A 
ATOM     23  C13 UNL     1      -6.217  -0.037   1.226  0.00  0.00    +0.000 A 
ATOM     24  C14 UNL     1      -5.177  -0.168   2.144  0.00  0.00    +0.000 A 
ATOM     25  C15 UNL     1      -3.881   0.210   1.792  0.00  0.00    +0.000 A 
ENDBRANCH  19  20
ENDBRANCH  18  19
ENDBRANCH  16  18
ENDBRANCH   1  14
TORSDOF 6
