REMARK  Name = /home/anacleto/Desktop/manuscript_Mpro/naturecomm/supplementary_file_S2/6-chemical-library/molecular_docking/3D_ligand_structure/4198.pdb
REMARK  7 active torsions:
REMARK  status: ('A' for Active; 'I' for Inactive)
REMARK    1  A    between atoms: C6_6  and  C7_7
REMARK    2  A    between atoms: C7_7  and  C8_8
REMARK    3  A    between atoms: C8_8  and  N1_9
REMARK    4  A    between atoms: C9_10  and  C10_12
REMARK    5  A    between atoms: C10_12  and  C11_13
REMARK    6  A    between atoms: C10_12  and  N3_19
REMARK    7  A    between atoms: C16_20  and  C17_22
REMARK                            x       y       z     vdW  Elec       q    Type
REMARK                         _______ _______ _______ _____ _____    ______ ____
ROOT
ATOM      1  C10 UNL     1       0.931  -0.866   1.724  0.00  0.00    +0.000 C 
ENDROOT
BRANCH   1   2
ATOM      2  C11 UNL     1       0.873  -0.213   3.085  0.00  0.00    +0.000 A 
ATOM      3  C12 UNL     1       0.762  -0.998   4.240  0.00  0.00    +0.000 A 
ATOM      4  C13 UNL     1       0.685  -0.391   5.491  0.00  0.00    +0.000 A 
ATOM      5  C14 UNL     1       0.711   0.989   5.552  0.00  0.00    +0.000 A 
ATOM      6  N2  UNL     1       0.800   1.782   4.465  0.00  0.00    +0.000 NA
ATOM      7  C15 UNL     1       0.871   1.168   3.260  0.00  0.00    +0.000 A 
ENDBRANCH   1   2
BRANCH   1   9
ATOM      8  N1  UNL     1       3.110  -0.331   0.685  0.00  0.00    +0.000 N 
ATOM      9  C9  UNL     1       1.755  -0.051   0.694  0.00  0.00    +0.000 C 
ATOM     10  O1  UNL     1       1.253   0.809  -0.029  0.00  0.00    +0.000 OA
ATOM     11  H10 UNL     1       3.448  -1.144   1.187  0.00  0.00    +0.000 HD
BRANCH   8  12
ATOM     12  C8  UNL     1       4.004   0.302  -0.268  0.00  0.00    +0.000 C 
BRANCH  12  13
ATOM     13  C7  UNL     1       3.901  -0.326  -1.660  0.00  0.00    +0.000 C 
BRANCH  13  19
ATOM     14  C1  UNL     1       6.124  -0.210  -2.856  0.00  0.00    +0.000 A 
ATOM     15  C2  UNL     1       7.003   0.410  -3.745  0.00  0.00    +0.000 A 
ATOM     16  C3  UNL     1       6.617   1.569  -4.418  0.00  0.00    +0.000 A 
ATOM     17  C4  UNL     1       5.352   2.109  -4.201  0.00  0.00    +0.000 A 
ATOM     18  C5  UNL     1       4.471   1.493  -3.312  0.00  0.00    +0.000 A 
ATOM     19  C6  UNL     1       4.849   0.324  -2.634  0.00  0.00    +0.000 A 
ENDBRANCH  13  19
ENDBRANCH  12  13
ENDBRANCH   8  12
ENDBRANCH   1   9
BRANCH   1  20
ATOM     20  N3  UNL     1      -0.411  -1.053   1.206  0.00  0.00    +0.000 N 
ATOM     21  C16 UNL     1      -0.687  -2.065   0.312  0.00  0.00    +0.000 C 
ATOM     22  O2  UNL     1       0.079  -2.995   0.082  0.00  0.00    +0.000 OA
ATOM     23  H16 UNL     1      -1.015  -0.238   1.129  0.00  0.00    +0.000 HD
BRANCH  21  24
ATOM     24  C17 UNL     1      -2.001  -1.933  -0.390  0.00  0.00    +0.000 A 
ATOM     25  C18 UNL     1      -2.368  -2.867  -1.326  0.00  0.00    +0.000 A 
ATOM     26  C19 UNL     1      -3.578  -2.627  -1.911  0.00  0.00    +0.000 A 
ATOM     27  N4  UNL     1      -4.354  -1.570  -1.602  0.00  0.00    +0.000 NA
ATOM     28  C20 UNL     1      -3.923  -0.705  -0.668  0.00  0.00    +0.000 A 
ATOM     29  N5  UNL     1      -2.748  -0.858  -0.044  0.00  0.00    +0.000 NA
ATOM     30  N6  UNL     1      -4.699   0.398  -0.350  0.00  0.00    +0.000 N 
ATOM     31  C21 UNL     1      -6.096   0.430  -0.802  0.00  0.00    +0.000 C 
ATOM     32  C22 UNL     1      -7.039   0.337   0.409  0.00  0.00    +0.000 C 
ATOM     33  O3  UNL     1      -6.865   1.397   1.363  0.00  0.00    +0.000 OA
ATOM     34  C23 UNL     1      -5.555   1.987   1.330  0.00  0.00    +0.000 C 
ATOM     35  C24 UNL     1      -4.448   0.984   0.976  0.00  0.00    +0.000 C 
ENDBRANCH  21  24
ENDBRANCH   1  20
TORSDOF 7
