REMARK  Name = /home/anacleto/Desktop/manuscript_Mpro/naturecomm/supplementary_file_S2/6-chemical-library/molecular_docking/3D_ligand_structure/42.pdb
REMARK  0 active torsions:
REMARK  status: ('A' for Active; 'I' for Inactive)
REMARK                            x       y       z     vdW  Elec       q    Type
REMARK                         _______ _______ _______ _____ _____    ______ ____
ROOT
ATOM      1  C1  UNL     1      -1.681  -0.366  -0.264  0.00  0.00    +0.000 C 
ATOM      2  C2  UNL     1      -0.368  -0.191  -0.106  0.00  0.00    +0.000 C 
ATOM      3  C3  UNL     1       0.238   1.040   0.469  0.00  0.00    +0.000 C 
ATOM      4  O1  UNL     1      -0.297   2.050   0.876  0.00  0.00    +0.000 OA
ATOM      5  O2  UNL     1       1.570   0.758   0.428  0.00  0.00    +0.000 OA
ATOM      6  C4  UNL     1       1.680  -0.477  -0.104  0.00  0.00    +0.000 C 
ATOM      7  N1  UNL     1       0.601  -1.094  -0.440  0.00  0.00    +0.000 NA
ENDROOT
TORSDOF 0
