REMARK  Name = /home/anacleto/Desktop/manuscript_Mpro/naturecomm/supplementary_file_S2/6-chemical-library/molecular_docking/3D_ligand_structure/4201.pdb
REMARK  9 active torsions:
REMARK  status: ('A' for Active; 'I' for Inactive)
REMARK    1  A    between atoms: C6_6  and  C7_7
REMARK    2  A    between atoms: C7_7  and  C8_8
REMARK    3  A    between atoms: C8_8  and  N1_9
REMARK    4  A    between atoms: C9_10  and  C10_12
REMARK    5  A    between atoms: C10_12  and  N2_13
REMARK    6  A    between atoms: N2_13  and  C15_21
REMARK    7  A    between atoms: C11_14  and  C12_16
REMARK    8  A    between atoms: C17_23  and  O3_27
REMARK    9  A    between atoms: O3_27  and  C21_28
REMARK                            x       y       z     vdW  Elec       q    Type
REMARK                         _______ _______ _______ _____ _____    ______ ____
ROOT
ATOM      1  N2  UNL     1      -0.605  -2.160   0.320  0.00  0.00    +0.000 N 
ATOM      2  C11 UNL     1      -0.245  -2.657  -0.942  0.00  0.00    +0.000 C 
ATOM      3  O2  UNL     1       0.900  -3.072  -1.141  0.00  0.00    +0.000 OA
ENDROOT
BRANCH   2   4
ATOM      4  C12 UNL     1      -1.198  -2.565  -2.028  0.00  0.00    +0.000 A 
ATOM      5  C13 UNL     1      -1.238  -3.297  -3.199  0.00  0.00    +0.000 A 
ATOM      6  N3  UNL     1      -2.285  -2.915  -3.998  0.00  0.00    +0.000 NA
ATOM      7  C14 UNL     1      -2.866  -1.932  -3.352  0.00  0.00    +0.000 A 
ATOM      8  N4  UNL     1      -2.233  -1.666  -2.172  0.00  0.00    +0.000 N 
ATOM      9  H15 UNL     1      -2.492  -0.933  -1.522  0.00  0.00    +0.000 HD
ENDBRANCH   2   4
BRANCH   1  10
ATOM     10  C15 UNL     1      -1.939  -2.083   0.802  0.00  0.00    +0.000 A 
ATOM     11  C16 UNL     1      -2.357  -0.938   1.486  0.00  0.00    +0.000 A 
ATOM     12  C17 UNL     1      -3.698  -0.809   1.851  0.00  0.00    +0.000 A 
ATOM     13  C18 UNL     1      -4.603  -1.848   1.647  0.00  0.00    +0.000 A 
ATOM     14  C19 UNL     1      -4.177  -3.011   1.010  0.00  0.00    +0.000 A 
ATOM     15  C20 UNL     1      -2.854  -3.122   0.575  0.00  0.00    +0.000 A 
BRANCH  12  16
ATOM     16  O3  UNL     1      -4.149   0.362   2.409  0.00  0.00    +0.000 OA
BRANCH  16  17
ATOM     17  C21 UNL     1      -4.362   1.401   1.505  0.00  0.00    +0.000 A 
ATOM     18  C22 UNL     1      -4.762   2.614   2.031  0.00  0.00    +0.000 A 
ATOM     19  C23 UNL     1      -4.989   3.665   1.151  0.00  0.00    +0.000 A 
ATOM     20  C24 UNL     1      -4.806   3.435  -0.200  0.00  0.00    +0.000 A 
ATOM     21  N5  UNL     1      -4.420   2.238  -0.690  0.00  0.00    +0.000 NA
ATOM     22  N6  UNL     1      -4.197   1.207   0.173  0.00  0.00    +0.000 NA
ENDBRANCH  16  17
ENDBRANCH  12  16
ENDBRANCH   1  10
BRANCH   1  23
ATOM     23  C10 UNL     1       0.459  -1.996   1.319  0.00  0.00    +0.000 C 
BRANCH  23  25
ATOM     24  N1  UNL     1       2.014  -0.678  -0.034  0.00  0.00    +0.000 N 
ATOM     25  C9  UNL     1       1.237  -0.698   1.102  0.00  0.00    +0.000 C 
ATOM     26  O1  UNL     1       1.181   0.236   1.900  0.00  0.00    +0.000 OA
ATOM     27  H10 UNL     1       2.046  -1.515  -0.617  0.00  0.00    +0.000 HD
BRANCH  24  28
ATOM     28  C8  UNL     1       2.904   0.423  -0.345  0.00  0.00    +0.000 C 
BRANCH  28  29
ATOM     29  C7  UNL     1       4.239   0.294   0.394  0.00  0.00    +0.000 C 
BRANCH  29  35
ATOM     30  C1  UNL     1       6.075   1.300  -1.022  0.00  0.00    +0.000 A 
ATOM     31  C2  UNL     1       6.945   2.345  -1.336  0.00  0.00    +0.000 A 
ATOM     32  C3  UNL     1       6.934   3.515  -0.579  0.00  0.00    +0.000 A 
ATOM     33  C4  UNL     1       6.049   3.644   0.490  0.00  0.00    +0.000 A 
ATOM     34  C5  UNL     1       5.176   2.602   0.805  0.00  0.00    +0.000 A 
ATOM     35  C6  UNL     1       5.186   1.417   0.056  0.00  0.00    +0.000 A 
ENDBRANCH  29  35
ENDBRANCH  28  29
ENDBRANCH  24  28
ENDBRANCH  23  25
ENDBRANCH   1  23
TORSDOF 9
