REMARK  Name = /home/anacleto/Desktop/manuscript_Mpro/naturecomm/supplementary_file_S2/6-chemical-library/molecular_docking/3D_ligand_structure/4214.pdb
REMARK  8 active torsions:
REMARK  status: ('A' for Active; 'I' for Inactive)
REMARK    1  A    between atoms: C6_6  and  C7_7
REMARK    2  A    between atoms: C7_7  and  C8_8
REMARK    3  A    between atoms: C8_8  and  N1_9
REMARK    4  A    between atoms: C9_10  and  C10_12
REMARK    5  A    between atoms: C10_12  and  N2_13
REMARK    6  A    between atoms: N2_13  and  C15_21
REMARK    7  A    between atoms: C11_14  and  C12_16
REMARK    8  A    between atoms: C20_26  and  C21_27
REMARK                            x       y       z     vdW  Elec       q    Type
REMARK                         _______ _______ _______ _____ _____    ______ ____
ROOT
ATOM      1  N2  UNL     1       0.332  -0.341   1.296  0.00  0.00    +0.000 N 
ATOM      2  C11 UNL     1       0.717  -1.673   1.072  0.00  0.00    +0.000 C 
ATOM      3  O2  UNL     1       1.410  -2.308   1.864  0.00  0.00    +0.000 OA
ENDROOT
BRANCH   1   4
ATOM      4  C15 UNL     1      -0.967   0.190   0.987  0.00  0.00    +0.000 A 
ATOM      5  C16 UNL     1      -2.072  -0.653   0.807  0.00  0.00    +0.000 A 
ATOM      6  C17 UNL     1      -3.346  -0.141   0.523  0.00  0.00    +0.000 A 
ATOM      7  C18 UNL     1      -1.192   1.571   0.907  0.00  0.00    +0.000 A 
ATOM      8  C19 UNL     1      -2.464   2.086   0.623  0.00  0.00    +0.000 A 
ATOM      9  C20 UNL     1      -3.561   1.238   0.420  0.00  0.00    +0.000 A 
BRANCH   9  10
ATOM     10  C21 UNL     1      -4.916   1.850   0.127  0.00  0.00    +0.000 C 
ATOM     11  N4  UNL     1      -5.848   0.942  -0.476  0.00  0.00    +0.000 N 
ATOM     12  C22 UNL     1      -5.652   2.301   1.388  0.00  0.00    +0.000 C 
ATOM     13  C23 UNL     1      -6.538   1.111   1.753  0.00  0.00    +0.000 C 
ATOM     14  C24 UNL     1      -6.769   0.446   0.421  0.00  0.00    +0.000 C 
ATOM     15  O4  UNL     1      -7.591  -0.418   0.176  0.00  0.00    +0.000 OA
ATOM     16  H20 UNL     1      -5.769   0.555  -1.408  0.00  0.00    +0.000 HD
ENDBRANCH   9  10
ENDBRANCH   1   4
BRANCH   2  17
ATOM     17  C12 UNL     1       0.386  -2.234  -0.238  0.00  0.00    +0.000 A 
ATOM     18  C13 UNL     1       0.398  -3.571  -0.569  0.00  0.00    +0.000 A 
ATOM     19  O3  UNL     1       0.076  -3.688  -1.887  0.00  0.00    +0.000 OA
ATOM     20  C14 UNL     1      -0.093  -2.403  -2.300  0.00  0.00    +0.000 A 
ATOM     21  N3  UNL     1       0.100  -1.489  -1.375  0.00  0.00    +0.000 NA
ENDBRANCH   2  17
BRANCH   1  22
ATOM     22  C10 UNL     1       1.332   0.508   1.946  0.00  0.00    +0.000 C 
BRANCH  22  24
ATOM     23  N1  UNL     1       1.990   1.021  -0.382  0.00  0.00    +0.000 N 
ATOM     24  C9  UNL     1       2.212   1.284   0.952  0.00  0.00    +0.000 C 
ATOM     25  O1  UNL     1       3.055   2.088   1.346  0.00  0.00    +0.000 OA
ATOM     26  H10 UNL     1       1.245   0.377  -0.638  0.00  0.00    +0.000 HD
BRANCH  23  27
ATOM     27  C8  UNL     1       2.802   1.578  -1.445  0.00  0.00    +0.000 C 
BRANCH  27  28
ATOM     28  C7  UNL     1       3.492   0.491  -2.278  0.00  0.00    +0.000 C 
BRANCH  28  34
ATOM     29  C1  UNL     1       4.178  -1.713  -1.245  0.00  0.00    +0.000 A 
ATOM     30  C2  UNL     1       5.060  -2.495  -0.497  0.00  0.00    +0.000 A 
ATOM     31  C3  UNL     1       6.232  -1.938   0.007  0.00  0.00    +0.000 A 
ATOM     32  C4  UNL     1       6.524  -0.596  -0.234  0.00  0.00    +0.000 A 
ATOM     33  C5  UNL     1       5.642   0.189  -0.977  0.00  0.00    +0.000 A 
ATOM     34  C6  UNL     1       4.458  -0.361  -1.488  0.00  0.00    +0.000 A 
ENDBRANCH  28  34
ENDBRANCH  27  28
ENDBRANCH  23  27
ENDBRANCH  22  24
ENDBRANCH   1  22
TORSDOF 8
