REMARK  Name = /home/anacleto/Desktop/manuscript_Mpro/naturecomm/supplementary_file_S2/6-chemical-library/molecular_docking/3D_ligand_structure/4226.pdb
REMARK  9 active torsions:
REMARK  status: ('A' for Active; 'I' for Inactive)
REMARK    1  A    between atoms: C6_6  and  C7_7
REMARK    2  A    between atoms: C7_7  and  C8_8
REMARK    3  A    between atoms: C8_8  and  N1_9
REMARK    4  A    between atoms: C9_10  and  C10_12
REMARK    5  A    between atoms: C10_12  and  C11_13
REMARK    6  A    between atoms: C10_12  and  N3_19
REMARK    7  A    between atoms: N3_19  and  C16_20
REMARK    8  A    between atoms: C19_23  and  O2_26
REMARK    9  A    between atoms: O2_26  and  C22_27
REMARK                            x       y       z     vdW  Elec       q    Type
REMARK                         _______ _______ _______ _____ _____    ______ ____
ROOT
ATOM      1  C10 UNL     1      -0.760  -1.850  -0.660  0.00  0.00    +0.000 C 
ENDROOT
BRANCH   1   2
ATOM      2  C11 UNL     1      -0.812  -3.359  -0.791  0.00  0.00    +0.000 A 
ATOM      3  C12 UNL     1       0.282  -4.060  -1.319  0.00  0.00    +0.000 A 
ATOM      4  C13 UNL     1       0.253  -5.449  -1.393  0.00  0.00    +0.000 A 
ATOM      5  C14 UNL     1      -0.872  -6.105  -0.926  0.00  0.00    +0.000 A 
ATOM      6  N2  UNL     1      -1.941  -5.473  -0.398  0.00  0.00    +0.000 NA
ATOM      7  C15 UNL     1      -1.892  -4.121  -0.346  0.00  0.00    +0.000 A 
ENDBRANCH   1   2
BRANCH   1   9
ATOM      8  N1  UNL     1      -2.326  -0.318   0.466  0.00  0.00    +0.000 N 
ATOM      9  C9  UNL     1      -2.161  -1.172  -0.607  0.00  0.00    +0.000 C 
ATOM     10  O1  UNL     1      -3.043  -1.372  -1.439  0.00  0.00    +0.000 OA
ATOM     11  H10 UNL     1      -1.483  -0.134   1.009  0.00  0.00    +0.000 HD
BRANCH   8  12
ATOM     12  C8  UNL     1      -3.528   0.455   0.685  0.00  0.00    +0.000 C 
BRANCH  12  13
ATOM     13  C7  UNL     1      -3.581   1.710  -0.192  0.00  0.00    +0.000 C 
BRANCH  13  19
ATOM     14  C1  UNL     1      -4.760   3.598   1.005  0.00  0.00    +0.000 A 
ATOM     15  C2  UNL     1      -5.908   4.341   1.289  0.00  0.00    +0.000 A 
ATOM     16  C3  UNL     1      -7.115   4.024   0.670  0.00  0.00    +0.000 A 
ATOM     17  C4  UNL     1      -7.177   2.965  -0.233  0.00  0.00    +0.000 A 
ATOM     18  C5  UNL     1      -6.030   2.221  -0.518  0.00  0.00    +0.000 A 
ATOM     19  C6  UNL     1      -4.810   2.533   0.096  0.00  0.00    +0.000 A 
ENDBRANCH  13  19
ENDBRANCH  12  13
ENDBRANCH   8  12
ENDBRANCH   1   9
BRANCH   1  20
ATOM     20  N3  UNL     1       0.003  -1.498   0.574  0.00  0.00    +0.000 N 
ATOM     21  H16 UNL     1      -0.205  -2.174   1.309  0.00  0.00    +0.000 HD
BRANCH  20  22
ATOM     22  C16 UNL     1       1.375  -1.235   0.508  0.00  0.00    +0.000 A 
ATOM     23  C17 UNL     1       1.983  -0.560  -0.558  0.00  0.00    +0.000 A 
ATOM     24  C18 UNL     1       3.353  -0.270  -0.544  0.00  0.00    +0.000 A 
ATOM     25  C19 UNL     1       4.127  -0.607   0.565  0.00  0.00    +0.000 A 
ATOM     26  C20 UNL     1       3.537  -1.253   1.646  0.00  0.00    +0.000 A 
ATOM     27  C21 UNL     1       2.169  -1.542   1.623  0.00  0.00    +0.000 A 
BRANCH  25  28
ATOM     28  O2  UNL     1       5.483  -0.383   0.638  0.00  0.00    +0.000 OA
BRANCH  28  29
ATOM     29  C22 UNL     1       5.955   0.831   0.193  0.00  0.00    +0.000 A 
ATOM     30  C23 UNL     1       5.398   2.048   0.592  0.00  0.00    +0.000 A 
ATOM     31  C24 UNL     1       5.945   3.245   0.128  0.00  0.00    +0.000 A 
ATOM     32  C25 UNL     1       7.056   3.224  -0.717  0.00  0.00    +0.000 A 
ATOM     33  C26 UNL     1       7.627   2.007  -1.092  0.00  0.00    +0.000 A 
ATOM     34  C27 UNL     1       7.080   0.809  -0.632  0.00  0.00    +0.000 A 
ENDBRANCH  28  29
ENDBRANCH  25  28
ENDBRANCH  20  22
ENDBRANCH   1  20
TORSDOF 9
