REMARK  Name = /home/anacleto/Desktop/manuscript_Mpro/naturecomm/supplementary_file_S2/6-chemical-library/molecular_docking/3D_ligand_structure/4227.pdb
REMARK  9 active torsions:
REMARK  status: ('A' for Active; 'I' for Inactive)
REMARK    1  A    between atoms: C6_6  and  C7_7
REMARK    2  A    between atoms: C7_7  and  C8_8
REMARK    3  A    between atoms: C8_8  and  C9_9
REMARK    4  A    between atoms: C9_9  and  N1_10
REMARK    5  A    between atoms: C10_11  and  C11_13
REMARK    6  A    between atoms: C11_13  and  C12_14
REMARK    7  A    between atoms: C11_13  and  N3_20
REMARK    8  A    between atoms: N3_20  and  C17_21
REMARK    9  A    between atoms: C22_26  and  C23_27
REMARK                            x       y       z     vdW  Elec       q    Type
REMARK                         _______ _______ _______ _____ _____    ______ ____
ROOT
ATOM      1  C11 UNL     1      -0.053  -1.103   0.270  0.00  0.00    +0.000 C 
ENDROOT
BRANCH   1   2
ATOM      2  C12 UNL     1       0.985  -2.209   0.199  0.00  0.00    +0.000 A 
ATOM      3  C13 UNL     1       0.942  -3.276   1.108  0.00  0.00    +0.000 A 
ATOM      4  C14 UNL     1       1.899  -4.285   1.046  0.00  0.00    +0.000 A 
ATOM      5  C15 UNL     1       2.874  -4.202   0.068  0.00  0.00    +0.000 A 
ATOM      6  N2  UNL     1       2.945  -3.203  -0.836  0.00  0.00    +0.000 NA
ATOM      7  C16 UNL     1       1.992  -2.244  -0.764  0.00  0.00    +0.000 A 
ENDBRANCH   1   2
BRANCH   1   9
ATOM      8  N1  UNL     1       1.165   1.018   0.644  0.00  0.00    +0.000 N 
ATOM      9  C10 UNL     1       0.495   0.241  -0.287  0.00  0.00    +0.000 C 
ATOM     10  O1  UNL     1       0.393   0.561  -1.471  0.00  0.00    +0.000 OA
ATOM     11  H12 UNL     1       1.341   0.638   1.566  0.00  0.00    +0.000 HD
BRANCH   8  12
ATOM     12  C9  UNL     1       1.889   2.212   0.252  0.00  0.00    +0.000 C 
BRANCH  12  13
ATOM     13  C8  UNL     1       3.248   1.895  -0.372  0.00  0.00    +0.000 C 
BRANCH  13  14
ATOM     14  C7  UNL     1       4.205   1.237   0.627  0.00  0.00    +0.000 C 
BRANCH  14  20
ATOM     15  C1  UNL     1       5.766  -0.295  -0.635  0.00  0.00    +0.000 A 
ATOM     16  C2  UNL     1       7.000  -0.571  -1.225  0.00  0.00    +0.000 A 
ATOM     17  C3  UNL     1       8.020   0.377  -1.188  0.00  0.00    +0.000 A 
ATOM     18  C4  UNL     1       7.807   1.605  -0.563  0.00  0.00    +0.000 A 
ATOM     19  C5  UNL     1       6.574   1.884   0.028  0.00  0.00    +0.000 A 
ATOM     20  C6  UNL     1       5.544   0.934   0.002  0.00  0.00    +0.000 A 
ENDBRANCH  14  20
ENDBRANCH  13  14
ENDBRANCH  12  13
ENDBRANCH   8  12
ENDBRANCH   1   9
BRANCH   1  21
ATOM     21  N3  UNL     1      -1.244  -1.537  -0.479  0.00  0.00    +0.000 N 
ATOM     22  H18 UNL     1      -1.026  -1.526  -1.477  0.00  0.00    +0.000 HD
BRANCH  21  23
ATOM     23  C17 UNL     1      -2.471  -0.894  -0.257  0.00  0.00    +0.000 A 
ATOM     24  C18 UNL     1      -3.398  -0.848  -1.307  0.00  0.00    +0.000 A 
ATOM     25  C19 UNL     1      -4.668  -0.282  -1.139  0.00  0.00    +0.000 A 
ATOM     26  C20 UNL     1      -2.890  -0.425   0.990  0.00  0.00    +0.000 A 
ATOM     27  C21 UNL     1      -4.159   0.146   1.162  0.00  0.00    +0.000 A 
ATOM     28  C22 UNL     1      -5.067   0.235   0.099  0.00  0.00    +0.000 A 
BRANCH  28  29
ATOM     29  C23 UNL     1      -6.398   0.835   0.283  0.00  0.00    +0.000 A 
ATOM     30  C24 UNL     1      -6.539   2.140   0.786  0.00  0.00    +0.000 A 
ATOM     31  C25 UNL     1      -7.802   2.713   0.958  0.00  0.00    +0.000 A 
ATOM     32  C26 UNL     1      -8.946   1.989   0.631  0.00  0.00    +0.000 A 
ATOM     33  C27 UNL     1      -8.829   0.694   0.133  0.00  0.00    +0.000 A 
ATOM     34  C28 UNL     1      -7.565   0.123  -0.041  0.00  0.00    +0.000 A 
ENDBRANCH  28  29
ENDBRANCH  21  23
ENDBRANCH   1  21
TORSDOF 9
