REMARK  Name = /home/anacleto/Desktop/manuscript_Mpro/naturecomm/supplementary_file_S2/6-chemical-library/molecular_docking/3D_ligand_structure/4231.pdb
REMARK  8 active torsions:
REMARK  status: ('A' for Active; 'I' for Inactive)
REMARK    1  A    between atoms: C6_6  and  C7_7
REMARK    2  A    between atoms: C7_7  and  C8_8
REMARK    3  A    between atoms: C8_8  and  N1_9
REMARK    4  A    between atoms: C9_10  and  C10_12
REMARK    5  A    between atoms: C10_12  and  N2_13
REMARK    6  A    between atoms: N2_13  and  C11_14
REMARK    7  A    between atoms: C17_20  and  C18_22
REMARK    8  A    between atoms: C20_25  and  C21_27
REMARK                            x       y       z     vdW  Elec       q    Type
REMARK                         _______ _______ _______ _____ _____    ______ ____
ROOT
ATOM      1  N2  UNL     1       0.991  -1.633   1.342  0.00  0.00    +0.000 N 
ATOM      2  C17 UNL     1       1.611  -0.424   1.722  0.00  0.00    +0.000 C 
ATOM      3  O2  UNL     1       1.356   0.086   2.815  0.00  0.00    +0.000 OA
ENDROOT
BRANCH   1   4
ATOM      4  C11 UNL     1       1.557  -2.603   0.451  0.00  0.00    +0.000 A 
ATOM      5  C12 UNL     1       2.945  -2.751   0.317  0.00  0.00    +0.000 A 
ATOM      6  C13 UNL     1       3.485  -3.705  -0.551  0.00  0.00    +0.000 A 
ATOM      7  C14 UNL     1       2.647  -4.535  -1.287  0.00  0.00    +0.000 A 
ATOM      8  C15 UNL     1       1.267  -4.420  -1.148  0.00  0.00    +0.000 A 
ATOM      9  C16 UNL     1       0.727  -3.466  -0.281  0.00  0.00    +0.000 A 
ENDBRANCH   1   4
BRANCH   2  10
ATOM     10  C18 UNL     1       2.450   0.269   0.754  0.00  0.00    +0.000 A 
ATOM     11  C19 UNL     1       2.437   0.273  -0.626  0.00  0.00    +0.000 A 
ATOM     12  N3  UNL     1       3.378   1.080  -1.235  0.00  0.00    +0.000 NA
ATOM     13  C20 UNL     1       4.091   1.714  -0.329  0.00  0.00    +0.000 A 
ATOM     14  S1  UNL     1       3.659   1.365   1.299  0.00  0.00    +0.000 S 
BRANCH  13  15
ATOM     15  C21 UNL     1       5.144   2.628  -0.662  0.00  0.00    +0.000 A 
ATOM     16  N4  UNL     1       5.631   2.854  -1.866  0.00  0.00    +0.000 NA
ATOM     17  N5  UNL     1       6.628   3.800  -1.757  0.00  0.00    +0.000 NA
ATOM     18  C22 UNL     1       6.722   4.132  -0.493  0.00  0.00    +0.000 A 
ATOM     19  N6  UNL     1       5.813   3.424   0.230  0.00  0.00    +0.000 N 
ATOM     20  H20 UNL     1       5.654   3.474   1.225  0.00  0.00    +0.000 HD
ENDBRANCH  13  15
ENDBRANCH   2  10
BRANCH   1  21
ATOM     21  C10 UNL     1      -0.168  -2.070   2.148  0.00  0.00    +0.000 C 
BRANCH  21  23
ATOM     22  N1  UNL     1      -1.503  -0.761   0.532  0.00  0.00    +0.000 N 
ATOM     23  C9  UNL     1      -1.531  -1.618   1.609  0.00  0.00    +0.000 C 
ATOM     24  O1  UNL     1      -2.580  -1.999   2.122  0.00  0.00    +0.000 OA
ATOM     25  H10 UNL     1      -0.608  -0.448   0.179  0.00  0.00    +0.000 HD
BRANCH  22  26
ATOM     26  C8  UNL     1      -2.713  -0.232  -0.069  0.00  0.00    +0.000 C 
BRANCH  26  27
ATOM     27  C7  UNL     1      -3.318   0.912   0.749  0.00  0.00    +0.000 C 
BRANCH  27  33
ATOM     28  C1  UNL     1      -4.406   2.649  -0.730  0.00  0.00    +0.000 A 
ATOM     29  C2  UNL     1      -5.523   3.178  -1.379  0.00  0.00    +0.000 A 
ATOM     30  C3  UNL     1      -6.767   2.565  -1.240  0.00  0.00    +0.000 A 
ATOM     31  C4  UNL     1      -6.896   1.422  -0.454  0.00  0.00    +0.000 A 
ATOM     32  C5  UNL     1      -5.781   0.892   0.196  0.00  0.00    +0.000 A 
ATOM     33  C6  UNL     1      -4.526   1.502   0.066  0.00  0.00    +0.000 A 
ENDBRANCH  27  33
ENDBRANCH  26  27
ENDBRANCH  22  26
ENDBRANCH  21  23
ENDBRANCH   1  21
TORSDOF 8
