REMARK  Name = /home/anacleto/Desktop/manuscript_Mpro/naturecomm/supplementary_file_S2/6-chemical-library/molecular_docking/3D_ligand_structure/4232.pdb
REMARK  8 active torsions:
REMARK  status: ('A' for Active; 'I' for Inactive)
REMARK    1  A    between atoms: C6_6  and  C7_7
REMARK    2  A    between atoms: C7_7  and  C8_8
REMARK    3  A    between atoms: C8_8  and  N1_9
REMARK    4  A    between atoms: C9_10  and  C10_12
REMARK    5  A    between atoms: C10_12  and  N2_13
REMARK    6  A    between atoms: N2_13  and  C15_21
REMARK    7  A    between atoms: C11_14  and  C12_16
REMARK    8  A    between atoms: C20_26  and  C21_27
REMARK                            x       y       z     vdW  Elec       q    Type
REMARK                         _______ _______ _______ _____ _____    ______ ____
ROOT
ATOM      1  N2  UNL     1      -0.503  -1.294  -0.612  0.00  0.00    +0.000 N 
ATOM      2  C11 UNL     1      -0.332  -2.547  -1.225  0.00  0.00    +0.000 C 
ATOM      3  O2  UNL     1       0.733  -2.843  -1.777  0.00  0.00    +0.000 OA
ENDROOT
BRANCH   1   4
ATOM      4  C15 UNL     1      -1.750  -0.632  -0.405  0.00  0.00    +0.000 A 
ATOM      5  C16 UNL     1      -1.931   0.211   0.698  0.00  0.00    +0.000 A 
ATOM      6  C17 UNL     1      -3.131   0.908   0.883  0.00  0.00    +0.000 A 
ATOM      7  C18 UNL     1      -2.797  -0.748  -1.327  0.00  0.00    +0.000 A 
ATOM      8  C19 UNL     1      -3.997  -0.048  -1.144  0.00  0.00    +0.000 A 
ATOM      9  C20 UNL     1      -4.178   0.801  -0.044  0.00  0.00    +0.000 A 
BRANCH   9  10
ATOM     10  C21 UNL     1      -5.491   1.527   0.183  0.00  0.00    +0.000 C 
ATOM     11  O4  UNL     1      -6.183   1.748  -1.059  0.00  0.00    +0.000 OA
ATOM     12  C22 UNL     1      -6.554   3.123  -1.034  0.00  0.00    +0.000 C 
ATOM     13  C23 UNL     1      -5.491   3.761  -0.186  0.00  0.00    +0.000 C 
ATOM     14  O5  UNL     1      -5.272   2.791   0.835  0.00  0.00    +0.000 OA
ENDBRANCH   9  10
ENDBRANCH   1   4
BRANCH   2  15
ATOM     15  C12 UNL     1      -1.398  -3.550  -1.139  0.00  0.00    +0.000 A 
ATOM     16  C13 UNL     1      -1.427  -4.725  -1.864  0.00  0.00    +0.000 A 
ATOM     17  O3  UNL     1      -2.534  -5.431  -1.506  0.00  0.00    +0.000 OA
ATOM     18  C14 UNL     1      -3.119  -4.654  -0.555  0.00  0.00    +0.000 A 
ATOM     19  N3  UNL     1      -2.494  -3.531  -0.293  0.00  0.00    +0.000 NA
ENDBRANCH   2  15
BRANCH   1  20
ATOM     20  C10 UNL     1       0.722  -0.532  -0.361  0.00  0.00    +0.000 C 
BRANCH  20  22
ATOM     21  N1  UNL     1       2.780  -0.648   0.943  0.00  0.00    +0.000 N 
ATOM     22  C9  UNL     1       1.441  -0.995   0.911  0.00  0.00    +0.000 C 
ATOM     23  O1  UNL     1       0.884  -1.573   1.840  0.00  0.00    +0.000 OA
ATOM     24  H10 UNL     1       3.111   0.044   0.281  0.00  0.00    +0.000 HD
BRANCH  21  25
ATOM     25  C8  UNL     1       3.581  -0.859   2.136  0.00  0.00    +0.000 C 
BRANCH  25  26
ATOM     26  C7  UNL     1       5.081  -0.924   1.834  0.00  0.00    +0.000 C 
BRANCH  26  32
ATOM     27  C1  UNL     1       5.983   0.401  -0.122  0.00  0.00    +0.000 A 
ATOM     28  C2  UNL     1       6.466   1.584  -0.682  0.00  0.00    +0.000 A 
ATOM     29  C3  UNL     1       6.597   2.727   0.104  0.00  0.00    +0.000 A 
ATOM     30  C4  UNL     1       6.246   2.688   1.452  0.00  0.00    +0.000 A 
ATOM     31  C5  UNL     1       5.762   1.506   2.015  0.00  0.00    +0.000 A 
ATOM     32  C6  UNL     1       5.624   0.352   1.233  0.00  0.00    +0.000 A 
ENDBRANCH  26  32
ENDBRANCH  25  26
ENDBRANCH  21  25
ENDBRANCH  20  22
ENDBRANCH   1  20
TORSDOF 8
