REMARK  Name = /home/anacleto/Desktop/manuscript_Mpro/naturecomm/supplementary_file_S2/6-chemical-library/molecular_docking/3D_ligand_structure/4273.pdb
REMARK  8 active torsions:
REMARK  status: ('A' for Active; 'I' for Inactive)
REMARK    1  A    between atoms: C6_6  and  C7_7
REMARK    2  A    between atoms: C7_7  and  C8_8
REMARK    3  A    between atoms: C8_8  and  N1_9
REMARK    4  A    between atoms: C9_10  and  C10_12
REMARK    5  A    between atoms: C10_12  and  C11_13
REMARK    6  A    between atoms: C10_12  and  N3_19
REMARK    7  A    between atoms: C16_20  and  C17_22
REMARK    8  A    between atoms: C19_24  and  C20_27
REMARK                            x       y       z     vdW  Elec       q    Type
REMARK                         _______ _______ _______ _____ _____    ______ ____
ROOT
ATOM      1  C10 UNL     1      -0.189  -1.768  -0.529  0.00  0.00    +0.000 C 
ENDROOT
BRANCH   1   2
ATOM      2  C11 UNL     1      -0.537  -3.153  -0.028  0.00  0.00    +0.000 A 
ATOM      3  C12 UNL     1      -0.479  -3.513   1.324  0.00  0.00    +0.000 A 
ATOM      4  C13 UNL     1      -0.853  -4.794   1.720  0.00  0.00    +0.000 A 
ATOM      5  C14 UNL     1      -1.293  -5.678   0.750  0.00  0.00    +0.000 A 
ATOM      6  N2  UNL     1      -1.384  -5.366  -0.560  0.00  0.00    +0.000 NA
ATOM      7  C15 UNL     1      -1.001  -4.119  -0.918  0.00  0.00    +0.000 A 
ENDBRANCH   1   2
BRANCH   1   9
ATOM      8  N1  UNL     1       1.446   0.085  -0.392  0.00  0.00    +0.000 N 
ATOM      9  C9  UNL     1       1.169  -1.214   0.000  0.00  0.00    +0.000 C 
ATOM     10  O1  UNL     1       1.975  -1.879   0.647  0.00  0.00    +0.000 OA
ATOM     11  H10 UNL     1       0.871   0.494  -1.129  0.00  0.00    +0.000 HD
BRANCH   8  12
ATOM     12  C8  UNL     1       2.716   0.720  -0.093  0.00  0.00    +0.000 C 
BRANCH  12  13
ATOM     13  C7  UNL     1       3.813   0.305  -1.076  0.00  0.00    +0.000 C 
BRANCH  13  19
ATOM     14  C1  UNL     1       5.999   0.383   0.183  0.00  0.00    +0.000 A 
ATOM     15  C2  UNL     1       7.210   0.999   0.499  0.00  0.00    +0.000 A 
ATOM     16  C3  UNL     1       7.563   2.200  -0.112  0.00  0.00    +0.000 A 
ATOM     17  C4  UNL     1       6.704   2.788  -1.040  0.00  0.00    +0.000 A 
ATOM     18  C5  UNL     1       5.491   2.175  -1.357  0.00  0.00    +0.000 A 
ATOM     19  C6  UNL     1       5.130   0.964  -0.752  0.00  0.00    +0.000 A 
ENDBRANCH  13  19
ENDBRANCH  12  13
ENDBRANCH   8  12
ENDBRANCH   1   9
BRANCH   1  20
ATOM     20  N3  UNL     1      -1.299  -0.868  -0.214  0.00  0.00    +0.000 N 
ATOM     21  C16 UNL     1      -1.590   0.234  -0.990  0.00  0.00    +0.000 C 
ATOM     22  O2  UNL     1      -0.882   0.528  -1.953  0.00  0.00    +0.000 OA
ATOM     23  H16 UNL     1      -1.746  -0.984   0.683  0.00  0.00    +0.000 HD
BRANCH  21  24
ATOM     24  C17 UNL     1      -2.748   1.025  -0.558  0.00  0.00    +0.000 A 
ATOM     25  C18 UNL     1      -3.753   0.706   0.399  0.00  0.00    +0.000 A 
ATOM     26  C19 UNL     1      -4.591   1.794   0.404  0.00  0.00    +0.000 A 
ATOM     27  O3  UNL     1      -4.133   2.709  -0.486  0.00  0.00    +0.000 OA
ATOM     28  N4  UNL     1      -2.987   2.236  -1.088  0.00  0.00    +0.000 NA
BRANCH  26  29
ATOM     29  C20 UNL     1      -5.862   1.961   1.269  0.00  0.00    +0.000 C 
ATOM     30  C21 UNL     1      -6.325   3.400   1.519  0.00  0.00    +0.000 C 
ATOM     31  O4  UNL     1      -7.677   3.063   1.109  0.00  0.00    +0.000 OA
ATOM     32  C22 UNL     1      -7.187   1.835   0.510  0.00  0.00    +0.000 C 
ENDBRANCH  26  29
ENDBRANCH  21  24
ENDBRANCH   1  20
TORSDOF 8
