REMARK  Name = /home/anacleto/Desktop/manuscript_Mpro/naturecomm/supplementary_file_S2/6-chemical-library/molecular_docking/3D_ligand_structure/4290.pdb
REMARK  7 active torsions:
REMARK  status: ('A' for Active; 'I' for Inactive)
REMARK    1  A    between atoms: C6_6  and  C7_7
REMARK    2  A    between atoms: C7_7  and  N1_8
REMARK    3  A    between atoms: C8_9  and  C9_11
REMARK    4  A    between atoms: C9_11  and  N2_12
REMARK    5  A    between atoms: N2_12  and  C15_20
REMARK    6  A    between atoms: C10_13  and  C11_15
REMARK    7  A    between atoms: C20_25  and  C21_26
REMARK                            x       y       z     vdW  Elec       q    Type
REMARK                         _______ _______ _______ _____ _____    ______ ____
ROOT
ATOM      1  N2  UNL     1      -0.786   0.343   0.616  0.00  0.00    +0.000 N 
ATOM      2  C10 UNL     1      -0.590   1.745   0.495  0.00  0.00    +0.000 C 
ATOM      3  O2  UNL     1      -1.506   2.494   0.141  0.00  0.00    +0.000 OA
ENDROOT
BRANCH   1   4
ATOM      4  C15 UNL     1      -2.085  -0.242   0.378  0.00  0.00    +0.000 A 
ATOM      5  C16 UNL     1      -3.267   0.426   0.723  0.00  0.00    +0.000 A 
ATOM      6  C17 UNL     1      -4.526  -0.159   0.517  0.00  0.00    +0.000 A 
ATOM      7  C18 UNL     1      -2.212  -1.522  -0.182  0.00  0.00    +0.000 A 
ATOM      8  C19 UNL     1      -3.470  -2.107  -0.390  0.00  0.00    +0.000 A 
ATOM      9  C20 UNL     1      -4.647  -1.436  -0.042  0.00  0.00    +0.000 A 
BRANCH   9  10
ATOM     10  C21 UNL     1      -5.961  -2.037  -0.256  0.00  0.00    +0.000 A 
ATOM     11  C22 UNL     1      -7.264  -1.597  -0.109  0.00  0.00    +0.000 A 
ATOM     12  C23 UNL     1      -8.106  -2.673  -0.483  0.00  0.00    +0.000 A 
ATOM     13  C24 UNL     1      -7.271  -3.706  -0.833  0.00  0.00    +0.000 A 
ATOM     14  O4  UNL     1      -5.973  -3.333  -0.699  0.00  0.00    +0.000 OA
ENDBRANCH   9  10
ENDBRANCH   1   4
BRANCH   2  15
ATOM     15  C11 UNL     1       0.719   2.354   0.745  0.00  0.00    +0.000 A 
ATOM     16  C12 UNL     1       1.115   3.666   0.523  0.00  0.00    +0.000 A 
ATOM     17  C13 UNL     1       2.466   3.774   0.922  0.00  0.00    +0.000 A 
ATOM     18  C14 UNL     1       2.824   2.529   1.374  0.00  0.00    +0.000 A 
ATOM     19  O3  UNL     1       1.778   1.671   1.281  0.00  0.00    +0.000 OA
ENDBRANCH   2  15
BRANCH   1  20
ATOM     20  C9  UNL     1       0.304  -0.585   0.950  0.00  0.00    +0.000 C 
BRANCH  20  22
ATOM     21  N1  UNL     1       2.515  -1.274   0.178  0.00  0.00    +0.000 N 
ATOM     22  C8  UNL     1       1.263  -0.840  -0.220  0.00  0.00    +0.000 C 
ATOM     23  O1  UNL     1       0.934  -0.738  -1.398  0.00  0.00    +0.000 OA
ATOM     24  H8  UNL     1       2.797  -1.084   1.130  0.00  0.00    +0.000 HD
BRANCH  21  25
ATOM     25  C7  UNL     1       3.579  -1.468  -0.782  0.00  0.00    +0.000 C 
BRANCH  25  31
ATOM     26  C1  UNL     1       4.121   0.842  -1.640  0.00  0.00    +0.000 A 
ATOM     27  C2  UNL     1       4.936   1.974  -1.687  0.00  0.00    +0.000 A 
ATOM     28  C3  UNL     1       6.108   2.021  -0.936  0.00  0.00    +0.000 A 
ATOM     29  C4  UNL     1       6.466   0.938  -0.134  0.00  0.00    +0.000 A 
ATOM     30  C5  UNL     1       5.652  -0.195  -0.085  0.00  0.00    +0.000 A 
ATOM     31  C6  UNL     1       4.475  -0.258  -0.844  0.00  0.00    +0.000 A 
ENDBRANCH  25  31
ENDBRANCH  21  25
ENDBRANCH  20  22
ENDBRANCH   1  20
TORSDOF 7
