REMARK  Name = /home/anacleto/Desktop/manuscript_Mpro/naturecomm/supplementary_file_S2/6-chemical-library/molecular_docking/3D_ligand_structure/4302.pdb
REMARK  6 active torsions:
REMARK  status: ('A' for Active; 'I' for Inactive)
REMARK    1  A    between atoms: C5_6  and  C6_7
REMARK    2  A    between atoms: C6_7  and  N2_8
REMARK    3  A    between atoms: N2_8  and  C11_16
REMARK    4  A    between atoms: C7_9  and  C8_11
REMARK    5  A    between atoms: C14_19  and  S1_22
REMARK    6  A    between atoms: S1_22  and  C17_25
REMARK                            x       y       z     vdW  Elec       q    Type
REMARK                         _______ _______ _______ _____ _____    ______ ____
ROOT
ATOM      1  N2  UNL     1      -2.036  -0.561  -0.389  0.00  0.00    +0.000 N 
ATOM      2  C7  UNL     1      -2.859  -0.813  -1.517  0.00  0.00    +0.000 C 
ATOM      3  O1  UNL     1      -2.585  -0.379  -2.638  0.00  0.00    +0.000 OA
ENDROOT
BRANCH   1   4
ATOM      4  C11 UNL     1      -0.722   0.023  -0.552  0.00  0.00    +0.000 A 
ATOM      5  C12 UNL     1      -0.143   0.813   0.460  0.00  0.00    +0.000 A 
ATOM      6  C13 UNL     1       1.147   1.341   0.327  0.00  0.00    +0.000 A 
ATOM      7  C14 UNL     1       1.885   1.073  -0.824  0.00  0.00    +0.000 A 
ATOM      8  C15 UNL     1       1.333   0.313  -1.853  0.00  0.00    +0.000 A 
ATOM      9  C16 UNL     1       0.042  -0.210  -1.709  0.00  0.00    +0.000 A 
BRANCH   7  10
ATOM     10  S1  UNL     1       3.531   1.725  -1.006  0.00  0.00    +0.000 S 
ATOM     11  O3  UNL     1       3.647   2.184  -2.374  0.00  0.00    +0.000 OA
ATOM     12  O4  UNL     1       3.768   2.631   0.102  0.00  0.00    +0.000 OA
BRANCH  10  13
ATOM     13  C17 UNL     1       4.576   0.301  -0.806  0.00  0.00    +0.000 C 
ATOM     14  C18 UNL     1       4.441  -0.390   0.553  0.00  0.00    +0.000 C 
ATOM     15  C19 UNL     1       5.865  -0.693   1.021  0.00  0.00    +0.000 C 
ATOM     16  C20 UNL     1       6.744  -0.484  -0.201  0.00  0.00    +0.000 C 
ATOM     17  C21 UNL     1       6.057   0.653  -0.932  0.00  0.00    +0.000 C 
ENDBRANCH  10  13
ENDBRANCH   7  10
ENDBRANCH   1   4
BRANCH   2  18
ATOM     18  C8  UNL     1      -4.111  -1.572  -1.372  0.00  0.00    +0.000 A 
ATOM     19  C9  UNL     1      -5.022  -1.752  -2.397  0.00  0.00    +0.000 A 
ATOM     20  O2  UNL     1      -6.058  -2.504  -1.941  0.00  0.00    +0.000 OA
ATOM     21  C10 UNL     1      -5.725  -2.759  -0.649  0.00  0.00    +0.000 A 
ATOM     22  N3  UNL     1      -4.579  -2.245  -0.260  0.00  0.00    +0.000 NA
ENDBRANCH   2  18
BRANCH   1  23
ATOM     23  C6  UNL     1      -2.478  -0.850   0.989  0.00  0.00    +0.000 C 
BRANCH  23  29
ATOM     24  C1  UNL     1      -4.115  -0.223   2.772  0.00  0.00    +0.000 A 
ATOM     25  N1  UNL     1      -4.986   0.573   3.435  0.00  0.00    +0.000 NA
ATOM     26  C2  UNL     1      -5.265   1.765   2.866  0.00  0.00    +0.000 A 
ATOM     27  C3  UNL     1      -4.710   2.192   1.674  0.00  0.00    +0.000 A 
ATOM     28  C4  UNL     1      -3.808   1.356   1.018  0.00  0.00    +0.000 A 
ATOM     29  C5  UNL     1      -3.495   0.108   1.567  0.00  0.00    +0.000 A 
ENDBRANCH  23  29
ENDBRANCH   1  23
TORSDOF 6
