REMARK  Name = /home/anacleto/Desktop/manuscript_Mpro/naturecomm/supplementary_file_S2/6-chemical-library/molecular_docking/3D_ligand_structure/4305.pdb
REMARK  5 active torsions:
REMARK  status: ('A' for Active; 'I' for Inactive)
REMARK    1  A    between atoms: C6_6  and  N1_7
REMARK    2  A    between atoms: N1_7  and  C11_15
REMARK    3  A    between atoms: C7_8  and  C8_10
REMARK    4  A    between atoms: C11_15  and  C12_16
REMARK    5  A    between atoms: C13_17  and  N5_24
REMARK                            x       y       z     vdW  Elec       q    Type
REMARK                         _______ _______ _______ _____ _____    ______ ____
ROOT
ATOM      1  C12 UNL     1      -0.425  -1.481  -1.222  0.00  0.00    +0.000 A 
ATOM      2  C13 UNL     1      -1.326  -1.541  -0.218  0.00  0.00    +0.000 A 
ATOM      3  N3  UNL     1      -1.600  -2.756   0.349  0.00  0.00    +0.000 N 
ATOM      4  C14 UNL     1      -1.018  -3.937   0.011  0.00  0.00    +0.000 A 
ATOM      5  O3  UNL     1      -1.340  -4.996   0.540  0.00  0.00    +0.000 OA
ATOM      6  N4  UNL     1      -0.081  -3.872  -0.968  0.00  0.00    +0.000 N 
ATOM      7  C15 UNL     1       0.157  -2.760  -1.717  0.00  0.00    +0.000 A 
ATOM      8  O4  UNL     1       0.806  -2.824  -2.757  0.00  0.00    +0.000 OA
ATOM      9  H10 UNL     1      -2.303  -2.805   1.072  0.00  0.00    +0.000 HD
ATOM     10  H11 UNL     1       0.294  -4.746  -1.301  0.00  0.00    +0.000 HD
ENDROOT
BRANCH   2  11
ATOM     11  N5  UNL     1      -2.002  -0.428   0.265  0.00  0.00    +0.000 N 
ATOM     12  C16 UNL     1      -2.032  -0.109   1.709  0.00  0.00    +0.000 C 
ATOM     13  C17 UNL     1      -2.749   1.227   1.945  0.00  0.00    +0.000 C 
ATOM     14  O5  UNL     1      -4.124   1.202   1.534  0.00  0.00    +0.000 OA
ATOM     15  C18 UNL     1      -4.362   0.340   0.410  0.00  0.00    +0.000 C 
ATOM     16  C19 UNL     1      -3.137   0.150  -0.498  0.00  0.00    +0.000 C 
ENDBRANCH   2  11
BRANCH   1  17
ATOM     17  C11 UNL     1       0.053  -0.231  -1.919  0.00  0.00    +0.000 C 
BRANCH  17  18
ATOM     18  N1  UNL     1       0.847   0.647  -1.039  0.00  0.00    +0.000 N 
ATOM     19  C7  UNL     1       0.414   1.980  -0.902  0.00  0.00    +0.000 C 
ATOM     20  O1  UNL     1      -0.715   2.339  -1.245  0.00  0.00    +0.000 OA
BRANCH  18  26
ATOM     21  C1  UNL     1       2.158   0.370   1.027  0.00  0.00    +0.000 A 
ATOM     22  C2  UNL     1       3.200  -0.231   1.739  0.00  0.00    +0.000 A 
ATOM     23  C3  UNL     1       4.047  -1.135   1.106  0.00  0.00    +0.000 A 
ATOM     24  C4  UNL     1       3.853  -1.440  -0.238  0.00  0.00    +0.000 A 
ATOM     25  C5  UNL     1       2.811  -0.840  -0.950  0.00  0.00    +0.000 A 
ATOM     26  C6  UNL     1       1.954   0.080  -0.330  0.00  0.00    +0.000 A 
ENDBRANCH  18  26
BRANCH  19  27
ATOM     27  C8  UNL     1       1.356   3.000  -0.426  0.00  0.00    +0.000 A 
ATOM     28  C9  UNL     1       0.992   4.244   0.047  0.00  0.00    +0.000 A 
ATOM     29  O2  UNL     1       2.121   4.938   0.358  0.00  0.00    +0.000 OA
ATOM     30  C10 UNL     1       3.127   4.084   0.030  0.00  0.00    +0.000 A 
ATOM     31  N2  UNL     1       2.739   2.925  -0.449  0.00  0.00    +0.000 NA
ENDBRANCH  19  27
ENDBRANCH  17  18
ENDBRANCH   1  17
TORSDOF 5
