REMARK  Name = /home/anacleto/Desktop/manuscript_Mpro/naturecomm/supplementary_file_S2/6-chemical-library/molecular_docking/3D_ligand_structure/4328.pdb
REMARK  5 active torsions:
REMARK  status: ('A' for Active; 'I' for Inactive)
REMARK    1  A    between atoms: C6_6  and  N1_7
REMARK    2  A    between atoms: N1_7  and  C7_8
REMARK    3  A    between atoms: C7_8  and  C8_9
REMARK    4  A    between atoms: C7_8  and  C13_15
REMARK    5  A    between atoms: C18_22  and  C19_23
REMARK                            x       y       z     vdW  Elec       q    Type
REMARK                         _______ _______ _______ _____ _____    ______ ____
ROOT
ATOM      1  C7  UNL     1      -2.003  -0.449  -0.506  0.00  0.00    +0.000 C 
ENDROOT
BRANCH   1   2
ATOM      2  C13 UNL     1      -0.910   0.044   0.498  0.00  0.00    +0.000 C 
ATOM      3  O1  UNL     1      -1.199   0.481   1.618  0.00  0.00    +0.000 OA
ATOM      4  N3  UNL     1       0.426   0.028   0.072  0.00  0.00    +0.000 N 
ATOM      5  C14 UNL     1       0.929  -0.820  -1.009  0.00  0.00    +0.000 C 
ATOM      6  C15 UNL     1       2.411  -1.149  -0.864  0.00  0.00    +0.000 C 
ATOM      7  C16 UNL     1       1.423   0.679   0.921  0.00  0.00    +0.000 C 
ATOM      8  C17 UNL     1       2.596   1.214   0.102  0.00  0.00    +0.000 C 
ATOM      9  C18 UNL     1       3.261   0.127  -0.766  0.00  0.00    +0.000 C 
BRANCH   9  10
ATOM     10  C19 UNL     1       4.677  -0.213  -0.328  0.00  0.00    +0.000 A 
ATOM     11  C20 UNL     1       5.715  -0.205  -1.273  0.00  0.00    +0.000 A 
ATOM     12  C21 UNL     1       7.026  -0.514  -0.901  0.00  0.00    +0.000 A 
ATOM     13  C22 UNL     1       7.317  -0.842   0.420  0.00  0.00    +0.000 A 
ATOM     14  C23 UNL     1       6.297  -0.863   1.369  0.00  0.00    +0.000 A 
ATOM     15  C24 UNL     1       4.984  -0.556   0.998  0.00  0.00    +0.000 A 
ENDBRANCH   9  10
ENDBRANCH   1   2
BRANCH   1  16
ATOM     16  C8  UNL     1      -2.989  -1.476   0.028  0.00  0.00    +0.000 A 
ATOM     17  C9  UNL     1      -2.752  -2.243   1.177  0.00  0.00    +0.000 A 
ATOM     18  C10 UNL     1      -3.663  -3.223   1.569  0.00  0.00    +0.000 A 
ATOM     19  C11 UNL     1      -4.785  -3.428   0.787  0.00  0.00    +0.000 A 
ATOM     20  N2  UNL     1      -5.045  -2.733  -0.338  0.00  0.00    +0.000 NA
ATOM     21  C12 UNL     1      -4.150  -1.773  -0.684  0.00  0.00    +0.000 A 
ENDBRANCH   1  16
BRANCH   1  22
ATOM     22  N1  UNL     1      -2.630   0.700  -1.206  0.00  0.00    +0.000 N 
ATOM     23  H6  UNL     1      -1.966   1.139  -1.844  0.00  0.00    +0.000 HD
BRANCH  22  29
ATOM     24  C1  UNL     1      -3.990   1.569   0.677  0.00  0.00    +0.000 A 
ATOM     25  C2  UNL     1      -4.822   2.573   1.193  0.00  0.00    +0.000 A 
ATOM     26  C3  UNL     1      -5.105   3.709   0.440  0.00  0.00    +0.000 A 
ATOM     27  C4  UNL     1      -4.562   3.836  -0.834  0.00  0.00    +0.000 A 
ATOM     28  C5  UNL     1      -3.731   2.829  -1.341  0.00  0.00    +0.000 A 
ATOM     29  C6  UNL     1      -3.403   1.687  -0.586  0.00  0.00    +0.000 A 
ENDBRANCH  22  29
ENDBRANCH   1  22
TORSDOF 5
