REMARK  Name = /home/anacleto/Desktop/manuscript_Mpro/naturecomm/supplementary_file_S2/6-chemical-library/molecular_docking/3D_ligand_structure/4340.pdb
REMARK  6 active torsions:
REMARK  status: ('A' for Active; 'I' for Inactive)
REMARK    1  A    between atoms: C5_6  and  C6_7
REMARK    2  A    between atoms: C6_7  and  N2_8
REMARK    3  A    between atoms: N2_8  and  C11_16
REMARK    4  A    between atoms: C7_9  and  C8_11
REMARK    5  A    between atoms: C14_19  and  O2_22
REMARK    6  A    between atoms: O2_22  and  C17_23
REMARK                            x       y       z     vdW  Elec       q    Type
REMARK                         _______ _______ _______ _____ _____    ______ ____
ROOT
ATOM      1  N2  UNL     1      -1.438   0.934  -0.314  0.00  0.00    +0.000 N 
ATOM      2  C7  UNL     1      -2.037   1.663   0.741  0.00  0.00    +0.000 C 
ATOM      3  O1  UNL     1      -1.427   2.054   1.734  0.00  0.00    +0.000 OA
ENDROOT
BRANCH   2   4
ATOM      4  C8  UNL     1      -3.447   1.963   0.654  0.00  0.00    +0.000 A 
ATOM      5  C9  UNL     1      -4.217   2.559  -0.324  0.00  0.00    +0.000 A 
ATOM      6  N3  UNL     1      -5.533   2.634   0.055  0.00  0.00    +0.000 NA
ATOM      7  C10 UNL     1      -5.563   2.166   1.281  0.00  0.00    +0.000 A 
ATOM      8  N4  UNL     1      -4.323   1.782   1.699  0.00  0.00    +0.000 N 
ATOM      9  H9  UNL     1      -4.080   1.414   2.609  0.00  0.00    +0.000 HD
ENDBRANCH   2   4
BRANCH   1  10
ATOM     10  C11 UNL     1      -0.012   0.723  -0.358  0.00  0.00    +0.000 A 
ATOM     11  C12 UNL     1       0.758   0.580   0.804  0.00  0.00    +0.000 A 
ATOM     12  C13 UNL     1       2.143   0.363   0.745  0.00  0.00    +0.000 A 
ATOM     13  C14 UNL     1       2.792   0.293  -0.482  0.00  0.00    +0.000 A 
ATOM     14  C15 UNL     1       2.040   0.435  -1.647  0.00  0.00    +0.000 A 
ATOM     15  C16 UNL     1       0.658   0.649  -1.587  0.00  0.00    +0.000 A 
BRANCH  13  16
ATOM     16  O2  UNL     1       4.126   0.086  -0.688  0.00  0.00    +0.000 OA
BRANCH  16  17
ATOM     17  C17 UNL     1       4.992   0.036   0.453  0.00  0.00    +0.000 C 
ATOM     18  C18 UNL     1       6.411   0.211  -0.048  0.00  0.00    +0.000 C 
ATOM     19  C19 UNL     1       6.757  -1.187  -0.513  0.00  0.00    +0.000 C 
ATOM     20  O3  UNL     1       6.111  -2.084   0.396  0.00  0.00    +0.000 OA
ATOM     21  C20 UNL     1       5.049  -1.366   1.053  0.00  0.00    +0.000 C 
ENDBRANCH  16  17
ENDBRANCH  13  16
ENDBRANCH   1  10
BRANCH   1  22
ATOM     22  C6  UNL     1      -2.250   0.208  -1.315  0.00  0.00    +0.000 C 
BRANCH  22  28
ATOM     23  C1  UNL     1      -2.456  -1.932   0.021  0.00  0.00    +0.000 A 
ATOM     24  N1  UNL     1      -3.123  -2.970   0.575  0.00  0.00    +0.000 NA
ATOM     25  C2  UNL     1      -4.457  -3.013   0.375  0.00  0.00    +0.000 A 
ATOM     26  C3  UNL     1      -5.155  -2.065  -0.353  0.00  0.00    +0.000 A 
ATOM     27  C4  UNL     1      -4.443  -1.006  -0.910  0.00  0.00    +0.000 A 
ATOM     28  C5  UNL     1      -3.061  -0.918  -0.717  0.00  0.00    +0.000 A 
ENDBRANCH  22  28
ENDBRANCH   1  22
TORSDOF 6
