REMARK  Name = /home/anacleto/Desktop/manuscript_Mpro/naturecomm/supplementary_file_S2/6-chemical-library/molecular_docking/3D_ligand_structure/4347.pdb
REMARK  5 active torsions:
REMARK  status: ('A' for Active; 'I' for Inactive)
REMARK    1  A    between atoms: C5_6  and  C6_7
REMARK    2  A    between atoms: C6_7  and  N2_8
REMARK    3  A    between atoms: N2_8  and  C11_16
REMARK    4  A    between atoms: C7_9  and  C8_11
REMARK    5  A    between atoms: C14_19  and  N4_22
REMARK                            x       y       z     vdW  Elec       q    Type
REMARK                         _______ _______ _______ _____ _____    ______ ____
ROOT
ATOM      1  N2  UNL     1      -1.147  -0.264   1.450  0.00  0.00    +0.000 N 
ATOM      2  C7  UNL     1      -1.613   0.742   2.318  0.00  0.00    +0.000 C 
ATOM      3  O1  UNL     1      -2.301   0.484   3.307  0.00  0.00    +0.000 OA
ENDROOT
BRANCH   1   4
ATOM      4  C11 UNL     1       0.101  -0.215   0.742  0.00  0.00    +0.000 A 
ATOM      5  C12 UNL     1       1.178   0.542   1.211  0.00  0.00    +0.000 A 
ATOM      6  C13 UNL     1       2.410   0.561   0.536  0.00  0.00    +0.000 A 
ATOM      7  C14 UNL     1       2.617  -0.183  -0.630  0.00  0.00    +0.000 A 
ATOM      8  C15 UNL     1       1.541  -0.955  -1.089  0.00  0.00    +0.000 A 
ATOM      9  C16 UNL     1       0.310  -0.978  -0.412  0.00  0.00    +0.000 A 
BRANCH   7  10
ATOM     10  N4  UNL     1       3.859  -0.170  -1.325  0.00  0.00    +0.000 N 
ATOM     11  C17 UNL     1       5.023   0.579  -0.940  0.00  0.00    +0.000 A 
ATOM     12  O3  UNL     1       5.230   1.329  -0.002  0.00  0.00    +0.000 OA
ATOM     13  C18 UNL     1       4.186  -0.861  -2.487  0.00  0.00    +0.000 A 
ATOM     14  C19 UNL     1       5.450  -0.594  -2.838  0.00  0.00    +0.000 A 
ATOM     15  N5  UNL     1       5.981   0.269  -1.926  0.00  0.00    +0.000 N 
ATOM     16  H15 UNL     1       6.913   0.654  -1.919  0.00  0.00    +0.000 HD
ENDBRANCH   7  10
ENDBRANCH   1   4
BRANCH   2  17
ATOM     17  C8  UNL     1      -1.365   2.140   1.955  0.00  0.00    +0.000 A 
ATOM     18  C9  UNL     1      -1.514   3.218   2.802  0.00  0.00    +0.000 A 
ATOM     19  O2  UNL     1      -1.231   4.355   2.109  0.00  0.00    +0.000 OA
ATOM     20  C10 UNL     1      -0.941   3.909   0.857  0.00  0.00    +0.000 A 
ATOM     21  N3  UNL     1      -1.020   2.608   0.696  0.00  0.00    +0.000 NA
ENDBRANCH   2  17
BRANCH   1  22
ATOM     22  C6  UNL     1      -1.901  -1.520   1.447  0.00  0.00    +0.000 C 
BRANCH  22  28
ATOM     23  C1  UNL     1      -3.598  -2.851   0.178  0.00  0.00    +0.000 A 
ATOM     24  N1  UNL     1      -4.568  -3.073  -0.738  0.00  0.00    +0.000 NA
ATOM     25  C2  UNL     1      -4.949  -2.016  -1.484  0.00  0.00    +0.000 A 
ATOM     26  C3  UNL     1      -4.400  -0.752  -1.359  0.00  0.00    +0.000 A 
ATOM     27  C4  UNL     1      -3.399  -0.555  -0.411  0.00  0.00    +0.000 A 
ATOM     28  C5  UNL     1      -2.970  -1.623   0.383  0.00  0.00    +0.000 A 
ENDBRANCH  22  28
ENDBRANCH   1  22
TORSDOF 5
