REMARK  Name = /home/anacleto/Desktop/manuscript_Mpro/naturecomm/supplementary_file_S2/6-chemical-library/molecular_docking/3D_ligand_structure/4367.pdb
REMARK  6 active torsions:
REMARK  status: ('A' for Active; 'I' for Inactive)
REMARK    1  A    between atoms: C5_6  and  C6_7
REMARK    2  A    between atoms: C6_7  and  N2_8
REMARK    3  A    between atoms: N2_8  and  C11_16
REMARK    4  A    between atoms: C7_9  and  C8_11
REMARK    5  A    between atoms: C13_18  and  O3_20
REMARK    6  A    between atoms: O3_20  and  C15_21
REMARK                            x       y       z     vdW  Elec       q    Type
REMARK                         _______ _______ _______ _____ _____    ______ ____
ROOT
ATOM      1  N2  UNL     1      -1.253   1.262  -0.271  0.00  0.00    +0.000 N 
ATOM      2  C7  UNL     1      -2.001   2.156  -1.063  0.00  0.00    +0.000 C 
ATOM      3  O1  UNL     1      -1.482   2.731  -2.022  0.00  0.00    +0.000 OA
ENDROOT
BRANCH   2   4
ATOM      4  C8  UNL     1      -3.416   2.391  -0.767  0.00  0.00    +0.000 A 
ATOM      5  C9  UNL     1      -4.194   3.352  -1.380  0.00  0.00    +0.000 A 
ATOM      6  O2  UNL     1      -5.462   3.261  -0.895  0.00  0.00    +0.000 OA
ATOM      7  C10 UNL     1      -5.397   2.231  -0.011  0.00  0.00    +0.000 A 
ATOM      8  N3  UNL     1      -4.213   1.677   0.111  0.00  0.00    +0.000 NA
ENDBRANCH   2   4
BRANCH   1   9
ATOM      9  C11 UNL     1       0.173   1.009  -0.673  0.00  0.00    +0.000 C 
ATOM     10  C12 UNL     1       0.842  -0.291  -0.160  0.00  0.00    +0.000 C 
ATOM     11  C13 UNL     1       1.542  -0.402  -1.537  0.00  0.00    +0.000 C 
ATOM     12  C14 UNL     1       0.366   0.433  -2.098  0.00  0.00    +0.000 C 
BRANCH  11  13
ATOM     13  O3  UNL     1       2.840   0.221  -1.661  0.00  0.00    +0.000 OA
BRANCH  13  14
ATOM     14  C15 UNL     1       3.937  -0.403  -1.119  0.00  0.00    +0.000 A 
ATOM     15  C16 UNL     1       3.933  -1.662  -0.519  0.00  0.00    +0.000 A 
ATOM     16  C17 UNL     1       5.119  -2.191  -0.001  0.00  0.00    +0.000 A 
ATOM     17  C18 UNL     1       6.307  -1.467  -0.084  0.00  0.00    +0.000 A 
ATOM     18  C19 UNL     1       6.313  -0.212  -0.687  0.00  0.00    +0.000 A 
ATOM     19  C20 UNL     1       5.130   0.318  -1.203  0.00  0.00    +0.000 A 
ENDBRANCH  13  14
ENDBRANCH  11  13
ENDBRANCH   1   9
BRANCH   1  20
ATOM     20  C6  UNL     1      -1.624   0.943   1.115  0.00  0.00    +0.000 C 
BRANCH  20  26
ATOM     21  C1  UNL     1      -2.818  -1.181   0.366  0.00  0.00    +0.000 A 
ATOM     22  N1  UNL     1      -3.289  -2.439   0.539  0.00  0.00    +0.000 NA
ATOM     23  C2  UNL     1      -3.091  -3.002   1.748  0.00  0.00    +0.000 A 
ATOM     24  C3  UNL     1      -2.444  -2.366   2.793  0.00  0.00    +0.000 A 
ATOM     25  C4  UNL     1      -1.963  -1.076   2.583  0.00  0.00    +0.000 A 
ATOM     26  C5  UNL     1      -2.132  -0.458   1.337  0.00  0.00    +0.000 A 
ENDBRANCH  20  26
ENDBRANCH   1  20
TORSDOF 6
