REMARK  Name = /home/anacleto/Desktop/manuscript_Mpro/naturecomm/supplementary_file_S2/6-chemical-library/molecular_docking/3D_ligand_structure/4370.pdb
REMARK  5 active torsions:
REMARK  status: ('A' for Active; 'I' for Inactive)
REMARK    1  A    between atoms: C5_6  and  C6_7
REMARK    2  A    between atoms: C6_7  and  N2_8
REMARK    3  A    between atoms: N2_8  and  C11_16
REMARK    4  A    between atoms: C7_9  and  C8_11
REMARK    5  A    between atoms: C14_19  and  N4_22
REMARK                            x       y       z     vdW  Elec       q    Type
REMARK                         _______ _______ _______ _____ _____    ______ ____
ROOT
ATOM      1  N2  UNL     1      -1.007   0.372  -1.038  0.00  0.00    +0.000 N 
ATOM      2  C7  UNL     1      -1.600   1.633  -1.258  0.00  0.00    +0.000 C 
ATOM      3  O1  UNL     1      -2.507   1.786  -2.076  0.00  0.00    +0.000 OA
ENDROOT
BRANCH   1   4
ATOM      4  C11 UNL     1       0.361   0.197  -0.647  0.00  0.00    +0.000 A 
ATOM      5  C12 UNL     1       1.345   1.131  -1.007  0.00  0.00    +0.000 A 
ATOM      6  C13 UNL     1       2.683   0.952  -0.637  0.00  0.00    +0.000 A 
ATOM      7  C14 UNL     1       3.060  -0.176   0.099  0.00  0.00    +0.000 A 
ATOM      8  C15 UNL     1       2.093  -1.122   0.454  0.00  0.00    +0.000 A 
ATOM      9  C16 UNL     1       0.757  -0.935   0.077  0.00  0.00    +0.000 A 
BRANCH   7  10
ATOM     10  N4  UNL     1       4.410  -0.363   0.479  0.00  0.00    +0.000 N 
ATOM     11  N5  UNL     1       4.839  -1.440   1.191  0.00  0.00    +0.000 NA
ATOM     12  C17 UNL     1       6.140  -1.158   1.290  0.00  0.00    +0.000 A 
ATOM     13  N6  UNL     1       6.506   0.003   0.687  0.00  0.00    +0.000 NA
ATOM     14  N7  UNL     1       5.399   0.513   0.167  0.00  0.00    +0.000 NA
ENDBRANCH   7  10
ENDBRANCH   1   4
BRANCH   2  15
ATOM     15  C8  UNL     1      -1.190   2.743  -0.393  0.00  0.00    +0.000 A 
ATOM     16  C9  UNL     1      -0.858   2.687   0.945  0.00  0.00    +0.000 A 
ATOM     17  O2  UNL     1      -0.578   3.949   1.374  0.00  0.00    +0.000 OA
ATOM     18  C10 UNL     1      -0.774   4.719   0.270  0.00  0.00    +0.000 A 
ATOM     19  N3  UNL     1      -1.138   4.064  -0.808  0.00  0.00    +0.000 NA
ENDBRANCH   2  15
BRANCH   1  20
ATOM     20  C6  UNL     1      -1.721  -0.797  -1.575  0.00  0.00    +0.000 C 
BRANCH  20  26
ATOM     21  C1  UNL     1      -3.731  -0.753  -0.036  0.00  0.00    +0.000 A 
ATOM     22  N1  UNL     1      -4.597  -1.279   0.861  0.00  0.00    +0.000 NA
ATOM     23  C2  UNL     1      -4.399  -2.564   1.220  0.00  0.00    +0.000 A 
ATOM     24  C3  UNL     1      -3.373  -3.348   0.723  0.00  0.00    +0.000 A 
ATOM     25  C4  UNL     1      -2.492  -2.779  -0.192  0.00  0.00    +0.000 A 
ATOM     26  C5  UNL     1      -2.652  -1.443  -0.579  0.00  0.00    +0.000 A 
ENDBRANCH  20  26
ENDBRANCH   1  20
TORSDOF 5
