REMARK  Name = /home/anacleto/Desktop/manuscript_Mpro/naturecomm/supplementary_file_S2/6-chemical-library/molecular_docking/3D_ligand_structure/4372.pdb
REMARK  6 active torsions:
REMARK  status: ('A' for Active; 'I' for Inactive)
REMARK    1  A    between atoms: C5_6  and  C6_7
REMARK    2  A    between atoms: C6_7  and  N2_8
REMARK    3  A    between atoms: N2_8  and  C12_16
REMARK    4  A    between atoms: C7_9  and  C8_11
REMARK    5  A    between atoms: C12_16  and  C13_17
REMARK    6  A    between atoms: C14_18  and  C15_19
REMARK                            x       y       z     vdW  Elec       q    Type
REMARK                         _______ _______ _______ _____ _____    ______ ____
ROOT
ATOM      1  N2  UNL     1      -0.502   1.281   0.384  0.00  0.00    +0.000 N 
ATOM      2  C7  UNL     1      -1.282   2.322  -0.149  0.00  0.00    +0.000 C 
ATOM      3  O1  UNL     1      -0.841   3.001  -1.082  0.00  0.00    +0.000 OA
ENDROOT
BRANCH   2   4
ATOM      4  C8  UNL     1      -2.612   2.610   0.365  0.00  0.00    +0.000 A 
ATOM      5  C9  UNL     1      -3.671   3.253  -0.257  0.00  0.00    +0.000 A 
ATOM      6  C10 UNL     1      -4.722   3.335   0.685  0.00  0.00    +0.000 A 
ATOM      7  C11 UNL     1      -4.242   2.763   1.837  0.00  0.00    +0.000 A 
ATOM      8  O2  UNL     1      -2.968   2.332   1.657  0.00  0.00    +0.000 OA
ENDBRANCH   2   4
BRANCH   1   9
ATOM      9  C6  UNL     1      -0.956   0.264   1.342  0.00  0.00    +0.000 C 
BRANCH   9  15
ATOM     10  C1  UNL     1      -2.954  -0.921   0.335  0.00  0.00    +0.000 A 
ATOM     11  N1  UNL     1      -3.601  -1.967  -0.232  0.00  0.00    +0.000 NA
ATOM     12  C2  UNL     1      -2.878  -3.087  -0.439  0.00  0.00    +0.000 A 
ATOM     13  C3  UNL     1      -1.545  -3.214  -0.092  0.00  0.00    +0.000 A 
ATOM     14  C4  UNL     1      -0.911  -2.124   0.498  0.00  0.00    +0.000 A 
ATOM     15  C5  UNL     1      -1.616  -0.935   0.716  0.00  0.00    +0.000 A 
ENDBRANCH   9  15
ENDBRANCH   1   9
BRANCH   1  16
ATOM     16  C12 UNL     1       0.886   1.172  -0.092  0.00  0.00    +0.000 C 
BRANCH  16  17
ATOM     17  C13 UNL     1       1.155   0.055  -1.085  0.00  0.00    +0.000 A 
ATOM     18  C14 UNL     1       2.307  -0.782  -1.013  0.00  0.00    +0.000 A 
ATOM     19  C19 UNL     1       2.412  -1.780  -2.019  0.00  0.00    +0.000 A 
ATOM     20  C20 UNL     1       1.483  -1.939  -3.047  0.00  0.00    +0.000 A 
ATOM     21  C21 UNL     1       0.398  -1.087  -3.121  0.00  0.00    +0.000 A 
ATOM     22  C22 UNL     1       0.244  -0.096  -2.158  0.00  0.00    +0.000 A 
BRANCH  18  23
ATOM     23  C15 UNL     1       3.494  -0.712   0.062  0.00  0.00    +0.000 C 
ATOM     24  C16 UNL     1       3.216  -0.915   1.571  0.00  0.00    +0.000 C 
ATOM     25  C17 UNL     1       4.373   0.064   1.854  0.00  0.00    +0.000 C 
ATOM     26  C18 UNL     1       4.181   0.627   0.431  0.00  0.00    +0.000 C 
ENDBRANCH  18  23
ENDBRANCH  16  17
ENDBRANCH   1  16
TORSDOF 6
