REMARK  Name = /home/anacleto/Desktop/manuscript_Mpro/naturecomm/supplementary_file_S2/6-chemical-library/molecular_docking/3D_ligand_structure/4374.pdb
REMARK  5 active torsions:
REMARK  status: ('A' for Active; 'I' for Inactive)
REMARK    1  A    between atoms: C5_6  and  C6_7
REMARK    2  A    between atoms: C6_7  and  N2_8
REMARK    3  A    between atoms: N2_8  and  C11_16
REMARK    4  A    between atoms: C7_9  and  C8_11
REMARK    5  A    between atoms: C14_19  and  N4_22
REMARK                            x       y       z     vdW  Elec       q    Type
REMARK                         _______ _______ _______ _____ _____    ______ ____
ROOT
ATOM      1  N2  UNL     1      -0.390   0.934   0.204  0.00  0.00    +0.000 N 
ATOM      2  C7  UNL     1      -0.819   1.504   1.429  0.00  0.00    +0.000 C 
ATOM      3  O1  UNL     1      -0.126   1.498   2.449  0.00  0.00    +0.000 OA
ENDROOT
BRANCH   1   4
ATOM      4  C11 UNL     1       0.923   0.346   0.096  0.00  0.00    +0.000 A 
ATOM      5  C12 UNL     1       1.664   0.457  -1.091  0.00  0.00    +0.000 A 
ATOM      6  C13 UNL     1       2.935  -0.124  -1.220  0.00  0.00    +0.000 A 
ATOM      7  C14 UNL     1       3.492  -0.834  -0.153  0.00  0.00    +0.000 A 
ATOM      8  C15 UNL     1       2.768  -0.950   1.038  0.00  0.00    +0.000 A 
ATOM      9  C16 UNL     1       1.501  -0.363   1.157  0.00  0.00    +0.000 A 
BRANCH   7  10
ATOM     10  N4  UNL     1       4.775  -1.433  -0.257  0.00  0.00    +0.000 N 
ATOM     11  C17 UNL     1       5.645  -1.434  -1.325  0.00  0.00    +0.000 A 
ATOM     12  C18 UNL     1       6.729  -2.156  -0.891  0.00  0.00    +0.000 A 
ATOM     13  N5  UNL     1       6.517  -2.572   0.386  0.00  0.00    +0.000 NA
ATOM     14  N6  UNL     1       5.327  -2.130   0.767  0.00  0.00    +0.000 NA
ENDBRANCH   7  10
ENDBRANCH   1   4
BRANCH   2  15
ATOM     15  C8  UNL     1      -2.128   2.168   1.507  0.00  0.00    +0.000 A 
ATOM     16  C9  UNL     1      -2.802   2.403   2.689  0.00  0.00    +0.000 A 
ATOM     17  O2  UNL     1      -3.948   3.081   2.412  0.00  0.00    +0.000 OA
ATOM     18  C10 UNL     1      -3.907   3.246   1.065  0.00  0.00    +0.000 A 
ATOM     19  N3  UNL     1      -2.853   2.735   0.470  0.00  0.00    +0.000 NA
ENDBRANCH   2  15
BRANCH   1  20
ATOM     20  C6  UNL     1      -1.274   0.817  -0.972  0.00  0.00    +0.000 C 
BRANCH  20  26
ATOM     21  C1  UNL     1      -2.142  -1.475  -0.316  0.00  0.00    +0.000 A 
ATOM     22  N1  UNL     1      -3.093  -2.427  -0.171  0.00  0.00    +0.000 NA
ATOM     23  C2  UNL     1      -4.349  -2.092  -0.530  0.00  0.00    +0.000 A 
ATOM     24  C3  UNL     1      -4.698  -0.852  -1.035  0.00  0.00    +0.000 A 
ATOM     25  C4  UNL     1      -3.699   0.106  -1.176  0.00  0.00    +0.000 A 
ATOM     26  C5  UNL     1      -2.386  -0.191  -0.795  0.00  0.00    +0.000 A 
ENDBRANCH  20  26
ENDBRANCH   1  20
TORSDOF 5
