REMARK  Name = /home/anacleto/Desktop/manuscript_Mpro/naturecomm/supplementary_file_S2/6-chemical-library/molecular_docking/3D_ligand_structure/438.pdb
REMARK  6 active torsions:
REMARK  status: ('A' for Active; 'I' for Inactive)
REMARK    1  A    between atoms: C3_6  and  C4_7
REMARK    2  A    between atoms: N3_9  and  C5_10
REMARK    3  A    between atoms: C5_10  and  C6_11
REMARK    4  A    between atoms: N4_13  and  C7_14
REMARK    5  A    between atoms: C7_14  and  C8_15
REMARK    6  A    between atoms: C8_15  and  C9_16
REMARK                            x       y       z     vdW  Elec       q    Type
REMARK                         _______ _______ _______ _____ _____    ______ ____
ROOT
ATOM      1  C5  UNL     1      -1.725  -1.196   1.922  0.00  0.00    +0.000 C 
ENDROOT
BRANCH   1   4
ATOM      2  C4  UNL     1      -3.669  -1.493   0.467  0.00  0.00    +0.000 C 
ATOM      3  O2  UNL     1      -3.505  -2.693   0.293  0.00  0.00    +0.000 OA
ATOM      4  N3  UNL     1      -2.998  -0.743   1.403  0.00  0.00    +0.000 N 
ATOM      5  H4  UNL     1      -3.137   0.261   1.367  0.00  0.00    +0.000 HD
BRANCH   2  11
ATOM      6  N1  UNL     1      -4.474   0.703  -0.498  0.00  0.00    +0.000 N 
ATOM      7  N2  UNL     1      -5.378   1.050  -1.514  0.00  0.00    +0.000 N 
ATOM      8  C1  UNL     1      -6.163  -0.057  -1.803  0.00  0.00    +0.000 A 
ATOM      9  O1  UNL     1      -7.179  -0.087  -2.472  0.00  0.00    +0.000 OA
ATOM     10  C2  UNL     1      -5.565  -1.215  -1.116  0.00  0.00    +0.000 A 
ATOM     11  C3  UNL     1      -4.595  -0.680  -0.366  0.00  0.00    +0.000 A 
ATOM     12  H1  UNL     1      -3.501   0.952  -0.722  0.00  0.00    +0.000 HD
ATOM     13  H2  UNL     1      -5.794   1.975  -1.541  0.00  0.00    +0.000 HD
ENDBRANCH   2  11
ENDBRANCH   1   4
BRANCH   1  14
ATOM     14  C6  UNL     1      -0.618  -0.590   1.053  0.00  0.00    +0.000 C 
ATOM     15  O3  UNL     1      -0.799   0.412   0.361  0.00  0.00    +0.000 OA
ATOM     16  N4  UNL     1       0.598  -1.231   1.158  0.00  0.00    +0.000 N 
ATOM     17  H7  UNL     1       0.645  -2.123   1.635  0.00  0.00    +0.000 HD
BRANCH  16  18
ATOM     18  C7  UNL     1       1.745  -0.818   0.368  0.00  0.00    +0.000 C 
BRANCH  18  19
ATOM     19  C8  UNL     1       2.429   0.424   0.942  0.00  0.00    +0.000 C 
BRANCH  19  20
ATOM     20  C9  UNL     1       3.646   0.810   0.140  0.00  0.00    +0.000 A 
ATOM     21  C10 UNL     1       3.513   1.601  -1.009  0.00  0.00    +0.000 A 
ATOM     22  C11 UNL     1       4.634   1.942  -1.766  0.00  0.00    +0.000 A 
ATOM     23  C12 UNL     1       5.897   1.494  -1.384  0.00  0.00    +0.000 A 
ATOM     24  C13 UNL     1       6.040   0.703  -0.246  0.00  0.00    +0.000 A 
ATOM     25  C14 UNL     1       4.919   0.360   0.513  0.00  0.00    +0.000 A 
ENDBRANCH  19  20
ENDBRANCH  18  19
ENDBRANCH  16  18
ENDBRANCH   1  14
TORSDOF 6
