REMARK  Name = /home/anacleto/Desktop/manuscript_Mpro/naturecomm/supplementary_file_S2/6-chemical-library/molecular_docking/3D_ligand_structure/4381.pdb
REMARK  5 active torsions:
REMARK  status: ('A' for Active; 'I' for Inactive)
REMARK    1  A    between atoms: C5_6  and  C6_7
REMARK    2  A    between atoms: C6_7  and  N2_8
REMARK    3  A    between atoms: N2_8  and  C12_16
REMARK    4  A    between atoms: C7_9  and  C8_11
REMARK    5  A    between atoms: C15_19  and  N3_22
REMARK                            x       y       z     vdW  Elec       q    Type
REMARK                         _______ _______ _______ _____ _____    ______ ____
ROOT
ATOM      1  N2  UNL     1      -0.780  -0.773   0.248  0.00  0.00    +0.000 N 
ATOM      2  C7  UNL     1      -1.416  -1.557  -0.752  0.00  0.00    +0.000 C 
ATOM      3  O1  UNL     1      -0.807  -1.999  -1.729  0.00  0.00    +0.000 OA
ENDROOT
BRANCH   1   4
ATOM      4  C12 UNL     1       0.640  -0.525   0.196  0.00  0.00    +0.000 A 
ATOM      5  C13 UNL     1       1.395  -0.444   1.373  0.00  0.00    +0.000 A 
ATOM      6  C14 UNL     1       2.775  -0.186   1.343  0.00  0.00    +0.000 A 
ATOM      7  C15 UNL     1       3.440   0.000   0.127  0.00  0.00    +0.000 A 
ATOM      8  C16 UNL     1       2.695  -0.084  -1.054  0.00  0.00    +0.000 A 
ATOM      9  C17 UNL     1       1.316  -0.345  -1.016  0.00  0.00    +0.000 A 
BRANCH   7  10
ATOM     10  N3  UNL     1       4.846   0.265   0.090  0.00  0.00    +0.000 N 
ATOM     11  C18 UNL     1       5.624   0.450  -1.039  0.00  0.00    +0.000 A 
ATOM     12  C19 UNL     1       6.930   0.685  -0.666  0.00  0.00    +0.000 A 
ATOM     13  C20 UNL     1       6.973   0.646   0.739  0.00  0.00    +0.000 A 
ATOM     14  C21 UNL     1       5.693   0.389   1.179  0.00  0.00    +0.000 A 
ENDBRANCH   7  10
ENDBRANCH   1   4
BRANCH   2  15
ATOM     15  C8  UNL     1      -2.835  -1.869  -0.628  0.00  0.00    +0.000 A 
ATOM     16  C9  UNL     1      -3.782  -2.077  -1.617  0.00  0.00    +0.000 A 
ATOM     17  C10 UNL     1      -4.987  -2.438  -0.970  0.00  0.00    +0.000 A 
ATOM     18  C11 UNL     1      -4.702  -2.462   0.374  0.00  0.00    +0.000 A 
ATOM     19  O2  UNL     1      -3.404  -2.128   0.592  0.00  0.00    +0.000 OA
ENDBRANCH   2  15
BRANCH   1  20
ATOM     20  C6  UNL     1      -1.537  -0.078   1.307  0.00  0.00    +0.000 C 
BRANCH  20  26
ATOM     21  C1  UNL     1      -1.938   2.019  -0.057  0.00  0.00    +0.000 A 
ATOM     22  N1  UNL     1      -2.679   3.044  -0.535  0.00  0.00    +0.000 NA
ATOM     23  C2  UNL     1      -3.972   3.090  -0.154  0.00  0.00    +0.000 A 
ATOM     24  C3  UNL     1      -4.556   2.163   0.691  0.00  0.00    +0.000 A 
ATOM     25  C4  UNL     1      -3.769   1.121   1.171  0.00  0.00    +0.000 A 
ATOM     26  C5  UNL     1      -2.428   1.024   0.785  0.00  0.00    +0.000 A 
ENDBRANCH  20  26
ENDBRANCH   1  20
TORSDOF 5
