REMARK  Name = /home/anacleto/Desktop/manuscript_Mpro/naturecomm/supplementary_file_S2/6-chemical-library/molecular_docking/3D_ligand_structure/4390.pdb
REMARK  5 active torsions:
REMARK  status: ('A' for Active; 'I' for Inactive)
REMARK    1  A    between atoms: C6_6  and  C7_7
REMARK    2  A    between atoms: C7_7  and  C8_8
REMARK    3  A    between atoms: C7_7  and  N1_14
REMARK    4  A    between atoms: N2_17  and  C18_20
REMARK    5  A    between atoms: C18_20  and  C19_21
REMARK                            x       y       z     vdW  Elec       q    Type
REMARK                         _______ _______ _______ _____ _____    ______ ____
ROOT
ATOM      1  C7  UNL     1      -1.765  -0.796   0.259  0.00  0.00    +0.000 C 
ENDROOT
BRANCH   1   7
ATOM      2  C1  UNL     1      -4.097  -0.380  -0.717  0.00  0.00    +0.000 A 
ATOM      3  C2  UNL     1      -5.126  -0.638  -1.627  0.00  0.00    +0.000 A 
ATOM      4  C3  UNL     1      -4.958  -1.605  -2.613  0.00  0.00    +0.000 A 
ATOM      5  C4  UNL     1      -3.768  -2.322  -2.681  0.00  0.00    +0.000 A 
ATOM      6  C5  UNL     1      -2.739  -2.063  -1.771  0.00  0.00    +0.000 A 
ATOM      7  C6  UNL     1      -2.869  -1.067  -0.786  0.00  0.00    +0.000 A 
ENDBRANCH   1   7
BRANCH   1   8
ATOM      8  C8  UNL     1      -1.616   0.682   0.658  0.00  0.00    +0.000 A 
ATOM      9  C9  UNL     1      -1.568   1.038   2.018  0.00  0.00    +0.000 A 
ATOM     10  C10 UNL     1      -1.422   2.371   2.408  0.00  0.00    +0.000 A 
ATOM     11  C11 UNL     1      -1.326   3.373   1.446  0.00  0.00    +0.000 A 
ATOM     12  C12 UNL     1      -1.384   3.044   0.095  0.00  0.00    +0.000 A 
ATOM     13  C13 UNL     1      -1.530   1.711  -0.296  0.00  0.00    +0.000 A 
ENDBRANCH   1   8
BRANCH   1  14
ATOM     14  N1  UNL     1      -0.479  -1.472  -0.036  0.00  0.00    +0.000 NA
ATOM     15  C14 UNL     1       0.334  -0.912  -1.127  0.00  0.00    +0.000 C 
ATOM     16  C15 UNL     1       1.606  -0.177  -0.646  0.00  0.00    +0.000 C 
ATOM     17  N2  UNL     1       2.528  -1.037   0.138  0.00  0.00    +0.000 NA
ATOM     18  C16 UNL     1       1.789  -2.120   0.819  0.00  0.00    +0.000 C 
ATOM     19  C17 UNL     1       0.324  -1.768   1.161  0.00  0.00    +0.000 C 
BRANCH  17  20
ATOM     20  C18 UNL     1       3.315  -0.244   1.094  0.00  0.00    +0.000 C 
BRANCH  20  21
ATOM     21  C19 UNL     1       4.241   0.681   0.374  0.00  0.00    +0.000 A 
ATOM     22  C20 UNL     1       5.311   0.334  -0.502  0.00  0.00    +0.000 A 
ATOM     23  C21 UNL     1       5.879   1.516  -0.914  0.00  0.00    +0.000 A 
ATOM     24  O1  UNL     1       5.238   2.571  -0.349  0.00  0.00    +0.000 OA
ATOM     25  C22 UNL     1       4.249   2.061   0.427  0.00  0.00    +0.000 A 
ENDBRANCH  20  21
ENDBRANCH  17  20
ENDBRANCH   1  14
TORSDOF 5
