REMARK  Name = /home/anacleto/Desktop/manuscript_Mpro/naturecomm/supplementary_file_S2/6-chemical-library/molecular_docking/3D_ligand_structure/4397.pdb
REMARK  5 active torsions:
REMARK  status: ('A' for Active; 'I' for Inactive)
REMARK    1  A    between atoms: C6_6  and  N1_7
REMARK    2  A    between atoms: C9_11  and  C10_13
REMARK    3  A    between atoms: C16_20  and  C17_21
REMARK    4  A    between atoms: N4_23  and  S1_24
REMARK    5  A    between atoms: S1_24  and  C18_27
REMARK                            x       y       z     vdW  Elec       q    Type
REMARK                         _______ _______ _______ _____ _____    ______ ____
ROOT
ATOM      1  N1  UNL     1      -0.351  -0.355   1.721  0.00  0.00    +0.000 N 
ATOM      2  C7  UNL     1      -1.082  -1.288   0.829  0.00  0.00    +0.000 C 
ATOM      3  C8  UNL     1      -2.503  -0.781   0.534  0.00  0.00    +0.000 C 
ATOM      4  N2  UNL     1      -2.503   0.590   0.008  0.00  0.00    +0.000 N 
ATOM      5  C9  UNL     1      -3.571   1.101  -0.732  0.00  0.00    +0.000 C 
ATOM      6  O1  UNL     1      -3.940   2.271  -0.650  0.00  0.00    +0.000 OA
ATOM      7  C15 UNL     1      -1.757   1.546   0.827  0.00  0.00    +0.000 C 
ATOM      8  C16 UNL     1      -0.349   1.071   1.239  0.00  0.00    +0.000 C 
ENDROOT
BRANCH   1  14
ATOM      9  C1  UNL     1       1.571  -1.913   1.770  0.00  0.00    +0.000 A 
ATOM     10  C2  UNL     1       2.807  -2.298   2.305  0.00  0.00    +0.000 A 
ATOM     11  C3  UNL     1       3.375  -1.570   3.346  0.00  0.00    +0.000 A 
ATOM     12  C4  UNL     1       2.700  -0.467   3.861  0.00  0.00    +0.000 A 
ATOM     13  C5  UNL     1       1.463  -0.091   3.323  0.00  0.00    +0.000 A 
ATOM     14  C6  UNL     1       0.878  -0.789   2.251  0.00  0.00    +0.000 A 
ENDBRANCH   1  14
BRANCH   5  15
ATOM     15  C10 UNL     1      -4.265   0.220  -1.691  0.00  0.00    +0.000 A 
ATOM     16  C11 UNL     1      -3.566  -0.587  -2.591  0.00  0.00    +0.000 A 
ATOM     17  C12 UNL     1      -4.282  -1.356  -3.506  0.00  0.00    +0.000 A 
ATOM     18  C13 UNL     1      -5.669  -1.281  -3.489  0.00  0.00    +0.000 A 
ATOM     19  N3  UNL     1      -6.370  -0.497  -2.638  0.00  0.00    +0.000 NA
ATOM     20  C14 UNL     1      -5.650   0.254  -1.768  0.00  0.00    +0.000 A 
ENDBRANCH   5  15
BRANCH   8  21
ATOM     21  C17 UNL     1       0.631   1.297   0.065  0.00  0.00    +0.000 C 
ATOM     22  O2  UNL     1       0.530   0.730  -1.017  0.00  0.00    +0.000 OA
ATOM     23  N4  UNL     1       1.691   2.178   0.349  0.00  0.00    +0.000 N 
ATOM     24  H17 UNL     1       1.837   2.582   1.268  0.00  0.00    +0.000 HD
BRANCH  23  25
ATOM     25  S1  UNL     1       2.786   2.720  -0.775  0.00  0.00    +0.000 S 
ATOM     26  O3  UNL     1       3.694   3.566  -0.025  0.00  0.00    +0.000 OA
ATOM     27  O4  UNL     1       2.067   3.209  -1.930  0.00  0.00    +0.000 OA
BRANCH  25  28
ATOM     28  C18 UNL     1       3.779   1.349  -1.309  0.00  0.00    +0.000 A 
ATOM     29  C19 UNL     1       3.936   0.063  -0.826  0.00  0.00    +0.000 A 
ATOM     30  C20 UNL     1       4.897  -0.685  -1.569  0.00  0.00    +0.000 A 
ATOM     31  C21 UNL     1       5.436   0.056  -2.598  0.00  0.00    +0.000 A 
ATOM     32  S2  UNL     1       4.801   1.645  -2.649  0.00  0.00    +0.000 S 
ENDBRANCH  25  28
ENDBRANCH  23  25
ENDBRANCH   8  21
TORSDOF 5
