REMARK  Name = /home/anacleto/Desktop/manuscript_Mpro/naturecomm/supplementary_file_S2/6-chemical-library/molecular_docking/3D_ligand_structure/4404.pdb
REMARK  5 active torsions:
REMARK  status: ('A' for Active; 'I' for Inactive)
REMARK    1  A    between atoms: C6_6  and  N1_7
REMARK    2  A    between atoms: C9_11  and  C10_13
REMARK    3  A    between atoms: C15_20  and  C16_21
REMARK    4  A    between atoms: N4_23  and  C17_24
REMARK    5  A    between atoms: C17_24  and  C18_25
REMARK                            x       y       z     vdW  Elec       q    Type
REMARK                         _______ _______ _______ _____ _____    ______ ____
ROOT
ATOM      1  N1  UNL     1      -0.122  -1.625   0.283  0.00  0.00    +0.000 N 
ATOM      2  C7  UNL     1      -0.624  -1.235   1.621  0.00  0.00    +0.000 C 
ATOM      3  C8  UNL     1      -2.146  -1.008   1.565  0.00  0.00    +0.000 C 
ATOM      4  N2  UNL     1      -2.509  -0.039   0.529  0.00  0.00    +0.000 N 
ATOM      5  C9  UNL     1      -2.735   1.278   0.916  0.00  0.00    +0.000 C 
ATOM      6  O1  UNL     1      -2.554   1.642   2.079  0.00  0.00    +0.000 OA
ATOM      7  C14 UNL     1      -2.038  -0.428  -0.814  0.00  0.00    +0.000 C 
ATOM      8  C15 UNL     1      -0.508  -0.706  -0.843  0.00  0.00    +0.000 C 
ENDROOT
BRANCH   5   9
ATOM      9  C10 UNL     1      -3.270   2.234  -0.136  0.00  0.00    +0.000 C 
ATOM     10  C11 UNL     1      -4.644   1.803  -0.660  0.00  0.00    +0.000 C 
ATOM     11  C12 UNL     1      -5.346   3.107  -0.925  0.00  0.00    +0.000 C 
ATOM     12  O2  UNL     1      -6.404   3.248  -1.512  0.00  0.00    +0.000 OA
ATOM     13  C13 UNL     1      -3.534   3.622   0.437  0.00  0.00    +0.000 C 
ATOM     14  N3  UNL     1      -4.605   4.124  -0.369  0.00  0.00    +0.000 N 
ATOM     15  H15 UNL     1      -4.992   5.059  -0.315  0.00  0.00    +0.000 HD
ENDBRANCH   5   9
BRANCH   1  21
ATOM     16  C1  UNL     1       1.783  -2.868   1.176  0.00  0.00    +0.000 A 
ATOM     17  C2  UNL     1       2.804  -3.813   1.024  0.00  0.00    +0.000 A 
ATOM     18  C3  UNL     1       2.947  -4.499  -0.175  0.00  0.00    +0.000 A 
ATOM     19  C4  UNL     1       2.069  -4.235  -1.218  0.00  0.00    +0.000 A 
ATOM     20  C5  UNL     1       1.052  -3.286  -1.059  0.00  0.00    +0.000 A 
ATOM     21  C6  UNL     1       0.882  -2.572   0.138  0.00  0.00    +0.000 A 
ENDBRANCH   1  21
BRANCH   8  22
ATOM     22  C16 UNL     1       0.284   0.625  -0.816  0.00  0.00    +0.000 C 
ATOM     23  O3  UNL     1      -0.181   1.690  -1.216  0.00  0.00    +0.000 OA
ATOM     24  N4  UNL     1       1.585   0.514  -0.382  0.00  0.00    +0.000 N 
ATOM     25  H19 UNL     1       1.806  -0.328   0.139  0.00  0.00    +0.000 HD
BRANCH  24  26
ATOM     26  C17 UNL     1       2.399   1.682  -0.158  0.00  0.00    +0.000 C 
BRANCH  26  27
ATOM     27  C18 UNL     1       3.762   1.229   0.247  0.00  0.00    +0.000 A 
ATOM     28  C19 UNL     1       4.790   0.783  -0.561  0.00  0.00    +0.000 A 
ATOM     29  C20 UNL     1       5.950   0.425   0.184  0.00  0.00    +0.000 A 
ATOM     30  C21 UNL     1       5.767   0.604   1.537  0.00  0.00    +0.000 A 
ATOM     31  S1  UNL     1       4.208   1.201   1.902  0.00  0.00    +0.000 S 
ENDBRANCH  26  27
ENDBRANCH  24  26
ENDBRANCH   8  22
TORSDOF 5
