REMARK  Name = /home/anacleto/Desktop/manuscript_Mpro/naturecomm/supplementary_file_S2/6-chemical-library/molecular_docking/3D_ligand_structure/4418.pdb
REMARK  5 active torsions:
REMARK  status: ('A' for Active; 'I' for Inactive)
REMARK    1  A    between atoms: C5_6  and  N2_7
REMARK    2  A    between atoms: C7_11  and  C9_14
REMARK    3  A    between atoms: C9_14  and  C10_15
REMARK    4  A    between atoms: C12_17  and  O3_21
REMARK    5  A    between atoms: O3_21  and  C16_22
REMARK                            x       y       z     vdW  Elec       q    Type
REMARK                         _______ _______ _______ _____ _____    ______ ____
ROOT
ATOM      1  N2  UNL     1      -3.986   0.235   0.192  0.00  0.00    +0.000 N 
ATOM      2  C6  UNL     1      -3.359   1.439   0.426  0.00  0.00    +0.000 C 
ATOM      3  O1  UNL     1      -3.824   2.549   0.625  0.00  0.00    +0.000 OA
ATOM      4  N3  UNL     1      -1.997   1.239   0.429  0.00  0.00    +0.000 N 
ATOM      5  C7  UNL     1      -1.646  -0.143   0.302  0.00  0.00    +0.000 C 
ATOM      6  C8  UNL     1      -3.029  -0.757   0.096  0.00  0.00    +0.000 C 
ATOM      7  O2  UNL     1      -3.182  -1.955  -0.107  0.00  0.00    +0.000 OA
ATOM      8  H5  UNL     1      -1.365   1.983   0.700  0.00  0.00    +0.000 HD
ENDROOT
BRANCH   1  14
ATOM      9  C1  UNL     1      -5.974  -1.218  -0.108  0.00  0.00    +0.000 A 
ATOM     10  N1  UNL     1      -7.309  -1.464  -0.221  0.00  0.00    +0.000 NA
ATOM     11  C2  UNL     1      -8.133  -0.404  -0.141  0.00  0.00    +0.000 A 
ATOM     12  C3  UNL     1      -7.683   0.887   0.044  0.00  0.00    +0.000 A 
ATOM     13  C4  UNL     1      -6.307   1.104   0.156  0.00  0.00    +0.000 A 
ATOM     14  C5  UNL     1      -5.397   0.041   0.083  0.00  0.00    +0.000 A 
ENDBRANCH   1  14
BRANCH   5  15
ATOM     15  C9  UNL     1      -0.732  -0.439  -0.884  0.00  0.00    +0.000 C 
BRANCH  15  16
ATOM     16  C10 UNL     1       0.646   0.154  -0.704  0.00  0.00    +0.000 A 
ATOM     17  C11 UNL     1       1.601  -0.498   0.088  0.00  0.00    +0.000 A 
ATOM     18  C12 UNL     1       2.869   0.059   0.264  0.00  0.00    +0.000 A 
ATOM     19  C13 UNL     1       3.183   1.290  -0.315  0.00  0.00    +0.000 A 
ATOM     20  C14 UNL     1       2.239   1.944  -1.105  0.00  0.00    +0.000 A 
ATOM     21  C15 UNL     1       0.978   1.378  -1.301  0.00  0.00    +0.000 A 
BRANCH  18  22
ATOM     22  O3  UNL     1       3.740  -0.621   1.084  0.00  0.00    +0.000 OA
BRANCH  22  23
ATOM     23  C16 UNL     1       5.034  -0.774   0.642  0.00  0.00    +0.000 A 
ATOM     24  C17 UNL     1       6.051  -0.536   1.567  0.00  0.00    +0.000 A 
ATOM     25  C18 UNL     1       7.385  -0.706   1.194  0.00  0.00    +0.000 A 
ATOM     26  C19 UNL     1       7.698  -1.129  -0.099  0.00  0.00    +0.000 A 
ATOM     27  C20 UNL     1       6.680  -1.389  -1.016  0.00  0.00    +0.000 A 
ATOM     28  C21 UNL     1       5.345  -1.220  -0.645  0.00  0.00    +0.000 A 
ENDBRANCH  22  23
ENDBRANCH  18  22
ENDBRANCH  15  16
ENDBRANCH   5  15
TORSDOF 5
