REMARK  Name = /home/anacleto/Desktop/manuscript_Mpro/naturecomm/supplementary_file_S2/6-chemical-library/molecular_docking/3D_ligand_structure/4419.pdb
REMARK  5 active torsions:
REMARK  status: ('A' for Active; 'I' for Inactive)
REMARK    1  A    between atoms: C5_6  and  C6_7
REMARK    2  A    between atoms: C6_7  and  N2_8
REMARK    3  A    between atoms: C9_13  and  N3_21
REMARK    4  A    between atoms: C10_14  and  C11_15
REMARK    5  A    between atoms: N3_21  and  C17_22
REMARK                            x       y       z     vdW  Elec       q    Type
REMARK                         _______ _______ _______ _____ _____    ______ ____
ROOT
ATOM      1  N2  UNL     1       1.533   0.041  -0.952  0.00  0.00    +0.000 N 
ATOM      2  C7  UNL     1       1.026  -1.209  -0.867  0.00  0.00    +0.000 C 
ATOM      3  O1  UNL     1       1.554  -2.250  -1.218  0.00  0.00    +0.000 OA
ATOM      4  C8  UNL     1       0.659   0.947  -0.451  0.00  0.00    +0.000 C 
ATOM      5  O2  UNL     1       0.864   2.141  -0.311  0.00  0.00    +0.000 OA
ATOM      6  C9  UNL     1      -0.587   0.207  -0.073  0.00  0.00    +0.000 C 
ATOM      7  C10 UNL     1      -0.316  -1.097  -0.258  0.00  0.00    +0.000 C 
ENDROOT
BRANCH   7   8
ATOM      8  C11 UNL     1      -1.194  -2.230   0.034  0.00  0.00    +0.000 A 
ATOM      9  C12 UNL     1      -1.556  -3.126  -0.979  0.00  0.00    +0.000 A 
ATOM     10  C13 UNL     1      -2.402  -4.202  -0.704  0.00  0.00    +0.000 A 
ATOM     11  C14 UNL     1      -2.890  -4.395   0.587  0.00  0.00    +0.000 A 
ATOM     12  C15 UNL     1      -2.528  -3.517   1.606  0.00  0.00    +0.000 A 
ATOM     13  C16 UNL     1      -1.682  -2.441   1.333  0.00  0.00    +0.000 A 
ENDBRANCH   7   8
BRANCH   6  14
ATOM     14  N3  UNL     1      -1.718   0.795   0.454  0.00  0.00    +0.000 N 
ATOM     15  H12 UNL     1      -2.404   0.123   0.791  0.00  0.00    +0.000 HD
BRANCH  14  16
ATOM     16  C17 UNL     1      -2.359   1.992   0.065  0.00  0.00    +0.000 A 
ATOM     17  C18 UNL     1      -3.376   2.489   0.896  0.00  0.00    +0.000 A 
ATOM     18  C19 UNL     1      -4.047   3.677   0.593  0.00  0.00    +0.000 A 
ATOM     19  C20 UNL     1      -3.704   4.395  -0.548  0.00  0.00    +0.000 A 
ATOM     20  C21 UNL     1      -2.691   3.925  -1.378  0.00  0.00    +0.000 A 
ATOM     21  C22 UNL     1      -2.022   2.735  -1.071  0.00  0.00    +0.000 A 
ENDBRANCH  14  16
ENDBRANCH   6  14
BRANCH   1  22
ATOM     22  C6  UNL     1       2.869   0.357  -1.402  0.00  0.00    +0.000 C 
BRANCH  22  28
ATOM     23  C1  UNL     1       4.160   1.365   0.516  0.00  0.00    +0.000 A 
ATOM     24  N1  UNL     1       5.042   1.345   1.541  0.00  0.00    +0.000 NA
ATOM     25  C2  UNL     1       5.658   0.171   1.791  0.00  0.00    +0.000 A 
ATOM     26  C3  UNL     1       5.432  -0.986   1.065  0.00  0.00    +0.000 A 
ATOM     27  C4  UNL     1       4.524  -0.937   0.013  0.00  0.00    +0.000 A 
ATOM     28  C5  UNL     1       3.873   0.265  -0.286  0.00  0.00    +0.000 A 
ENDBRANCH  22  28
ENDBRANCH   1  22
TORSDOF 5
