REMARK  Name = /home/anacleto/Desktop/manuscript_Mpro/naturecomm/supplementary_file_S2/6-chemical-library/molecular_docking/3D_ligand_structure/4426.pdb
REMARK  4 active torsions:
REMARK  status: ('A' for Active; 'I' for Inactive)
REMARK    1  A    between atoms: C6_6  and  N1_7
REMARK    2  A    between atoms: N3_13  and  N4_14
REMARK    3  A    between atoms: N4_14  and  C10_15
REMARK    4  A    between atoms: C15_20  and  C16_21
REMARK                            x       y       z     vdW  Elec       q    Type
REMARK                         _______ _______ _______ _____ _____    ______ ____
ROOT
ATOM      1  N4  UNL     1      -0.004  -1.091  -0.413  0.00  0.00    +0.000 N 
ATOM      2  H7  UNL     1       0.678  -1.401  -1.115  0.00  0.00    +0.000 HD
ENDROOT
BRANCH   1   9
ATOM      3  N1  UNL     1       3.824   0.284   0.456  0.00  0.00    +0.000 N 
ATOM      4  N2  UNL     1       3.431   1.139   1.504  0.00  0.00    +0.000 NA
ATOM      5  C7  UNL     1       2.146   1.050   1.617  0.00  0.00    +0.000 C 
ATOM      6  C8  UNL     1       2.774  -0.393  -0.154  0.00  0.00    +0.000 C 
ATOM      7  O1  UNL     1       2.684  -1.178  -1.076  0.00  0.00    +0.000 OA
ATOM      8  C9  UNL     1       1.599   0.103   0.627  0.00  0.00    +0.000 C 
ATOM      9  N3  UNL     1       0.339  -0.175   0.532  0.00  0.00    +0.000 NA
BRANCH   3  15
ATOM     10  C1  UNL     1       5.673  -0.614  -0.901  0.00  0.00    +0.000 A 
ATOM     11  C2  UNL     1       7.038  -0.673  -1.207  0.00  0.00    +0.000 A 
ATOM     12  C3  UNL     1       7.952   0.090  -0.487  0.00  0.00    +0.000 A 
ATOM     13  C4  UNL     1       7.503   0.914   0.540  0.00  0.00    +0.000 A 
ATOM     14  C5  UNL     1       6.140   0.973   0.845  0.00  0.00    +0.000 A 
ATOM     15  C6  UNL     1       5.202   0.210   0.130  0.00  0.00    +0.000 A 
ENDBRANCH   3  15
ENDBRANCH   1   9
BRANCH   1  16
ATOM     16  C10 UNL     1      -1.352  -1.206  -0.806  0.00  0.00    +0.000 A 
ATOM     17  C11 UNL     1      -1.681  -2.044  -1.878  0.00  0.00    +0.000 A 
ATOM     18  C12 UNL     1      -3.009  -2.217  -2.270  0.00  0.00    +0.000 A 
ATOM     19  C13 UNL     1      -4.030  -1.566  -1.578  0.00  0.00    +0.000 A 
ATOM     20  C14 UNL     1      -2.396  -0.581  -0.107  0.00  0.00    +0.000 A 
ATOM     21  C15 UNL     1      -3.743  -0.739  -0.481  0.00  0.00    +0.000 A 
BRANCH  21  22
ATOM     22  C16 UNL     1      -4.821  -0.064   0.262  0.00  0.00    +0.000 A 
ATOM     23  C17 UNL     1      -4.933  -0.198   1.656  0.00  0.00    +0.000 A 
ATOM     24  C18 UNL     1      -5.956   0.440   2.362  0.00  0.00    +0.000 A 
ATOM     25  C19 UNL     1      -6.885   1.226   1.686  0.00  0.00    +0.000 A 
ATOM     26  C20 UNL     1      -6.792   1.374   0.304  0.00  0.00    +0.000 A 
ATOM     27  C21 UNL     1      -5.769   0.734  -0.401  0.00  0.00    +0.000 A 
ENDBRANCH  21  22
ENDBRANCH   1  16
TORSDOF 4
