REMARK  Name = /home/anacleto/Desktop/manuscript_Mpro/naturecomm/supplementary_file_S2/6-chemical-library/molecular_docking/3D_ligand_structure/4431.pdb
REMARK  3 active torsions:
REMARK  status: ('A' for Active; 'I' for Inactive)
REMARK    1  A    between atoms: N2_6  and  C5_7
REMARK    2  A    between atoms: C10_12  and  C11_13
REMARK    3  A    between atoms: C16_20  and  C17_21
REMARK                            x       y       z     vdW  Elec       q    Type
REMARK                         _______ _______ _______ _____ _____    ______ ____
ROOT
ATOM      1  C11 UNL     1       0.868  -1.204   1.494  0.00  0.00    +0.000 C 
ATOM      2  O1  UNL     1       1.208  -2.297   1.944  0.00  0.00    +0.000 OA
ATOM      3  N3  UNL     1      -0.189  -1.027   0.600  0.00  0.00    +0.000 N 
ATOM      4  C12 UNL     1      -0.628   0.276   0.100  0.00  0.00    +0.000 C 
ATOM      5  C13 UNL     1      -1.433   0.152  -1.190  0.00  0.00    +0.000 C 
ATOM      6  C14 UNL     1      -0.932  -2.201   0.155  0.00  0.00    +0.000 C 
ATOM      7  C15 UNL     1      -2.414  -1.881  -0.002  0.00  0.00    +0.000 C 
ATOM      8  C16 UNL     1      -2.670  -0.758  -1.033  0.00  0.00    +0.000 C 
ENDROOT
BRANCH   1  14
ATOM      9  C5  UNL     1       2.605   0.621   1.266  0.00  0.00    +0.000 A 
ATOM     10  C6  UNL     1       3.198   1.753   1.852  0.00  0.00    +0.000 A 
ATOM     11  C7  UNL     1       2.785   2.236   3.101  0.00  0.00    +0.000 A 
ATOM     12  C8  UNL     1       1.771   1.593   3.803  0.00  0.00    +0.000 A 
ATOM     13  C9  UNL     1       1.166   0.466   3.256  0.00  0.00    +0.000 A 
ATOM     14  C10 UNL     1       1.574  -0.007   1.999  0.00  0.00    +0.000 A 
BRANCH   9  20
ATOM     15  C1  UNL     1       3.442   1.077  -1.026  0.00  0.00    +0.000 C 
ATOM     16  C2  UNL     1       4.958   1.013  -1.314  0.00  0.00    +0.000 C 
ATOM     17  N1  UNL     1       5.459  -0.313  -1.720  0.00  0.00    +0.000 NA
ATOM     18  C3  UNL     1       4.629  -1.397  -1.152  0.00  0.00    +0.000 C 
ATOM     19  C4  UNL     1       3.940  -1.048   0.185  0.00  0.00    +0.000 C 
ATOM     20  N2  UNL     1       3.034   0.120   0.023  0.00  0.00    +0.000 N 
ATOM     21  H5  UNL     1       5.434  -0.395  -2.736  0.00  0.00    +0.000 HD
ENDBRANCH   9  20
ENDBRANCH   1  14
BRANCH   8  22
ATOM     22  C17 UNL     1      -3.952   0.030  -0.678  0.00  0.00    +0.000 C 
ATOM     23  C18 UNL     1      -4.352   1.091  -1.701  0.00  0.00    +0.000 C 
ATOM     24  C19 UNL     1      -5.838   1.248  -1.453  0.00  0.00    +0.000 C 
ATOM     25  N4  UNL     1      -6.283  -0.127  -1.262  0.00  0.00    +0.000 NA
ATOM     26  C20 UNL     1      -5.212  -0.842  -0.563  0.00  0.00    +0.000 C 
ATOM     27  H28 UNL     1      -7.154  -0.163  -0.735  0.00  0.00    +0.000 HD
ENDBRANCH   8  22
TORSDOF 3
