REMARK  Name = /home/anacleto/Desktop/manuscript_Mpro/naturecomm/supplementary_file_S2/6-chemical-library/molecular_docking/3D_ligand_structure/4438.pdb
REMARK  5 active torsions:
REMARK  status: ('A' for Active; 'I' for Inactive)
REMARK    1  A    between atoms: C6_6  and  C7_7
REMARK    2  A    between atoms: C7_7  and  C8_8
REMARK    3  A    between atoms: C8_8  and  C9_9
REMARK    4  A    between atoms: C10_11  and  C11_14
REMARK    5  A    between atoms: C12_15  and  C14_19
REMARK                            x       y       z     vdW  Elec       q    Type
REMARK                         _______ _______ _______ _____ _____    ______ ____
ROOT
ATOM      1  C9  UNL     1       0.610  -0.478   0.319  0.00  0.00    +0.000 A 
ATOM      2  N1  UNL     1      -0.091  -0.702  -0.837  0.00  0.00    +0.000 NA
ATOM      3  C10 UNL     1      -1.335  -0.467  -0.469  0.00  0.00    +0.000 A 
ATOM      4  O1  UNL     1      -1.430  -0.108   0.850  0.00  0.00    +0.000 OA
ATOM      5  N2  UNL     1      -0.134  -0.111   1.367  0.00  0.00    +0.000 NA
ENDROOT
BRANCH   3   6
ATOM      6  C11 UNL     1      -2.546  -0.594  -1.431  0.00  0.00    +0.000 A 
ATOM      7  C12 UNL     1      -3.928  -0.371  -1.195  0.00  0.00    +0.000 A 
ATOM      8  N3  UNL     1      -4.643  -0.665  -2.296  0.00  0.00    +0.000 NA
ATOM      9  N4  UNL     1      -3.728  -1.017  -3.212  0.00  0.00    +0.000 N 
ATOM     10  C13 UNL     1      -2.452  -0.992  -2.744  0.00  0.00    +0.000 A 
ATOM     11  H10 UNL     1      -4.051  -1.268  -4.142  0.00  0.00    +0.000 HD
BRANCH   7  12
ATOM     12  C14 UNL     1      -4.602   0.091   0.009  0.00  0.00    +0.000 A 
ATOM     13  C15 UNL     1      -5.680  -0.617   0.544  0.00  0.00    +0.000 A 
ATOM     14  C16 UNL     1      -6.315  -0.147   1.693  0.00  0.00    +0.000 A 
ATOM     15  C17 UNL     1      -5.852   1.027   2.265  0.00  0.00    +0.000 A 
ATOM     16  N5  UNL     1      -4.823   1.748   1.771  0.00  0.00    +0.000 NA
ATOM     17  C18 UNL     1      -4.226   1.266   0.652  0.00  0.00    +0.000 A 
ENDBRANCH   7  12
ENDBRANCH   3   6
BRANCH   1  18
ATOM     18  C8  UNL     1       2.083  -0.620   0.396  0.00  0.00    +0.000 C 
BRANCH  18  19
ATOM     19  C7  UNL     1       2.797   0.654  -0.055  0.00  0.00    +0.000 C 
BRANCH  19  25
ATOM     20  C1  UNL     1       4.985   0.730   1.204  0.00  0.00    +0.000 A 
ATOM     21  C2  UNL     1       6.370   0.569   1.265  0.00  0.00    +0.000 A 
ATOM     22  C3  UNL     1       7.078   0.178   0.130  0.00  0.00    +0.000 A 
ATOM     23  C4  UNL     1       6.403  -0.052  -1.067  0.00  0.00    +0.000 A 
ATOM     24  C5  UNL     1       5.017   0.107  -1.130  0.00  0.00    +0.000 A 
ATOM     25  C6  UNL     1       4.297   0.504   0.005  0.00  0.00    +0.000 A 
ENDBRANCH  19  25
ENDBRANCH  18  19
ENDBRANCH   1  18
TORSDOF 5
