REMARK  Name = /home/anacleto/Desktop/manuscript_Mpro/naturecomm/supplementary_file_S2/6-chemical-library/molecular_docking/3D_ligand_structure/4445.pdb
REMARK  3 active torsions:
REMARK  status: ('A' for Active; 'I' for Inactive)
REMARK    1  A    between atoms: C4_5  and  C5_6
REMARK    2  A    between atoms: C8_12  and  C9_13
REMARK    3  A    between atoms: C12_16  and  N2_18
REMARK                            x       y       z     vdW  Elec       q    Type
REMARK                         _______ _______ _______ _____ _____    ______ ____
ROOT
ATOM      1  C5  UNL     1       4.468   0.247  -0.221  0.00  0.00    +0.000 C 
ATOM      2  N1  UNL     1       3.655   0.438   0.766  0.00  0.00    +0.000 NA
ATOM      3  O1  UNL     1       3.957  -0.248  -1.374  0.00  0.00    +0.000 OA
ATOM      4  C6  UNL     1       2.624  -0.417  -1.161  0.00  0.00    +0.000 C 
ATOM      5  O2  UNL     1       1.823  -0.834  -1.970  0.00  0.00    +0.000 OA
ATOM      6  C7  UNL     1       2.443   0.033   0.254  0.00  0.00    +0.000 C 
ATOM      7  C8  UNL     1       1.318   0.096   0.979  0.00  0.00    +0.000 C 
ENDROOT
BRANCH   1  12
ATOM      8  S1  UNL     1       6.868   0.220  -1.577  0.00  0.00    +0.000 S 
ATOM      9  C1  UNL     1       8.274   0.764  -0.771  0.00  0.00    +0.000 A 
ATOM     10  C2  UNL     1       8.006   1.165   0.518  0.00  0.00    +0.000 A 
ATOM     11  C3  UNL     1       6.626   1.022   0.843  0.00  0.00    +0.000 A 
ATOM     12  C4  UNL     1       5.881   0.515  -0.207  0.00  0.00    +0.000 A 
ENDBRANCH   1  12
BRANCH   7  13
ATOM     13  C9  UNL     1       0.018  -0.296   0.557  0.00  0.00    +0.000 A 
ATOM     14  C10 UNL     1      -0.421  -1.408  -0.131  0.00  0.00    +0.000 A 
ATOM     15  C11 UNL     1      -1.833  -1.415  -0.331  0.00  0.00    +0.000 A 
ATOM     16  C12 UNL     1      -2.479  -0.323   0.218  0.00  0.00    +0.000 A 
ATOM     17  S2  UNL     1      -1.321   0.687   0.999  0.00  0.00    +0.000 S 
BRANCH  16  18
ATOM     18  N2  UNL     1      -3.822  -0.052   0.183  0.00  0.00    +0.000 N 
ATOM     19  C13 UNL     1      -4.428   1.040   0.960  0.00  0.00    +0.000 C 
ATOM     20  C14 UNL     1      -5.939   0.801   1.115  0.00  0.00    +0.000 C 
ATOM     21  O3  UNL     1      -6.650   0.717  -0.129  0.00  0.00    +0.000 OA
ATOM     22  C15 UNL     1      -5.837   0.249  -1.214  0.00  0.00    +0.000 C 
ATOM     23  C16 UNL     1      -4.713  -0.710  -0.785  0.00  0.00    +0.000 C 
ENDBRANCH  16  18
ENDBRANCH   7  13
TORSDOF 3
