REMARK  Name = /home/anacleto/Desktop/manuscript_Mpro/naturecomm/supplementary_file_S2/6-chemical-library/molecular_docking/3D_ligand_structure/4461.pdb
REMARK  0 active torsions:
REMARK  status: ('A' for Active; 'I' for Inactive)
REMARK                            x       y       z     vdW  Elec       q    Type
REMARK                         _______ _______ _______ _____ _____    ______ ____
ROOT
ATOM      1  C1  UNL     1      -1.095   2.892   0.210  0.00  0.00    +0.000 C 
ATOM      2  C2  UNL     1      -0.648   4.254   0.401  0.00  0.00    +0.000 C 
ATOM      3  C3  UNL     1       0.678   4.236   0.524  0.00  0.00    +0.000 C 
ATOM      4  C4  UNL     1       1.115   2.862   0.417  0.00  0.00    +0.000 C 
ATOM      5  N1  UNL     1       0.007   2.094   0.228  0.00  0.00    +0.000 NA
ATOM      6  C5  UNL     1       2.423   2.548   0.507  0.00  0.00    +0.000 C 
ATOM      7  C6  UNL     1       2.931   1.072   0.395  0.00  0.00    +0.000 A 
ATOM      8  C7  UNL     1       4.240   0.649   0.473  0.00  0.00    +0.000 A 
ATOM      9  C8  UNL     1       4.235  -0.765   0.319  0.00  0.00    +0.000 A 
ATOM     10  C9  UNL     1       2.923  -1.153   0.152  0.00  0.00    +0.000 A 
ATOM     11  N2  UNL     1       2.138  -0.029   0.200  0.00  0.00    +0.000 N 
ATOM     12  C10 UNL     1       2.404  -2.614  -0.056  0.00  0.00    +0.000 C 
ATOM     13  C11 UNL     1       1.095  -2.892  -0.210  0.00  0.00    +0.000 C 
ATOM     14  C12 UNL     1       0.648  -4.254  -0.401  0.00  0.00    +0.000 C 
ATOM     15  C13 UNL     1      -0.678  -4.236  -0.524  0.00  0.00    +0.000 C 
ATOM     16  C14 UNL     1      -1.115  -2.862  -0.417  0.00  0.00    +0.000 C 
ATOM     17  N3  UNL     1      -0.007  -2.094  -0.228  0.00  0.00    +0.000 NA
ATOM     18  C15 UNL     1      -2.423  -2.548  -0.507  0.00  0.00    +0.000 C 
ATOM     19  C16 UNL     1      -2.931  -1.072  -0.395  0.00  0.00    +0.000 A 
ATOM     20  C17 UNL     1      -4.240  -0.649  -0.473  0.00  0.00    +0.000 A 
ATOM     21  C18 UNL     1      -4.235   0.765  -0.319  0.00  0.00    +0.000 A 
ATOM     22  C19 UNL     1      -2.923   1.153  -0.152  0.00  0.00    +0.000 A 
ATOM     23  C20 UNL     1      -2.404   2.614   0.056  0.00  0.00    +0.000 C 
ATOM     24  N4  UNL     1      -2.138   0.029  -0.200  0.00  0.00    +0.000 N 
ATOM     25  H6  UNL     1       1.125  -0.015   0.105  0.00  0.00    +0.000 HD
ATOM     26  H14 UNL     1      -1.125   0.015  -0.105  0.00  0.00    +0.000 HD
ENDROOT
TORSDOF 0
