REMARK  Name = /home/anacleto/Desktop/manuscript_Mpro/naturecomm/supplementary_file_S2/6-chemical-library/molecular_docking/3D_ligand_structure/447.pdb
REMARK  6 active torsions:
REMARK  status: ('A' for Active; 'I' for Inactive)
REMARK    1  A    between atoms: C6_6  and  C7_7
REMARK    2  A    between atoms: C7_7  and  C8_8
REMARK    3  A    between atoms: C8_8  and  N1_9
REMARK    4  A    between atoms: C9_10  and  C10_12
REMARK    5  A    between atoms: C10_12  and  N2_13
REMARK    6  A    between atoms: C11_14  and  C12_16
REMARK                            x       y       z     vdW  Elec       q    Type
REMARK                         _______ _______ _______ _____ _____    ______ ____
ROOT
ATOM      1  N1  UNL     1       1.017   0.921  -0.286  0.00  0.00    +0.000 N 
ATOM      2  C9  UNL     1      -0.171   0.229  -0.159  0.00  0.00    +0.000 C 
ATOM      3  O1  UNL     1      -0.237  -0.968   0.118  0.00  0.00    +0.000 OA
ATOM      4  H10 UNL     1       0.969   1.933  -0.259  0.00  0.00    +0.000 HD
ENDROOT
BRANCH   1   5
ATOM      5  C8  UNL     1       2.280   0.295   0.065  0.00  0.00    +0.000 C 
BRANCH   5   6
ATOM      6  C7  UNL     1       3.465   1.020  -0.574  0.00  0.00    +0.000 C 
BRANCH   6  12
ATOM      7  C1  UNL     1       5.293  -0.688  -0.906  0.00  0.00    +0.000 A 
ATOM      8  C2  UNL     1       6.504  -1.276  -0.534  0.00  0.00    +0.000 A 
ATOM      9  C3  UNL     1       7.211  -0.784   0.561  0.00  0.00    +0.000 A 
ATOM     10  C4  UNL     1       6.709   0.293   1.287  0.00  0.00    +0.000 A 
ATOM     11  C5  UNL     1       5.498   0.882   0.918  0.00  0.00    +0.000 A 
ATOM     12  C6  UNL     1       4.782   0.399  -0.185  0.00  0.00    +0.000 A 
ENDBRANCH   6  12
ENDBRANCH   5   6
ENDBRANCH   1   5
BRANCH   2  13
ATOM     13  C10 UNL     1      -1.413   1.076  -0.434  0.00  0.00    +0.000 C 
BRANCH  13  14
ATOM     14  N2  UNL     1      -2.606   0.329  -0.094  0.00  0.00    +0.000 N 
ATOM     15  C11 UNL     1      -3.851   0.901  -0.199  0.00  0.00    +0.000 C 
ATOM     16  O2  UNL     1      -4.014   2.070  -0.533  0.00  0.00    +0.000 OA
ATOM     17  H13 UNL     1      -2.495  -0.676  -0.007  0.00  0.00    +0.000 HD
BRANCH  15  18
ATOM     18  C12 UNL     1      -5.020   0.021   0.082  0.00  0.00    +0.000 A 
ATOM     19  C13 UNL     1      -6.259   0.368  -0.472  0.00  0.00    +0.000 A 
ATOM     20  C14 UNL     1      -7.383  -0.426  -0.236  0.00  0.00    +0.000 A 
ATOM     21  C15 UNL     1      -7.277  -1.564   0.562  0.00  0.00    +0.000 A 
ATOM     22  C16 UNL     1      -6.050  -1.907   1.130  0.00  0.00    +0.000 A 
ATOM     23  C17 UNL     1      -4.922  -1.116   0.896  0.00  0.00    +0.000 A 
ENDBRANCH  15  18
ENDBRANCH  13  14
ENDBRANCH   2  13
TORSDOF 6
