REMARK  Name = /home/anacleto/Desktop/manuscript_Mpro/naturecomm/supplementary_file_S2/6-chemical-library/molecular_docking/3D_ligand_structure/4470.pdb
REMARK  8 active torsions:
REMARK  status: ('A' for Active; 'I' for Inactive)
REMARK    1  A    between atoms: N1_7  and  C5_8
REMARK    2  A    between atoms: C5_8  and  C6_9
REMARK    3  A    between atoms: C6_9  and  C7_10
REMARK    4  A    between atoms: C7_10  and  C8_11
REMARK    5  A    between atoms: C8_11  and  C9_12
REMARK    6  A    between atoms: C9_12  and  C10_13
REMARK    7  A    between atoms: N2_15  and  N3_16
REMARK    8  A    between atoms: C11_17  and  C12_18
REMARK                            x       y       z     vdW  Elec       q    Type
REMARK                         _______ _______ _______ _____ _____    ______ ____
ROOT
ATOM      1  C12 UNL     1       0.841  -2.464   0.424  0.00  0.00    +0.000 C 
ATOM      2  C13 UNL     1       1.926  -3.358   1.028  0.00  0.00    +0.000 C 
ATOM      3  C14 UNL     1       3.322  -3.045   0.492  0.00  0.00    +0.000 C 
ATOM      4  C15 UNL     1       1.151  -0.982   0.660  0.00  0.00    +0.000 C 
ATOM      5  C16 UNL     1       2.603  -0.604   0.463  0.00  0.00    +0.000 A 
ATOM      6  C17 UNL     1       2.937   0.758   0.369  0.00  0.00    +0.000 A 
ATOM      7  C18 UNL     1       3.622  -1.569   0.421  0.00  0.00    +0.000 A 
ATOM      8  C19 UNL     1       4.954  -1.158   0.248  0.00  0.00    +0.000 A 
ATOM      9  C20 UNL     1       5.276   0.201   0.145  0.00  0.00    +0.000 A 
ATOM     10  C21 UNL     1       4.269   1.158   0.208  0.00  0.00    +0.000 A 
ATOM     11  C22 UNL     1       6.685   0.606  -0.033  0.00  0.00    +0.000 C 
ATOM     12  O4  UNL     1       7.572  -0.238  -0.088  0.00  0.00    +0.000 OA
ATOM     13  C23 UNL     1       7.012   2.042  -0.143  0.00  0.00    +0.000 A 
ATOM     14  C24 UNL     1       6.003   3.002  -0.076  0.00  0.00    +0.000 A 
ATOM     15  C25 UNL     1       4.595   2.595   0.106  0.00  0.00    +0.000 C 
ATOM     16  O5  UNL     1       3.710   3.440   0.172  0.00  0.00    +0.000 OA
ATOM     17  C26 UNL     1       6.324   4.361  -0.183  0.00  0.00    +0.000 A 
ATOM     18  C27 UNL     1       7.653   4.754  -0.355  0.00  0.00    +0.000 A 
ATOM     19  C28 UNL     1       8.662   3.794  -0.422  0.00  0.00    +0.000 A 
ATOM     20  C29 UNL     1       8.345   2.439  -0.317  0.00  0.00    +0.000 A 
ENDROOT
BRANCH   1  22
ATOM     21  N3  UNL     1      -0.283  -3.329  -1.686  0.00  0.00    +0.000 NA
ATOM     22  C11 UNL     1       0.694  -2.734  -1.064  0.00  0.00    +0.000 C 
BRANCH  21  25
ATOM     23  C10 UNL     1      -2.261  -2.630  -0.523  0.00  0.00    +0.000 C 
ATOM     24  O3  UNL     1      -1.949  -1.449  -0.412  0.00  0.00    +0.000 OA
ATOM     25  N2  UNL     1      -1.418  -3.646  -0.989  0.00  0.00    +0.000 N 
ATOM     26  H13 UNL     1      -1.907  -4.436  -1.401  0.00  0.00    +0.000 HD
BRANCH  23  27
ATOM     27  C9  UNL     1      -3.621  -3.175  -0.114  0.00  0.00    +0.000 C 
BRANCH  27  28
ATOM     28  C8  UNL     1      -4.615  -2.083   0.282  0.00  0.00    +0.000 C 
BRANCH  28  29
ATOM     29  C7  UNL     1      -5.145  -1.312  -0.934  0.00  0.00    +0.000 C 
BRANCH  29  30
ATOM     30  C6  UNL     1      -6.183  -0.249  -0.566  0.00  0.00    +0.000 C 
BRANCH  30  31
ATOM     31  C5  UNL     1      -5.590   0.930   0.211  0.00  0.00    +0.000 C 
BRANCH  31  38
ATOM     32  O1  UNL     1      -6.392   3.270  -1.423  0.00  0.00    +0.000 OA
ATOM     33  C1  UNL     1      -6.890   2.973  -0.353  0.00  0.00    +0.000 C 
ATOM     34  C2  UNL     1      -7.995   3.717   0.263  0.00  0.00    +0.000 C 
ATOM     35  C3  UNL     1      -8.331   3.087   1.389  0.00  0.00    +0.000 C 
ATOM     36  C4  UNL     1      -7.450   1.921   1.527  0.00  0.00    +0.000 C 
ATOM     37  O2  UNL     1      -7.538   1.110   2.430  0.00  0.00    +0.000 OA
ATOM     38  N1  UNL     1      -6.593   1.943   0.476  0.00  0.00    +0.000 N 
ENDBRANCH  31  38
ENDBRANCH  30  31
ENDBRANCH  29  30
ENDBRANCH  28  29
ENDBRANCH  27  28
ENDBRANCH  23  27
ENDBRANCH  21  25
ENDBRANCH   1  22
TORSDOF 8
