REMARK  Name = /home/anacleto/Desktop/manuscript_Mpro/naturecomm/supplementary_file_S2/6-chemical-library/molecular_docking/3D_ligand_structure/4472.pdb
REMARK  6 active torsions:
REMARK  status: ('A' for Active; 'I' for Inactive)
REMARK    1  A    between atoms: C5_6  and  O2_7
REMARK    2  A    between atoms: O2_7  and  C6_8
REMARK    3  A    between atoms: C6_8  and  C7_9
REMARK    4  A    between atoms: C7_9  and  C8_10
REMARK    5  A    between atoms: C8_10  and  C9_11
REMARK    6  A    between atoms: C9_11  and  C10_12
REMARK                            x       y       z     vdW  Elec       q    Type
REMARK                         _______ _______ _______ _____ _____    ______ ____
ROOT
ATOM      1  C10 UNL     1       0.137  -0.410  -0.710  0.00  0.00    +0.000 C 
ATOM      2  C11 UNL     1      -0.057  -1.921  -0.580  0.00  0.00    +0.000 C 
ATOM      3  C12 UNL     1      -1.551  -2.057  -0.341  0.00  0.00    +0.000 C 
ATOM      4  C13 UNL     1      -2.150  -1.079  -1.357  0.00  0.00    +0.000 C 
ATOM      5  C14 UNL     1      -1.149   0.097  -1.424  0.00  0.00    +0.000 C 
ATOM      6  C15 UNL     1      -3.608  -0.697  -1.052  0.00  0.00    +0.000 C 
ATOM      7  C16 UNL     1      -3.781   0.286   0.145  0.00  0.00    +0.000 C 
ATOM      8  C17 UNL     1      -2.508   1.107   0.455  0.00  0.00    +0.000 C 
ATOM      9  C18 UNL     1      -1.681   1.388  -0.794  0.00  0.00    +0.000 C 
ATOM     10  C19 UNL     1      -5.013   1.242   0.030  0.00  0.00    +0.000 C 
ATOM     11  C20 UNL     1      -6.086   0.757  -0.923  0.00  0.00    +0.000 C 
ATOM     12  C21 UNL     1      -5.750   0.107  -2.046  0.00  0.00    +0.000 C 
ATOM     13  C22 UNL     1      -4.322  -0.230  -2.334  0.00  0.00    +0.000 C 
ATOM     14  C23 UNL     1      -7.506   1.074  -0.551  0.00  0.00    +0.000 C 
ATOM     15  C24 UNL     1      -7.847   0.499   0.825  0.00  0.00    +0.000 C 
ATOM     16  C25 UNL     1      -6.693   0.568   1.833  0.00  0.00    +0.000 C 
ATOM     17  C26 UNL     1      -5.607   1.564   1.423  0.00  0.00    +0.000 C 
ENDROOT
BRANCH   1  18
ATOM     18  C9  UNL     1       1.416  -0.019  -1.464  0.00  0.00    +0.000 C 
BRANCH  18  19
ATOM     19  C8  UNL     1       2.716  -0.523  -0.824  0.00  0.00    +0.000 C 
BRANCH  19  20
ATOM     20  C7  UNL     1       3.038   0.159   0.510  0.00  0.00    +0.000 C 
BRANCH  20  21
ATOM     21  C6  UNL     1       4.298  -0.409   1.161  0.00  0.00    +0.000 C 
BRANCH  21  22
ATOM     22  O2  UNL     1       5.405  -0.271   0.273  0.00  0.00    +0.000 OA
BRANCH  22  28
ATOM     23  O1  UNL     1       7.087  -0.013   1.909  0.00  0.00    +0.000 OA
ATOM     24  C1  UNL     1       7.948   1.032   1.470  0.00  0.00    +0.000 C 
ATOM     25  C2  UNL     1       9.258   0.441   0.952  0.00  0.00    +0.000 C 
ATOM     26  C3  UNL     1       9.044  -0.885   0.221  0.00  0.00    +0.000 C 
ATOM     27  C4  UNL     1       7.623  -0.972  -0.309  0.00  0.00    +0.000 C 
ATOM     28  C5  UNL     1       6.602  -0.816   0.829  0.00  0.00    +0.000 C 
ENDBRANCH  22  28
ENDBRANCH  21  22
ENDBRANCH  20  21
ENDBRANCH  19  20
ENDBRANCH  18  19
ENDBRANCH   1  18
TORSDOF 6
