REMARK  Name = /home/anacleto/Desktop/manuscript_Mpro/naturecomm/supplementary_file_S2/6-chemical-library/molecular_docking/3D_ligand_structure/4474.pdb
REMARK  2 active torsions:
REMARK  status: ('A' for Active; 'I' for Inactive)
REMARK    1  A    between atoms: C15_17  and  O3_21
REMARK    2  A    between atoms: O3_21  and  C19_22
REMARK                            x       y       z     vdW  Elec       q    Type
REMARK                         _______ _______ _______ _____ _____    ______ ____
ROOT
ATOM      1  C1  UNL     1       5.433  -1.174  -2.149  0.00  0.00    +0.000 A 
ATOM      2  C2  UNL     1       5.583  -1.602  -3.469  0.00  0.00    +0.000 A 
ATOM      3  C3  UNL     1       4.460  -1.787  -4.274  0.00  0.00    +0.000 A 
ATOM      4  C4  UNL     1       3.185  -1.543  -3.762  0.00  0.00    +0.000 A 
ATOM      5  C5  UNL     1       3.031  -1.114  -2.437  0.00  0.00    +0.000 A 
ATOM      6  C6  UNL     1       1.678  -0.857  -1.904  0.00  0.00    +0.000 C 
ATOM      7  O1  UNL     1       0.695  -1.001  -2.621  0.00  0.00    +0.000 OA
ATOM      8  C7  UNL     1       4.154  -0.929  -1.632  0.00  0.00    +0.000 A 
ATOM      9  C8  UNL     1       4.005  -0.475  -0.235  0.00  0.00    +0.000 C 
ATOM     10  O2  UNL     1       4.994  -0.303   0.470  0.00  0.00    +0.000 OA
ATOM     11  C9  UNL     1       2.651  -0.233   0.303  0.00  0.00    +0.000 A 
ATOM     12  C10 UNL     1       1.529  -0.421  -0.500  0.00  0.00    +0.000 A 
ATOM     13  C11 UNL     1       2.502   0.195   1.629  0.00  0.00    +0.000 A 
ATOM     14  C12 UNL     1       1.224   0.421   2.153  0.00  0.00    +0.000 A 
ATOM     15  C13 UNL     1       0.086   0.230   1.346  0.00  0.00    +0.000 A 
ATOM     16  C14 UNL     1       0.248  -0.187   0.018  0.00  0.00    +0.000 A 
ATOM     17  C15 UNL     1      -1.272   0.543   1.957  0.00  0.00    +0.000 C 
ATOM     18  C16 UNL     1      -1.350  -0.063   3.366  0.00  0.00    +0.000 C 
ATOM     19  C17 UNL     1      -0.126   0.204   4.253  0.00  0.00    +0.000 C 
ATOM     20  C18 UNL     1       1.029   0.925   3.558  0.00  0.00    +0.000 C 
ENDROOT
BRANCH  17  21
ATOM     21  O3  UNL     1      -2.309  -0.007   1.143  0.00  0.00    +0.000 OA
BRANCH  21  22
ATOM     22  C19 UNL     1      -3.550   0.685   1.261  0.00  0.00    +0.000 C 
ATOM     23  C20 UNL     1      -4.642  -0.131   0.566  0.00  0.00    +0.000 C 
ATOM     24  C21 UNL     1      -4.460  -0.127  -0.949  0.00  0.00    +0.000 C 
ATOM     25  C22 UNL     1      -4.312   1.301  -1.456  0.00  0.00    +0.000 C 
ATOM     26  C23 UNL     1      -3.233   2.038  -0.676  0.00  0.00    +0.000 C 
ATOM     27  O4  UNL     1      -3.492   2.008   0.727  0.00  0.00    +0.000 OA
ENDBRANCH  21  22
ENDBRANCH  17  21
TORSDOF 2
