REMARK  Name = /home/anacleto/Desktop/manuscript_Mpro/naturecomm/supplementary_file_S2/6-chemical-library/molecular_docking/3D_ligand_structure/449.pdb
REMARK  5 active torsions:
REMARK  status: ('A' for Active; 'I' for Inactive)
REMARK    1  A    between atoms: C5_6  and  C6_7
REMARK    2  A    between atoms: C6_7  and  C7_8
REMARK    3  A    between atoms: N2_10  and  C8_11
REMARK    4  A    between atoms: C8_11  and  S1_12
REMARK    5  A    between atoms: S1_12  and  C9_15
REMARK                            x       y       z     vdW  Elec       q    Type
REMARK                         _______ _______ _______ _____ _____    ______ ____
ROOT
ATOM      1  C7  UNL     1       0.555   0.178  -0.032  0.00  0.00    +0.000 C 
ATOM      2  O1  UNL     1       0.229   0.878   0.922  0.00  0.00    +0.000 OA
ATOM      3  N2  UNL     1       0.390  -1.187  -0.038  0.00  0.00    +0.000 N 
ATOM      4  H7  UNL     1       0.509  -1.702  -0.903  0.00  0.00    +0.000 HD
ENDROOT
BRANCH   1   5
ATOM      5  C6  UNL     1       1.175   0.750  -1.292  0.00  0.00    +0.000 C 
BRANCH   5  11
ATOM      6  C1  UNL     1       3.179  -0.330  -2.376  0.00  0.00    +0.000 A 
ATOM      7  N1  UNL     1       4.494  -0.618  -2.502  0.00  0.00    +0.000 NA
ATOM      8  C2  UNL     1       5.328  -0.061  -1.598  0.00  0.00    +0.000 A 
ATOM      9  C3  UNL     1       4.907   0.770  -0.574  0.00  0.00    +0.000 A 
ATOM     10  C4  UNL     1       3.547   1.046  -0.466  0.00  0.00    +0.000 A 
ATOM     11  C5  UNL     1       2.651   0.485  -1.381  0.00  0.00    +0.000 A 
ENDBRANCH   5  11
ENDBRANCH   1   5
BRANCH   3  12
ATOM     12  C8  UNL     1      -0.333  -1.856   1.041  0.00  0.00    +0.000 C 
BRANCH  12  13
ATOM     13  S1  UNL     1      -2.082  -2.181   0.762  0.00  0.00    +0.000 S 
ATOM     14  O2  UNL     1      -2.622  -2.866   1.922  0.00  0.00    +0.000 OA
ATOM     15  O3  UNL     1      -2.205  -2.772  -0.562  0.00  0.00    +0.000 OA
BRANCH  13  16
ATOM     16  C9  UNL     1      -2.833  -0.574   0.703  0.00  0.00    +0.000 A 
ATOM     17  C10 UNL     1      -3.236  -0.037  -0.524  0.00  0.00    +0.000 A 
ATOM     18  C11 UNL     1      -3.837   1.221  -0.556  0.00  0.00    +0.000 A 
ATOM     19  C12 UNL     1      -4.041   1.930   0.629  0.00  0.00    +0.000 A 
ATOM     20  C13 UNL     1      -3.652   1.380   1.853  0.00  0.00    +0.000 A 
ATOM     21  C14 UNL     1      -3.052   0.122   1.895  0.00  0.00    +0.000 A 
ENDBRANCH  13  16
ENDBRANCH  12  13
ENDBRANCH   3  12
TORSDOF 5
