REMARK  Name = /home/anacleto/Desktop/manuscript_Mpro/naturecomm/supplementary_file_S2/6-chemical-library/molecular_docking/3D_ligand_structure/4497.pdb
REMARK  1 active torsions:
REMARK  status: ('A' for Active; 'I' for Inactive)
REMARK    1  A    between atoms: C10_10  and  C11_11
REMARK                            x       y       z     vdW  Elec       q    Type
REMARK                         _______ _______ _______ _____ _____    ______ ____
ROOT
ATOM      1  C11 UNL     1      -1.123   1.029   0.556  0.00  0.00    +0.000 C 
ATOM      2  O1  UNL     1      -1.127   1.651   1.615  0.00  0.00    +0.000 OA
ATOM      3  N1  UNL     1      -0.001   0.387   0.034  0.00  0.00    +0.000 N 
ATOM      4  C12 UNL     1       1.206   0.421   0.879  0.00  0.00    +0.000 C 
ATOM      5  C13 UNL     1      -0.077  -0.673  -0.999  0.00  0.00    +0.000 C 
ATOM      6  C14 UNL     1       1.111  -0.634  -1.982  0.00  0.00    +0.000 C 
ATOM      7  C15 UNL     1       2.361  -0.437  -1.206  0.00  0.00    +0.000 A 
ATOM      8  C16 UNL     1       2.415   0.051   0.083  0.00  0.00    +0.000 A 
ATOM      9  C17 UNL     1       3.790   0.097   0.453  0.00  0.00    +0.000 A 
ATOM     10  N2  UNL     1       3.630  -0.679  -1.642  0.00  0.00    +0.000 N 
ATOM     11  C18 UNL     1       4.527  -0.366  -0.642  0.00  0.00    +0.000 A 
ATOM     12  C19 UNL     1       5.925  -0.454  -0.628  0.00  0.00    +0.000 A 
ATOM     13  C20 UNL     1       6.587  -0.061   0.539  0.00  0.00    +0.000 A 
ATOM     14  C21 UNL     1       5.880   0.404   1.645  0.00  0.00    +0.000 A 
ATOM     15  C22 UNL     1       4.483   0.488   1.616  0.00  0.00    +0.000 A 
ATOM     16  H14 UNL     1       3.888  -1.031  -2.553  0.00  0.00    +0.000 HD
ENDROOT
BRANCH   1  26
ATOM     17  C1  UNL     1      -3.423  -0.708   1.285  0.00  0.00    +0.000 A 
ATOM     18  C2  UNL     1      -4.508  -1.528   1.600  0.00  0.00    +0.000 A 
ATOM     19  C3  UNL     1      -5.640  -1.518   0.795  0.00  0.00    +0.000 A 
ATOM     20  C4  UNL     1      -5.691  -0.686  -0.323  0.00  0.00    +0.000 A 
ATOM     21  C5  UNL     1      -4.609   0.146  -0.655  0.00  0.00    +0.000 A 
ATOM     22  C6  UNL     1      -3.448   0.142   0.155  0.00  0.00    +0.000 A 
ATOM     23  C7  UNL     1      -4.671   0.984  -1.783  0.00  0.00    +0.000 A 
ATOM     24  C8  UNL     1      -3.607   1.818  -2.125  0.00  0.00    +0.000 A 
ATOM     25  C9  UNL     1      -2.457   1.823  -1.346  0.00  0.00    +0.000 A 
ATOM     26  C10 UNL     1      -2.377   0.986  -0.224  0.00  0.00    +0.000 A 
ENDBRANCH   1  26
TORSDOF 1
