REMARK  Name = /home/anacleto/Desktop/manuscript_Mpro/naturecomm/supplementary_file_S2/6-chemical-library/molecular_docking/3D_ligand_structure/4498.pdb
REMARK  2 active torsions:
REMARK  status: ('A' for Active; 'I' for Inactive)
REMARK    1  A    between atoms: C16_16  and  O1_18
REMARK    2  A    between atoms: O1_18  and  C18_19
REMARK                            x       y       z     vdW  Elec       q    Type
REMARK                         _______ _______ _______ _____ _____    ______ ____
ROOT
ATOM      1  C1  UNL     1      -4.850   0.767   1.759  0.00  0.00    +0.000 C 
ATOM      2  C2  UNL     1      -5.970   1.343   0.896  0.00  0.00    +0.000 C 
ATOM      3  C3  UNL     1      -6.249   0.262  -0.133  0.00  0.00    +0.000 C 
ATOM      4  C4  UNL     1      -4.867  -0.292  -0.470  0.00  0.00    +0.000 C 
ATOM      5  C5  UNL     1      -4.098  -0.241   0.871  0.00  0.00    +0.000 C 
ATOM      6  C6  UNL     1      -4.161   0.499  -1.578  0.00  0.00    +0.000 C 
ATOM      7  C7  UNL     1      -2.731   0.008  -1.827  0.00  0.00    +0.000 C 
ATOM      8  C8  UNL     1      -2.078  -0.603  -0.572  0.00  0.00    +0.000 C 
ATOM      9  C9  UNL     1      -2.597   0.087   0.707  0.00  0.00    +0.000 C 
ATOM     10  C10 UNL     1      -1.783  -0.298   1.960  0.00  0.00    +0.000 C 
ATOM     11  C11 UNL     1      -0.994  -1.592   1.769  0.00  0.00    +0.000 C 
ATOM     12  C12 UNL     1      -0.016  -1.531   0.577  0.00  0.00    +0.000 C 
ATOM     13  C13 UNL     1      -0.539  -0.679  -0.619  0.00  0.00    +0.000 C 
ATOM     14  C14 UNL     1       0.164   0.688  -0.680  0.00  0.00    +0.000 C 
ATOM     15  C15 UNL     1       1.686   0.559  -0.806  0.00  0.00    +0.000 C 
ATOM     16  C16 UNL     1       2.256  -0.705  -0.155  0.00  0.00    +0.000 C 
ATOM     17  C17 UNL     1       1.392  -1.112   1.036  0.00  0.00    +0.000 C 
ENDROOT
BRANCH  16  18
ATOM     18  O1  UNL     1       3.598  -0.540   0.304  0.00  0.00    +0.000 OA
BRANCH  18  19
ATOM     19  C18 UNL     1       4.537  -0.268  -0.735  0.00  0.00    +0.000 C 
ATOM     20  C19 UNL     1       5.864  -0.959  -0.378  0.00  0.00    +0.000 C 
ATOM     21  C20 UNL     1       7.042  -0.184  -0.938  0.00  0.00    +0.000 C 
ATOM     22  C21 UNL     1       7.036   1.251  -0.411  0.00  0.00    +0.000 C 
ATOM     23  C22 UNL     1       5.634   1.714  -0.032  0.00  0.00    +0.000 C 
ATOM     24  O2  UNL     1       4.685   1.144  -0.925  0.00  0.00    +0.000 OA
ENDBRANCH  18  19
ENDBRANCH  16  18
TORSDOF 2
