REMARK  Name = /home/anacleto/Desktop/manuscript_Mpro/naturecomm/supplementary_file_S2/6-chemical-library/molecular_docking/3D_ligand_structure/4499.pdb
REMARK  2 active torsions:
REMARK  status: ('A' for Active; 'I' for Inactive)
REMARK    1  A    between atoms: C10_10  and  O1_11
REMARK    2  A    between atoms: O1_11  and  C11_12
REMARK                            x       y       z     vdW  Elec       q    Type
REMARK                         _______ _______ _______ _____ _____    ______ ____
ROOT
ATOM      1  C1  UNL     1       0.295  -1.810  -1.487  0.00  0.00    +0.000 C 
ATOM      2  C2  UNL     1       0.344  -3.309  -1.794  0.00  0.00    +0.000 C 
ATOM      3  C3  UNL     1       0.092  -4.031  -0.471  0.00  0.00    +0.000 C 
ATOM      4  C4  UNL     1      -0.487  -2.969   0.464  0.00  0.00    +0.000 C 
ATOM      5  C5  UNL     1       0.277  -1.708   0.043  0.00  0.00    +0.000 C 
ATOM      6  C6  UNL     1      -2.000  -2.821   0.296  0.00  0.00    +0.000 C 
ATOM      7  C7  UNL     1      -2.519  -1.577   1.005  0.00  0.00    +0.000 C 
ATOM      8  C8  UNL     1      -1.836  -0.293   0.487  0.00  0.00    +0.000 C 
ATOM      9  C9  UNL     1      -0.301  -0.407   0.640  0.00  0.00    +0.000 C 
ATOM     10  C10 UNL     1       0.422   0.849   0.098  0.00  0.00    +0.000 C 
ATOM     11  C16 UNL     1      -0.239   2.115   0.571  0.00  0.00    +0.000 C 
ATOM     12  C17 UNL     1      -1.478   2.175   1.086  0.00  0.00    +0.000 C 
ATOM     13  C18 UNL     1      -2.369   0.957   1.246  0.00  0.00    +0.000 C 
ATOM     14  C19 UNL     1      -3.833   1.296   0.861  0.00  0.00    +0.000 C 
ATOM     15  C20 UNL     1      -3.955   2.535  -0.027  0.00  0.00    +0.000 C 
ATOM     16  C21 UNL     1      -3.342   3.776   0.626  0.00  0.00    +0.000 C 
ATOM     17  C22 UNL     1      -2.117   3.475   1.493  0.00  0.00    +0.000 C 
ENDROOT
BRANCH  10  18
ATOM     18  O1  UNL     1       1.766   0.810   0.589  0.00  0.00    +0.000 OA
BRANCH  18  19
ATOM     19  C11 UNL     1       2.711   1.483  -0.244  0.00  0.00    +0.000 C 
ATOM     20  C12 UNL     1       4.031   1.571   0.522  0.00  0.00    +0.000 C 
ATOM     21  C13 UNL     1       4.628   0.183   0.750  0.00  0.00    +0.000 C 
ATOM     22  C14 UNL     1       4.392  -0.745  -0.438  0.00  0.00    +0.000 C 
ATOM     23  C15 UNL     1       4.010   0.037  -1.683  0.00  0.00    +0.000 C 
ATOM     24  O2  UNL     1       2.839   0.828  -1.505  0.00  0.00    +0.000 OA
ENDBRANCH  18  19
ENDBRANCH  10  18
TORSDOF 2
