REMARK  Name = /home/anacleto/Desktop/manuscript_Mpro/naturecomm/supplementary_file_S2/6-chemical-library/molecular_docking/3D_ligand_structure/4500.pdb
REMARK  1 active torsions:
REMARK  status: ('A' for Active; 'I' for Inactive)
REMARK    1  A    between atoms: C3_7  and  C6_10
REMARK                            x       y       z     vdW  Elec       q    Type
REMARK                         _______ _______ _______ _____ _____    ______ ____
ROOT
ATOM      1  C6  UNL     1      -1.873  -0.706   1.703  0.00  0.00    +0.000 C 
ATOM      2  O1  UNL     1      -2.134  -0.999   2.867  0.00  0.00    +0.000 OA
ATOM      3  N5  UNL     1      -0.582  -0.569   1.212  0.00  0.00    +0.000 N 
ATOM      4  C7  UNL     1       0.520  -0.870   2.130  0.00  0.00    +0.000 C 
ATOM      5  C8  UNL     1       1.708   0.051   1.892  0.00  0.00    +0.000 C 
ATOM      6  C9  UNL     1      -0.265  -0.669  -0.215  0.00  0.00    +0.000 C 
ATOM      7  C10 UNL     1       1.112  -0.178  -0.507  0.00  0.00    +0.000 A 
ATOM      8  C11 UNL     1       1.741   0.037  -1.717  0.00  0.00    +0.000 A 
ATOM      9  N6  UNL     1       2.020   0.134   0.477  0.00  0.00    +0.000 N 
ATOM     10  C12 UNL     1       3.211   0.559  -0.067  0.00  0.00    +0.000 A 
ATOM     11  C13 UNL     1       3.060   0.502  -1.454  0.00  0.00    +0.000 A 
ATOM     12  C14 UNL     1       4.403   0.991   0.534  0.00  0.00    +0.000 A 
ATOM     13  C15 UNL     1       5.461   1.364  -0.301  0.00  0.00    +0.000 A 
ATOM     14  C16 UNL     1       5.334   1.310  -1.686  0.00  0.00    +0.000 A 
ATOM     15  C17 UNL     1       4.139   0.882  -2.275  0.00  0.00    +0.000 A 
ENDROOT
BRANCH   1  22
ATOM     16  N1  UNL     1      -6.231  -0.175  -1.727  0.00  0.00    +0.000 NA
ATOM     17  N2  UNL     1      -6.617  -1.488  -1.636  0.00  0.00    +0.000 NA
ATOM     18  N3  UNL     1      -5.817  -2.174  -0.831  0.00  0.00    +0.000 NA
ATOM     19  N4  UNL     1      -4.888  -1.299  -0.385  0.00  0.00    +0.000 N 
ATOM     20  C1  UNL     1      -5.173  -0.057  -0.959  0.00  0.00    +0.000 A 
ATOM     21  C2  UNL     1      -3.811  -1.506   0.469  0.00  0.00    +0.000 A 
ATOM     22  C3  UNL     1      -2.995  -0.475   0.755  0.00  0.00    +0.000 A 
ATOM     23  C4  UNL     1      -3.282   0.843   0.197  0.00  0.00    +0.000 A 
ATOM     24  C5  UNL     1      -4.328   1.039  -0.631  0.00  0.00    +0.000 A 
ENDBRANCH   1  22
TORSDOF 1
