REMARK  Name = /home/anacleto/Desktop/manuscript_Mpro/naturecomm/supplementary_file_S2/6-chemical-library/molecular_docking/3D_ligand_structure/4507.pdb
REMARK  1 active torsions:
REMARK  status: ('A' for Active; 'I' for Inactive)
REMARK    1  A    between atoms: C8_9  and  C10_11
REMARK                            x       y       z     vdW  Elec       q    Type
REMARK                         _______ _______ _______ _____ _____    ______ ____
ROOT
ATOM      1  C1  UNL     1       4.000   1.064  -1.102  0.00  0.00    +0.000 A 
ATOM      2  C2  UNL     1       5.357   0.818  -0.897  0.00  0.00    +0.000 A 
ATOM      3  C3  UNL     1       5.759  -0.190  -0.023  0.00  0.00    +0.000 A 
ATOM      4  C4  UNL     1       4.804  -0.957   0.645  0.00  0.00    +0.000 A 
ATOM      5  C5  UNL     1       3.438  -0.723   0.441  0.00  0.00    +0.000 A 
ATOM      6  C6  UNL     1       3.036   0.307  -0.425  0.00  0.00    +0.000 A 
ATOM      7  C7  UNL     1       2.411  -1.537   1.190  0.00  0.00    +0.000 C 
ATOM      8  O1  UNL     1       1.089  -1.412   0.655  0.00  0.00    +0.000 OA
ATOM      9  C8  UNL     1       0.713  -0.036   0.473  0.00  0.00    +0.000 C 
ATOM     10  C9  UNL     1       1.565   0.544  -0.670  0.00  0.00    +0.000 C 
ENDROOT
BRANCH   9  11
ATOM     11  C10 UNL     1      -0.827   0.035   0.243  0.00  0.00    +0.000 C 
ATOM     12  C11 UNL     1      -1.300   1.499   0.039  0.00  0.00    +0.000 C 
ATOM     13  C12 UNL     1      -2.829   1.567  -0.125  0.00  0.00    +0.000 C 
ATOM     14  C13 UNL     1      -3.243   0.730  -1.347  0.00  0.00    +0.000 C 
ATOM     15  C14 UNL     1      -2.818  -0.734  -1.150  0.00  0.00    +0.000 C 
ATOM     16  C15 UNL     1      -1.289  -0.802  -0.982  0.00  0.00    +0.000 C 
ATOM     17  C16 UNL     1      -3.495  -1.292   0.111  0.00  0.00    +0.000 C 
ATOM     18  C17 UNL     1      -3.081  -0.464   1.337  0.00  0.00    +0.000 C 
ATOM     19  C18 UNL     1      -1.554  -0.533   1.499  0.00  0.00    +0.000 C 
ATOM     20  C19 UNL     1      -3.503   0.999   1.132  0.00  0.00    +0.000 C 
ENDBRANCH   9  11
TORSDOF 1
