REMARK  Name = /home/anacleto/Desktop/manuscript_Mpro/naturecomm/supplementary_file_S2/6-chemical-library/molecular_docking/3D_ligand_structure/4508.pdb
REMARK  6 active torsions:
REMARK  status: ('A' for Active; 'I' for Inactive)
REMARK    1  A    between atoms: C9_10  and  N2_11
REMARK    2  A    between atoms: C10_12  and  C11_14
REMARK    3  A    between atoms: C11_14  and  C12_15
REMARK    4  A    between atoms: C11_14  and  N3_21
REMARK    5  A    between atoms: C18_22  and  C19_24
REMARK    6  A    between atoms: C19_24  and  N4_25
REMARK                            x       y       z     vdW  Elec       q    Type
REMARK                         _______ _______ _______ _____ _____    ______ ____
ROOT
ATOM      1  C11 UNL     1       0.569  -0.975  -1.608  0.00  0.00    +0.000 C 
ENDROOT
BRANCH   1   2
ATOM      2  C12 UNL     1       1.137  -2.118  -2.432  0.00  0.00    +0.000 A 
ATOM      3  C13 UNL     1       1.218  -2.000  -3.828  0.00  0.00    +0.000 A 
ATOM      4  C14 UNL     1       1.735  -3.042  -4.599  0.00  0.00    +0.000 A 
ATOM      5  C15 UNL     1       2.165  -4.218  -3.986  0.00  0.00    +0.000 A 
ATOM      6  C16 UNL     1       2.073  -4.356  -2.602  0.00  0.00    +0.000 A 
ATOM      7  C17 UNL     1       1.555  -3.317  -1.828  0.00  0.00    +0.000 A 
ENDBRANCH   1   2
BRANCH   1   9
ATOM      8  N2  UNL     1       2.672  -0.086  -0.722  0.00  0.00    +0.000 N 
ATOM      9  C10 UNL     1       1.453  -0.656  -0.374  0.00  0.00    +0.000 C 
ATOM     10  O1  UNL     1       1.091  -0.942   0.766  0.00  0.00    +0.000 OA
ATOM     11  H7  UNL     1       2.977  -0.309  -1.665  0.00  0.00    +0.000 HD
BRANCH   8  21
ATOM     12  C1  UNL     1       2.301   1.389   1.985  0.00  0.00    +0.000 A 
ATOM     13  C2  UNL     1       2.221   1.990   3.245  0.00  0.00    +0.000 A 
ATOM     14  C3  UNL     1       3.370   2.191   3.994  0.00  0.00    +0.000 A 
ATOM     15  C4  UNL     1       4.602   1.813   3.470  0.00  0.00    +0.000 A 
ATOM     16  C5  UNL     1       4.692   1.211   2.202  0.00  0.00    +0.000 A 
ATOM     17  C6  UNL     1       3.530   0.942   1.435  0.00  0.00    +0.000 A 
ATOM     18  C7  UNL     1       5.937   0.894   1.658  0.00  0.00    +0.000 A 
ATOM     19  N1  UNL     1       6.130   0.358   0.436  0.00  0.00    +0.000 NA
ATOM     20  C8  UNL     1       5.012   0.086  -0.268  0.00  0.00    +0.000 A 
ATOM     21  C9  UNL     1       3.703   0.310   0.172  0.00  0.00    +0.000 A 
ENDBRANCH   8  21
ENDBRANCH   1   9
BRANCH   1  22
ATOM     22  N3  UNL     1      -0.790  -1.282  -1.196  0.00  0.00    +0.000 N 
ATOM     23  C18 UNL     1      -1.877  -0.926  -1.961  0.00  0.00    +0.000 C 
ATOM     24  O2  UNL     1      -1.767  -0.312  -3.021  0.00  0.00    +0.000 OA
ATOM     25  H14 UNL     1      -0.923  -1.659  -0.256  0.00  0.00    +0.000 HD
BRANCH  23  26
ATOM     26  C19 UNL     1      -3.228  -1.332  -1.382  0.00  0.00    +0.000 C 
BRANCH  26  27
ATOM     27  N4  UNL     1      -3.606  -0.416  -0.313  0.00  0.00    +0.000 N 
ATOM     28  N5  UNL     1      -4.428   0.635  -0.659  0.00  0.00    +0.000 NA
ATOM     29  C20 UNL     1      -3.118  -0.643   0.976  0.00  0.00    +0.000 A 
ATOM     30  O3  UNL     1      -2.370  -1.571   1.264  0.00  0.00    +0.000 OA
ATOM     31  C21 UNL     1      -3.568   0.363   2.049  0.00  0.00    +0.000 A 
ATOM     32  O4  UNL     1      -3.314   0.191   3.234  0.00  0.00    +0.000 OA
ATOM     33  N6  UNL     1      -4.282   1.423   1.561  0.00  0.00    +0.000 N 
ATOM     34  C22 UNL     1      -4.714   1.486   0.263  0.00  0.00    +0.000 A 
ATOM     35  C23 UNL     1      -4.851   2.475   2.360  0.00  0.00    +0.000 C 
ATOM     36  C24 UNL     1      -5.275   3.508   1.329  0.00  0.00    +0.000 C 
ATOM     37  C25 UNL     1      -5.602   2.681   0.089  0.00  0.00    +0.000 C 
ENDBRANCH  26  27
ENDBRANCH  23  26
ENDBRANCH   1  22
TORSDOF 6
