REMARK  Name = /home/anacleto/Desktop/manuscript_Mpro/naturecomm/supplementary_file_S2/6-chemical-library/molecular_docking/3D_ligand_structure/451.pdb
REMARK  6 active torsions:
REMARK  status: ('A' for Active; 'I' for Inactive)
REMARK    1  A    between atoms: C3_5  and  C4_6
REMARK    2  A    between atoms: N2_8  and  C5_9
REMARK    3  A    between atoms: C5_9  and  C6_10
REMARK    4  A    between atoms: N3_12  and  C7_13
REMARK    5  A    between atoms: C7_13  and  C8_14
REMARK    6  A    between atoms: C8_14  and  C9_15
REMARK                            x       y       z     vdW  Elec       q    Type
REMARK                         _______ _______ _______ _____ _____    ______ ____
ROOT
ATOM      1  C6  UNL     1       1.131  -1.370   1.976  0.00  0.00    +0.000 C 
ATOM      2  O2  UNL     1       0.773  -2.473   1.572  0.00  0.00    +0.000 OA
ATOM      3  N3  UNL     1       0.296  -0.276   2.072  0.00  0.00    +0.000 N 
ATOM      4  H6  UNL     1       0.742   0.640   2.124  0.00  0.00    +0.000 HD
ENDROOT
BRANCH   1   5
ATOM      5  C5  UNL     1       2.588  -1.057   2.313  0.00  0.00    +0.000 C 
BRANCH   5   8
ATOM      6  C4  UNL     1       3.115   0.733   0.702  0.00  0.00    +0.000 C 
ATOM      7  O1  UNL     1       2.480   1.543   1.377  0.00  0.00    +0.000 OA
ATOM      8  N2  UNL     1       3.258  -0.574   1.121  0.00  0.00    +0.000 N 
ATOM      9  H3  UNL     1       3.604  -1.256   0.458  0.00  0.00    +0.000 HD
BRANCH   6  14
ATOM     10  S1  UNL     1       4.565  -0.059  -1.548  0.00  0.00    +0.000 S 
ATOM     11  C1  UNL     1       4.835   1.170  -2.711  0.00  0.00    +0.000 A 
ATOM     12  N1  UNL     1       4.341   2.354  -2.428  0.00  0.00    +0.000 NA
ATOM     13  C2  UNL     1       3.698   2.296  -1.205  0.00  0.00    +0.000 A 
ATOM     14  C3  UNL     1       3.712   1.067  -0.573  0.00  0.00    +0.000 A 
ENDBRANCH   6  14
ENDBRANCH   5   8
ENDBRANCH   1   5
BRANCH   3  15
ATOM     15  C7  UNL     1      -1.086  -0.335   1.638  0.00  0.00    +0.000 C 
BRANCH  15  16
ATOM     16  C8  UNL     1      -1.219  -0.214   0.118  0.00  0.00    +0.000 C 
BRANCH  16  17
ATOM     17  C9  UNL     1      -2.662  -0.237  -0.317  0.00  0.00    +0.000 A 
ATOM     18  C10 UNL     1      -3.305  -1.457  -0.566  0.00  0.00    +0.000 A 
ATOM     19  C11 UNL     1      -4.649  -1.484  -0.942  0.00  0.00    +0.000 A 
ATOM     20  C12 UNL     1      -5.362  -0.294  -1.070  0.00  0.00    +0.000 A 
ATOM     21  C13 UNL     1      -4.734   0.925  -0.816  0.00  0.00    +0.000 A 
ATOM     22  C14 UNL     1      -3.390   0.955  -0.440  0.00  0.00    +0.000 A 
ENDBRANCH  16  17
ENDBRANCH  15  16
ENDBRANCH   3  15
TORSDOF 6
