REMARK  Name = /home/anacleto/Desktop/manuscript_Mpro/naturecomm/supplementary_file_S2/6-chemical-library/molecular_docking/3D_ligand_structure/4524.pdb
REMARK  5 active torsions:
REMARK  status: ('A' for Active; 'I' for Inactive)
REMARK    1  A    between atoms: C4_6  and  C5_7
REMARK    2  A    between atoms: N2_9  and  C6_10
REMARK    3  A    between atoms: C6_10  and  C7_11
REMARK    4  A    between atoms: C7_11  and  C16_21
REMARK    5  A    between atoms: N3_23  and  C17_24
REMARK                            x       y       z     vdW  Elec       q    Type
REMARK                         _______ _______ _______ _____ _____    ______ ____
ROOT
ATOM      1  C7  UNL     1       0.369   1.218  -0.923  0.00  0.00    +0.000 C 
ATOM      2  C8  UNL     1       0.906   1.364  -2.364  0.00  0.00    +0.000 C 
ATOM      3  C9  UNL     1      -0.224   1.792  -3.285  0.00  0.00    +0.000 C 
ATOM      4  O3  UNL     1      -0.779   3.056  -2.927  0.00  0.00    +0.000 OA
ATOM      5  C10 UNL     1      -0.888   3.322  -1.592  0.00  0.00    +0.000 A 
ATOM      6  C11 UNL     1      -0.348   2.525  -0.573  0.00  0.00    +0.000 A 
ATOM      7  C12 UNL     1      -1.569   4.503  -1.288  0.00  0.00    +0.000 A 
ATOM      8  C13 UNL     1      -1.728   4.908   0.033  0.00  0.00    +0.000 A 
ATOM      9  C14 UNL     1      -1.200   4.132   1.058  0.00  0.00    +0.000 A 
ATOM     10  C15 UNL     1      -0.515   2.952   0.760  0.00  0.00    +0.000 A 
ENDROOT
BRANCH   1  11
ATOM     11  C16 UNL     1      -0.546  -0.039  -0.865  0.00  0.00    +0.000 C 
ATOM     12  O4  UNL     1      -0.136  -1.103  -1.337  0.00  0.00    +0.000 OA
ATOM     13  N3  UNL     1      -1.758   0.106  -0.217  0.00  0.00    +0.000 N 
ATOM     14  H20 UNL     1      -2.026   1.045   0.038  0.00  0.00    +0.000 HD
BRANCH  13  15
ATOM     15  C17 UNL     1      -2.724  -0.897   0.071  0.00  0.00    +0.000 A 
ATOM     16  C18 UNL     1      -2.528  -2.246  -0.228  0.00  0.00    +0.000 A 
ATOM     17  N4  UNL     1      -3.409  -3.234   0.053  0.00  0.00    +0.000 NA
ATOM     18  C19 UNL     1      -4.549  -2.868   0.668  0.00  0.00    +0.000 A 
ATOM     19  C20 UNL     1      -4.871  -1.560   1.023  0.00  0.00    +0.000 A 
ATOM     20  C21 UNL     1      -3.946  -0.533   0.717  0.00  0.00    +0.000 A 
ATOM     21  C22 UNL     1      -6.087  -1.272   1.669  0.00  0.00    +0.000 A 
ATOM     22  C23 UNL     1      -6.417   0.035   2.019  0.00  0.00    +0.000 A 
ATOM     23  C24 UNL     1      -5.536   1.065   1.724  0.00  0.00    +0.000 A 
ATOM     24  C25 UNL     1      -4.322   0.788   1.085  0.00  0.00    +0.000 A 
ENDBRANCH  13  15
ENDBRANCH   1  11
BRANCH   1  25
ATOM     25  C6  UNL     1       1.554   0.932   0.041  0.00  0.00    +0.000 C 
BRANCH  25  28
ATOM     26  C5  UNL     1       3.595  -0.414   0.307  0.00  0.00    +0.000 C 
ATOM     27  O2  UNL     1       4.059   0.369   1.135  0.00  0.00    +0.000 OA
ATOM     28  N2  UNL     1       2.399  -0.190  -0.342  0.00  0.00    +0.000 N 
ATOM     29  H9  UNL     1       1.953  -0.975  -0.814  0.00  0.00    +0.000 HD
BRANCH  26  35
ATOM     30  N1  UNL     1       5.765  -1.582   0.163  0.00  0.00    +0.000 NA
ATOM     31  C1  UNL     1       6.323  -2.790   0.787  0.00  0.00    +0.000 C 
ATOM     32  C2  UNL     1       5.674  -4.065   0.233  0.00  0.00    +0.000 C 
ATOM     33  O1  UNL     1       4.269  -4.150   0.508  0.00  0.00    +0.000 OA
ATOM     34  C3  UNL     1       3.656  -2.874   0.741  0.00  0.00    +0.000 C 
ATOM     35  C4  UNL     1       4.299  -1.730  -0.063  0.00  0.00    +0.000 C 
ATOM     36  H1  UNL     1       5.909  -0.784   0.792  0.00  0.00    +0.000 HD
ENDBRANCH  26  35
ENDBRANCH  25  28
ENDBRANCH   1  25
TORSDOF 5
