REMARK  Name = /home/anacleto/Desktop/manuscript_Mpro/naturecomm/supplementary_file_S2/6-chemical-library/molecular_docking/3D_ligand_structure/4527.pdb
REMARK  6 active torsions:
REMARK  status: ('A' for Active; 'I' for Inactive)
REMARK    1  A    between atoms: C4_4  and  C5_5
REMARK    2  A    between atoms: C5_5  and  N1_6
REMARK    3  A    between atoms: C6_7  and  C7_9
REMARK    4  A    between atoms: C7_9  and  N2_10
REMARK    5  A    between atoms: C10_14  and  C17_21
REMARK    6  A    between atoms: N3_23  and  C18_24
REMARK                            x       y       z     vdW  Elec       q    Type
REMARK                         _______ _______ _______ _____ _____    ______ ____
ROOT
ATOM      1  N2  UNL     1       1.171   0.867  -0.826  0.00  0.00    +0.000 N 
ATOM      2  C8  UNL     1       1.434  -0.367  -1.417  0.00  0.00    +0.000 C 
ATOM      3  O2  UNL     1       2.451  -0.581  -2.077  0.00  0.00    +0.000 OA
ATOM      4  C9  UNL     1       0.181   0.951   0.244  0.00  0.00    +0.000 C 
ATOM      5  C10 UNL     1      -1.115   0.245  -0.169  0.00  0.00    +0.000 C 
ATOM      6  C11 UNL     1      -0.793  -1.192  -0.544  0.00  0.00    +0.000 A 
ATOM      7  C12 UNL     1       0.435  -1.455  -1.185  0.00  0.00    +0.000 A 
ATOM      8  C13 UNL     1      -1.683  -2.258  -0.338  0.00  0.00    +0.000 A 
ATOM      9  C14 UNL     1      -1.357  -3.549  -0.760  0.00  0.00    +0.000 A 
ATOM     10  C15 UNL     1      -0.147  -3.795  -1.399  0.00  0.00    +0.000 A 
ATOM     11  C16 UNL     1       0.750  -2.751  -1.610  0.00  0.00    +0.000 A 
ENDROOT
BRANCH   5  12
ATOM     12  C17 UNL     1      -2.151   0.421   0.939  0.00  0.00    +0.000 C 
ATOM     13  O3  UNL     1      -1.830   0.539   2.116  0.00  0.00    +0.000 OA
ATOM     14  N3  UNL     1      -3.452   0.415   0.454  0.00  0.00    +0.000 N 
ATOM     15  H20 UNL     1      -3.561   0.210  -0.528  0.00  0.00    +0.000 HD
BRANCH  14  16
ATOM     16  C18 UNL     1      -4.647   0.653   1.186  0.00  0.00    +0.000 A 
ATOM     17  C19 UNL     1      -4.643   1.069   2.519  0.00  0.00    +0.000 A 
ATOM     18  N4  UNL     1      -5.752   1.359   3.239  0.00  0.00    +0.000 NA
ATOM     19  C20 UNL     1      -6.933   1.226   2.607  0.00  0.00    +0.000 A 
ATOM     20  C21 UNL     1      -7.080   0.807   1.286  0.00  0.00    +0.000 A 
ATOM     21  C22 UNL     1      -5.913   0.503   0.543  0.00  0.00    +0.000 A 
ATOM     22  C23 UNL     1      -8.358   0.690   0.709  0.00  0.00    +0.000 A 
ATOM     23  C24 UNL     1      -8.509   0.260  -0.606  0.00  0.00    +0.000 A 
ATOM     24  C25 UNL     1      -7.385  -0.060  -1.356  0.00  0.00    +0.000 A 
ATOM     25  C26 UNL     1      -6.109   0.059  -0.793  0.00  0.00    +0.000 A 
ENDBRANCH  14  16
ENDBRANCH   5  12
BRANCH   1  26
ATOM     26  C7  UNL     1       2.221   1.883  -0.872  0.00  0.00    +0.000 C 
BRANCH  26  28
ATOM     27  N1  UNL     1       4.269   0.733  -0.224  0.00  0.00    +0.000 N 
ATOM     28  C6  UNL     1       3.283   1.608   0.196  0.00  0.00    +0.000 C 
ATOM     29  O1  UNL     1       3.208   2.064   1.329  0.00  0.00    +0.000 OA
ATOM     30  H10 UNL     1       4.025   0.163  -1.038  0.00  0.00    +0.000 HD
BRANCH  27  31
ATOM     31  C5  UNL     1       5.238   0.202   0.705  0.00  0.00    +0.000 C 
BRANCH  31  35
ATOM     32  C1  UNL     1       7.319   1.078  -0.628  0.00  0.00    +0.000 C 
ATOM     33  C2  UNL     1       8.581   0.246  -0.310  0.00  0.00    +0.000 C 
ATOM     34  C3  UNL     1       7.734  -0.514   0.731  0.00  0.00    +0.000 C 
ATOM     35  C4  UNL     1       6.479  -0.125  -0.102  0.00  0.00    +0.000 C 
ENDBRANCH  31  35
ENDBRANCH  27  31
ENDBRANCH  26  28
ENDBRANCH   1  26
TORSDOF 6
