REMARK  Name = /home/anacleto/Desktop/manuscript_Mpro/naturecomm/supplementary_file_S2/6-chemical-library/molecular_docking/3D_ligand_structure/4536.pdb
REMARK  4 active torsions:
REMARK  status: ('A' for Active; 'I' for Inactive)
REMARK    1  A    between atoms: C9_10  and  C10_11
REMARK    2  A    between atoms: C9_10  and  C16_20
REMARK    3  A    between atoms: C10_11  and  C11_12
REMARK    4  A    between atoms: N2_22  and  C17_23
REMARK                            x       y       z     vdW  Elec       q    Type
REMARK                         _______ _______ _______ _____ _____    ______ ____
ROOT
ATOM      1  C1  UNL     1       0.699   3.006   0.733  0.00  0.00    +0.000 A 
ATOM      2  C2  UNL     1       0.878   4.193   1.448  0.00  0.00    +0.000 A 
ATOM      3  C3  UNL     1      -0.043   5.225   1.326  0.00  0.00    +0.000 A 
ATOM      4  C4  UNL     1      -1.144   5.068   0.489  0.00  0.00    +0.000 A 
ATOM      5  C5  UNL     1      -1.331   3.880  -0.225  0.00  0.00    +0.000 A 
ATOM      6  C6  UNL     1      -0.404   2.830  -0.126  0.00  0.00    +0.000 A 
ATOM      7  O1  UNL     1      -2.451   3.868  -1.008  0.00  0.00    +0.000 OA
ATOM      8  C7  UNL     1      -2.779   2.639  -1.646  0.00  0.00    +0.000 C 
ATOM      9  C8  UNL     1      -1.558   1.860  -2.092  0.00  0.00    +0.000 C 
ATOM     10  C9  UNL     1      -0.625   1.519  -0.899  0.00  0.00    +0.000 C 
ENDROOT
BRANCH  10  11
ATOM     11  C16 UNL     1       0.721   0.998  -1.523  0.00  0.00    +0.000 C 
ATOM     12  O4  UNL     1       1.092   1.390  -2.628  0.00  0.00    +0.000 OA
ATOM     13  N2  UNL     1       1.485   0.172  -0.710  0.00  0.00    +0.000 N 
ATOM     14  H19 UNL     1       1.084  -0.099   0.169  0.00  0.00    +0.000 HD
BRANCH  13  15
ATOM     15  C17 UNL     1       2.756  -0.402  -0.998  0.00  0.00    +0.000 A 
ATOM     16  C18 UNL     1       3.433  -0.186  -2.200  0.00  0.00    +0.000 A 
ATOM     17  N3  UNL     1       4.644  -0.708  -2.510  0.00  0.00    +0.000 NA
ATOM     18  C19 UNL     1       5.216  -1.495  -1.579  0.00  0.00    +0.000 A 
ATOM     19  C20 UNL     1       4.651  -1.794  -0.341  0.00  0.00    +0.000 A 
ATOM     20  C21 UNL     1       3.387  -1.239  -0.025  0.00  0.00    +0.000 A 
ATOM     21  C22 UNL     1       5.327  -2.626   0.571  0.00  0.00    +0.000 A 
ATOM     22  C23 UNL     1       4.772  -2.926   1.811  0.00  0.00    +0.000 A 
ATOM     23  C24 UNL     1       3.536  -2.396   2.152  0.00  0.00    +0.000 A 
ATOM     24  C25 UNL     1       2.855  -1.569   1.252  0.00  0.00    +0.000 A 
ENDBRANCH  13  15
ENDBRANCH  10  11
BRANCH  10  25
ATOM     25  C10 UNL     1      -1.311   0.532   0.088  0.00  0.00    +0.000 C 
BRANCH  25  26
ATOM     26  C11 UNL     1      -1.610  -0.846  -0.479  0.00  0.00    +0.000 C 
ATOM     27  O2  UNL     1      -1.138  -1.214  -1.551  0.00  0.00    +0.000 OA
ATOM     28  N1  UNL     1      -2.405  -1.675   0.293  0.00  0.00    +0.000 N 
ATOM     29  C12 UNL     1      -2.997  -1.324   1.590  0.00  0.00    +0.000 C 
ATOM     30  C13 UNL     1      -3.402  -2.576   2.374  0.00  0.00    +0.000 C 
ATOM     31  O3  UNL     1      -4.331  -3.410   1.673  0.00  0.00    +0.000 OA
ATOM     32  C14 UNL     1      -4.176  -3.396   0.246  0.00  0.00    +0.000 C 
ATOM     33  C15 UNL     1      -2.774  -2.998  -0.223  0.00  0.00    +0.000 C 
ENDBRANCH  25  26
ENDBRANCH  10  25
TORSDOF 4
