REMARK  Name = /home/anacleto/Desktop/manuscript_Mpro/naturecomm/supplementary_file_S2/6-chemical-library/molecular_docking/3D_ligand_structure/4540.pdb
REMARK  4 active torsions:
REMARK  status: ('A' for Active; 'I' for Inactive)
REMARK    1  A    between atoms: C9_10  and  C10_11
REMARK    2  A    between atoms: C9_10  and  C14_20
REMARK    3  A    between atoms: C10_11  and  C11_12
REMARK    4  A    between atoms: N4_22  and  C15_23
REMARK                            x       y       z     vdW  Elec       q    Type
REMARK                         _______ _______ _______ _____ _____    ______ ____
ROOT
ATOM      1  C1  UNL     1      -0.278   3.784   1.194  0.00  0.00    +0.000 A 
ATOM      2  C2  UNL     1      -0.572   5.104   1.546  0.00  0.00    +0.000 A 
ATOM      3  C3  UNL     1      -1.784   5.671   1.172  0.00  0.00    +0.000 A 
ATOM      4  C4  UNL     1      -2.705   4.911   0.457  0.00  0.00    +0.000 A 
ATOM      5  C5  UNL     1      -2.419   3.586   0.114  0.00  0.00    +0.000 A 
ATOM      6  C6  UNL     1      -1.185   3.005   0.446  0.00  0.00    +0.000 A 
ATOM      7  O1  UNL     1      -3.423   2.945  -0.558  0.00  0.00    +0.000 OA
ATOM      8  C7  UNL     1      -3.298   1.530  -0.614  0.00  0.00    +0.000 C 
ATOM      9  C8  UNL     1      -1.895   1.116  -1.006  0.00  0.00    +0.000 C 
ATOM     10  C9  UNL     1      -0.868   1.533   0.072  0.00  0.00    +0.000 C 
ENDROOT
BRANCH  10  11
ATOM     11  C14 UNL     1       0.563   1.370  -0.553  0.00  0.00    +0.000 C 
ATOM     12  O4  UNL     1       1.343   2.315  -0.641  0.00  0.00    +0.000 OA
ATOM     13  N4  UNL     1       0.870   0.088  -0.987  0.00  0.00    +0.000 N 
ATOM     14  H13 UNL     1       0.161  -0.626  -0.842  0.00  0.00    +0.000 HD
BRANCH  13  15
ATOM     15  C15 UNL     1       2.085  -0.362  -1.584  0.00  0.00    +0.000 A 
ATOM     16  C16 UNL     1       3.195   0.469  -1.760  0.00  0.00    +0.000 A 
ATOM     17  N5  UNL     1       4.378   0.082  -2.293  0.00  0.00    +0.000 NA
ATOM     18  C17 UNL     1       4.469  -1.203  -2.683  0.00  0.00    +0.000 A 
ATOM     19  C18 UNL     1       3.441  -2.136  -2.578  0.00  0.00    +0.000 A 
ATOM     20  C19 UNL     1       2.207  -1.719  -2.020  0.00  0.00    +0.000 A 
ATOM     21  C20 UNL     1       3.631  -3.458  -3.021  0.00  0.00    +0.000 A 
ATOM     22  C21 UNL     1       2.606  -4.394  -2.929  0.00  0.00    +0.000 A 
ATOM     23  C22 UNL     1       1.383  -4.016  -2.397  0.00  0.00    +0.000 A 
ATOM     24  C23 UNL     1       1.186  -2.704  -1.952  0.00  0.00    +0.000 A 
ENDBRANCH  13  15
ENDBRANCH  10  11
BRANCH  10  25
ATOM     25  C10 UNL     1      -0.961   0.765   1.422  0.00  0.00    +0.000 C 
BRANCH  25  26
ATOM     26  C11 UNL     1      -1.008  -0.752   1.379  0.00  0.00    +0.000 C 
ATOM     27  O2  UNL     1      -0.945  -1.374   0.326  0.00  0.00    +0.000 OA
ATOM     28  N1  UNL     1      -1.113  -1.297   2.636  0.00  0.00    +0.000 N 
ATOM     29  C12 UNL     1      -1.133  -2.641   2.869  0.00  0.00    +0.000 A 
ATOM     30  N2  UNL     1      -1.230  -3.223   4.045  0.00  0.00    +0.000 NA
ATOM     31  N3  UNL     1      -1.204  -4.583   3.810  0.00  0.00    +0.000 NA
ATOM     32  C13 UNL     1      -1.091  -4.720   2.510  0.00  0.00    +0.000 A 
ATOM     33  O3  UNL     1      -1.043  -3.536   1.843  0.00  0.00    +0.000 OA
ATOM     34  H11 UNL     1      -1.166  -0.720   3.464  0.00  0.00    +0.000 HD
ENDBRANCH  25  26
ENDBRANCH  10  25
TORSDOF 4
