REMARK  Name = /home/anacleto/Desktop/manuscript_Mpro/naturecomm/supplementary_file_S2/6-chemical-library/molecular_docking/3D_ligand_structure/4548.pdb
REMARK  6 active torsions:
REMARK  status: ('A' for Active; 'I' for Inactive)
REMARK    1  A    between atoms: C9_10  and  N2_11
REMARK    2  A    between atoms: C10_12  and  C11_14
REMARK    3  A    between atoms: C11_14  and  C12_15
REMARK    4  A    between atoms: C14_17  and  N3_21
REMARK    5  A    between atoms: N3_21  and  C18_22
REMARK    6  A    between atoms: C18_22  and  C19_23
REMARK                            x       y       z     vdW  Elec       q    Type
REMARK                         _______ _______ _______ _____ _____    ______ ____
ROOT
ATOM      1  C12 UNL     1       0.780  -1.949  -0.468  0.00  0.00    +0.000 A 
ATOM      2  C13 UNL     1      -0.446  -1.316  -0.183  0.00  0.00    +0.000 A 
ATOM      3  C14 UNL     1      -1.265  -0.808  -1.198  0.00  0.00    +0.000 A 
ATOM      4  C15 UNL     1      -0.856  -1.011  -2.524  0.00  0.00    +0.000 A 
ATOM      5  C16 UNL     1       0.357  -1.638  -2.827  0.00  0.00    +0.000 A 
ATOM      6  C17 UNL     1       1.178  -2.101  -1.802  0.00  0.00    +0.000 A 
ENDROOT
BRANCH   3   7
ATOM      7  N3  UNL     1      -2.517  -0.233  -0.969  0.00  0.00    +0.000 N 
ATOM      8  H14 UNL     1      -2.796   0.404  -1.711  0.00  0.00    +0.000 HD
BRANCH   7   9
ATOM      9  C18 UNL     1      -2.868   0.263   0.355  0.00  0.00    +0.000 C 
BRANCH   9  10
ATOM     10  C19 UNL     1      -4.178   1.027   0.286  0.00  0.00    +0.000 A 
ATOM     11  C20 UNL     1      -4.131   2.429   0.403  0.00  0.00    +0.000 A 
ATOM     12  C21 UNL     1      -5.295   3.189   0.356  0.00  0.00    +0.000 A 
ATOM     13  C22 UNL     1      -6.526   2.560   0.187  0.00  0.00    +0.000 A 
ATOM     14  C23 UNL     1      -6.611   1.166   0.057  0.00  0.00    +0.000 A 
ATOM     15  C24 UNL     1      -5.433   0.377   0.102  0.00  0.00    +0.000 A 
ATOM     16  C25 UNL     1      -7.863   0.553  -0.119  0.00  0.00    +0.000 A 
ATOM     17  C26 UNL     1      -7.973  -0.829  -0.254  0.00  0.00    +0.000 A 
ATOM     18  C27 UNL     1      -6.831  -1.616  -0.218  0.00  0.00    +0.000 A 
ATOM     19  C28 UNL     1      -5.579  -1.021  -0.045  0.00  0.00    +0.000 A 
ENDBRANCH   9  10
ENDBRANCH   7   9
ENDBRANCH   3   7
BRANCH   1  20
ATOM     20  C11 UNL     1       1.654  -2.429   0.664  0.00  0.00    +0.000 C 
BRANCH  20  22
ATOM     21  N2  UNL     1       3.555  -0.929   0.735  0.00  0.00    +0.000 N 
ATOM     22  C10 UNL     1       2.370  -1.280   1.362  0.00  0.00    +0.000 C 
ATOM     23  O1  UNL     1       1.893  -0.753   2.363  0.00  0.00    +0.000 OA
ATOM     24  H7  UNL     1       3.759  -1.421  -0.120  0.00  0.00    +0.000 HD
BRANCH  21  34
ATOM     25  C1  UNL     1       6.020  -0.416  -0.828  0.00  0.00    +0.000 A 
ATOM     26  C2  UNL     1       7.198  -0.142  -1.534  0.00  0.00    +0.000 A 
ATOM     27  C3  UNL     1       8.055   0.857  -1.096  0.00  0.00    +0.000 A 
ATOM     28  C4  UNL     1       7.734   1.584   0.047  0.00  0.00    +0.000 A 
ATOM     29  C5  UNL     1       6.552   1.316   0.764  0.00  0.00    +0.000 A 
ATOM     30  C6  UNL     1       5.656   0.303   0.344  0.00  0.00    +0.000 A 
ATOM     31  C7  UNL     1       6.237   2.043   1.910  0.00  0.00    +0.000 A 
ATOM     32  N1  UNL     1       5.133   1.855   2.659  0.00  0.00    +0.000 NA
ATOM     33  C8  UNL     1       4.284   0.883   2.250  0.00  0.00    +0.000 A 
ATOM     34  C9  UNL     1       4.476   0.082   1.122  0.00  0.00    +0.000 A 
ENDBRANCH  21  34
ENDBRANCH  20  22
ENDBRANCH   1  20
TORSDOF 6
