REMARK  Name = /home/anacleto/Desktop/manuscript_Mpro/naturecomm/supplementary_file_S2/6-chemical-library/molecular_docking/3D_ligand_structure/4551.pdb
REMARK  4 active torsions:
REMARK  status: ('A' for Active; 'I' for Inactive)
REMARK    1  A    between atoms: N1_5  and  S1_6
REMARK    2  A    between atoms: S1_6  and  N2_9
REMARK    3  A    between atoms: C13_18  and  C14_19
REMARK    4  A    between atoms: N3_21  and  C15_22
REMARK                            x       y       z     vdW  Elec       q    Type
REMARK                         _______ _______ _______ _____ _____    ______ ____
ROOT
ATOM      1  N2  UNL     1      -1.706   0.636   1.785  0.00  0.00    +0.000 NA
ATOM      2  C5  UNL     1      -1.236   1.964   2.255  0.00  0.00    +0.000 C 
ATOM      3  C6  UNL     1      -0.827   2.912   1.148  0.00  0.00    +0.000 A 
ATOM      4  C7  UNL     1      -0.558   2.450  -0.156  0.00  0.00    +0.000 A 
ATOM      5  C8  UNL     1      -0.694   4.279   1.434  0.00  0.00    +0.000 A 
ATOM      6  C9  UNL     1      -0.339   5.184   0.434  0.00  0.00    +0.000 A 
ATOM      7  C10 UNL     1      -0.120   4.735  -0.864  0.00  0.00    +0.000 A 
ATOM      8  C11 UNL     1      -0.237   3.378  -1.162  0.00  0.00    +0.000 A 
ATOM      9  C12 UNL     1      -0.784   0.088   0.763  0.00  0.00    +0.000 C 
ATOM     10  C13 UNL     1      -0.677   0.969  -0.488  0.00  0.00    +0.000 C 
ENDROOT
BRANCH  10  11
ATOM     11  C14 UNL     1       0.493   0.419  -1.309  0.00  0.00    +0.000 C 
ATOM     12  O3  UNL     1       0.281  -0.294  -2.287  0.00  0.00    +0.000 OA
ATOM     13  N3  UNL     1       1.748   0.764  -0.823  0.00  0.00    +0.000 N 
ATOM     14  H18 UNL     1       1.772   1.653  -0.331  0.00  0.00    +0.000 HD
BRANCH  13  15
ATOM     15  C15 UNL     1       2.986   0.360  -1.390  0.00  0.00    +0.000 A 
ATOM     16  C16 UNL     1       3.978   1.341  -1.475  0.00  0.00    +0.000 A 
ATOM     17  N4  UNL     1       5.204   1.161  -2.006  0.00  0.00    +0.000 NA
ATOM     18  C17 UNL     1       5.468  -0.077  -2.474  0.00  0.00    +0.000 A 
ATOM     19  C18 UNL     1       4.588  -1.159  -2.404  0.00  0.00    +0.000 A 
ATOM     20  C19 UNL     1       3.311  -0.954  -1.827  0.00  0.00    +0.000 A 
ATOM     21  C20 UNL     1       4.976  -2.428  -2.873  0.00  0.00    +0.000 A 
ATOM     22  C21 UNL     1       4.126  -3.523  -2.750  0.00  0.00    +0.000 A 
ATOM     23  C22 UNL     1       2.888  -3.362  -2.145  0.00  0.00    +0.000 A 
ATOM     24  C23 UNL     1       2.492  -2.103  -1.683  0.00  0.00    +0.000 A 
ENDBRANCH  13  15
ENDBRANCH  10  11
BRANCH   1  25
ATOM     25  S1  UNL     1      -3.373   0.541   1.541  0.00  0.00    +0.000 S 
ATOM     26  O1  UNL     1      -3.689   1.107   0.253  0.00  0.00    +0.000 OA
ATOM     27  O2  UNL     1      -4.001   1.025   2.750  0.00  0.00    +0.000 OA
BRANCH  25  32
ATOM     28  C1  UNL     1      -3.346  -1.953   2.632  0.00  0.00    +0.000 C 
ATOM     29  C2  UNL     1      -3.587  -3.356   2.085  0.00  0.00    +0.000 C 
ATOM     30  C3  UNL     1      -3.135  -3.238   0.638  0.00  0.00    +0.000 C 
ATOM     31  C4  UNL     1      -3.631  -1.855   0.228  0.00  0.00    +0.000 C 
ATOM     32  N1  UNL     1      -3.623  -1.091   1.480  0.00  0.00    +0.000 NA
ENDBRANCH  25  32
ENDBRANCH   1  25
TORSDOF 4
