REMARK  Name = /home/anacleto/Desktop/manuscript_Mpro/naturecomm/supplementary_file_S2/6-chemical-library/molecular_docking/3D_ligand_structure/456.pdb
REMARK  4 active torsions:
REMARK  status: ('A' for Active; 'I' for Inactive)
REMARK    1  A    between atoms: C6_7  and  C7_9
REMARK    2  A    between atoms: C7_9  and  O2_10
REMARK    3  A    between atoms: O2_10  and  C8_11
REMARK    4  A    between atoms: C8_11  and  C9_13
REMARK                            x       y       z     vdW  Elec       q    Type
REMARK                         _______ _______ _______ _____ _____    ______ ____
ROOT
ATOM      1  C8  UNL     1       2.037   0.092  -1.009  0.00  0.00    +0.000 C 
ATOM      2  O3  UNL     1       1.399   0.737  -1.826  0.00  0.00    +0.000 OA
ENDROOT
BRANCH   1   3
ATOM      3  C9  UNL     1       3.466   0.335  -0.663  0.00  0.00    +0.000 A 
ATOM      4  C10 UNL     1       4.129   1.305  -1.301  0.00  0.00    +0.000 A 
ATOM      5  C11 UNL     1       5.541   1.533  -0.951  0.00  0.00    +0.000 A 
ATOM      6  O4  UNL     1       6.197   2.402  -1.513  0.00  0.00    +0.000 OA
ATOM      7  N2  UNL     1       6.063   0.723   0.018  0.00  0.00    +0.000 N 
ATOM      8  C12 UNL     1       5.384  -0.266   0.669  0.00  0.00    +0.000 A 
ATOM      9  O5  UNL     1       5.907  -0.964   1.530  0.00  0.00    +0.000 OA
ATOM     10  N3  UNL     1       4.084  -0.429   0.295  0.00  0.00    +0.000 N 
ATOM     11  H14 UNL     1       7.028   0.866   0.274  0.00  0.00    +0.000 HD
ATOM     12  H15 UNL     1       3.547  -1.145   0.775  0.00  0.00    +0.000 HD
ENDBRANCH   1   3
BRANCH   1  13
ATOM     13  O2  UNL     1       1.575  -0.967  -0.289  0.00  0.00    +0.000 OA
BRANCH  13  14
ATOM     14  C7  UNL     1       0.166  -1.182  -0.419  0.00  0.00    +0.000 C 
BRANCH  14  21
ATOM     15  C1  UNL     1      -2.814   0.693   1.120  0.00  0.00    +0.000 C 
ATOM     16  C2  UNL     1      -4.132   1.118   0.481  0.00  0.00    +0.000 C 
ATOM     17  C3  UNL     1      -4.928  -0.088  -0.004  0.00  0.00    +0.000 C 
ATOM     18  C4  UNL     1      -4.080  -0.933  -0.948  0.00  0.00    +0.000 C 
ATOM     19  C5  UNL     1      -2.762  -1.342  -0.298  0.00  0.00    +0.000 C 
ATOM     20  N1  UNL     1      -2.037  -0.196   0.254  0.00  0.00    +0.000 N 
ATOM     21  C6  UNL     1      -0.649  -0.176   0.407  0.00  0.00    +0.000 C 
ATOM     22  O1  UNL     1      -0.080   0.611   1.168  0.00  0.00    +0.000 OA
ENDBRANCH  14  21
ENDBRANCH  13  14
ENDBRANCH   1  13
TORSDOF 4
