REMARK  Name = /home/anacleto/Desktop/manuscript_Mpro/naturecomm/supplementary_file_S2/6-chemical-library/molecular_docking/3D_ligand_structure/457.pdb
REMARK  7 active torsions:
REMARK  status: ('A' for Active; 'I' for Inactive)
REMARK    1  A    between atoms: C4_5  and  C6_8
REMARK    2  A    between atoms: C6_8  and  C7_9
REMARK    3  A    between atoms: C7_9  and  C8_10
REMARK    4  A    between atoms: C8_10  and  C9_12
REMARK    5  A    between atoms: C9_12  and  O3_13
REMARK    6  A    between atoms: O3_13  and  C10_14
REMARK    7  A    between atoms: C10_14  and  C11_16
REMARK                            x       y       z     vdW  Elec       q    Type
REMARK                         _______ _______ _______ _____ _____    ______ ____
ROOT
ATOM      1  C8  UNL     1       0.794   0.329  -0.991  0.00  0.00    +0.000 C 
ATOM      2  O2  UNL     1       1.137   1.035  -0.038  0.00  0.00    +0.000 OA
ENDROOT
BRANCH   1   3
ATOM      3  C7  UNL     1      -0.663   0.030  -1.296  0.00  0.00    +0.000 C 
BRANCH   3   4
ATOM      4  C6  UNL     1      -1.620   0.816  -0.386  0.00  0.00    +0.000 C 
BRANCH   4   9
ATOM      5  N1  UNL     1      -4.041  -1.078   0.784  0.00  0.00    +0.000 N 
ATOM      6  C1  UNL     1      -3.880  -0.157   1.882  0.00  0.00    +0.000 C 
ATOM      7  C2  UNL     1      -4.110   1.300   1.487  0.00  0.00    +0.000 C 
ATOM      8  C3  UNL     1      -4.038   1.549  -0.021  0.00  0.00    +0.000 C 
ATOM      9  C4  UNL     1      -3.092   0.588  -0.754  0.00  0.00    +0.000 C 
ATOM     10  C5  UNL     1      -3.537  -0.840  -0.468  0.00  0.00    +0.000 C 
ATOM     11  O1  UNL     1      -3.428  -1.748  -1.291  0.00  0.00    +0.000 OA
ATOM     12  H1  UNL     1      -4.232  -2.059   0.978  0.00  0.00    +0.000 HD
ENDBRANCH   4   9
ENDBRANCH   3   4
ENDBRANCH   1   3
BRANCH   1  13
ATOM     13  C9  UNL     1       1.808  -0.286  -1.956  0.00  0.00    +0.000 C 
BRANCH  13  14
ATOM     14  O3  UNL     1       3.148  -0.134  -1.494  0.00  0.00    +0.000 OA
BRANCH  14  15
ATOM     15  C10 UNL     1       3.532  -1.071  -0.574  0.00  0.00    +0.000 C 
ATOM     16  O4  UNL     1       2.839  -2.021  -0.226  0.00  0.00    +0.000 OA
BRANCH  15  17
ATOM     17  C11 UNL     1       4.866  -0.838  -0.065  0.00  0.00    +0.000 A 
ATOM     18  C12 UNL     1       5.560  -1.589   0.910  0.00  0.00    +0.000 A 
ATOM     19  N2  UNL     1       6.780  -1.107   1.164  0.00  0.00    +0.000 NA
ATOM     20  N3  UNL     1       6.877  -0.047   0.346  0.00  0.00    +0.000 N 
ATOM     21  C13 UNL     1       5.760   0.158  -0.411  0.00  0.00    +0.000 A 
ATOM     22  H16 UNL     1       7.730   0.498   0.374  0.00  0.00    +0.000 HD
ENDBRANCH  15  17
ENDBRANCH  14  15
ENDBRANCH  13  14
ENDBRANCH   1  13
TORSDOF 7
