REMARK  Name = /home/anacleto/Desktop/manuscript_Mpro/naturecomm/supplementary_file_S2/6-chemical-library/molecular_docking/3D_ligand_structure/4572.pdb
REMARK  5 active torsions:
REMARK  status: ('A' for Active; 'I' for Inactive)
REMARK    1  A    between atoms: C9_10  and  C10_11
REMARK    2  A    between atoms: N2_13  and  C11_14
REMARK    3  A    between atoms: C17_21  and  N4_24
REMARK    4  A    between atoms: N4_24  and  S1_25
REMARK    5  A    between atoms: S1_25  and  C20_28
REMARK                            x       y       z     vdW  Elec       q    Type
REMARK                         _______ _______ _______ _____ _____    ______ ____
ROOT
ATOM      1  C11 UNL     1       0.375  -2.234  -0.100  0.00  0.00    +0.000 A 
ATOM      2  C12 UNL     1       0.128  -3.520  -0.584  0.00  0.00    +0.000 A 
ATOM      3  N3  UNL     1      -1.059  -4.164  -0.487  0.00  0.00    +0.000 NA
ATOM      4  C13 UNL     1      -2.061  -3.494   0.114  0.00  0.00    +0.000 A 
ATOM      5  C14 UNL     1      -1.952  -2.206   0.634  0.00  0.00    +0.000 A 
ATOM      6  C15 UNL     1      -0.703  -1.546   0.533  0.00  0.00    +0.000 A 
ATOM      7  C16 UNL     1      -3.056  -1.583   1.247  0.00  0.00    +0.000 A 
ATOM      8  C17 UNL     1      -2.961  -0.282   1.729  0.00  0.00    +0.000 A 
ATOM      9  C18 UNL     1      -1.736   0.372   1.683  0.00  0.00    +0.000 A 
ATOM     10  C19 UNL     1      -0.630  -0.241   1.083  0.00  0.00    +0.000 A 
ENDROOT
BRANCH   1  13
ATOM     11  C10 UNL     1       2.794  -2.101  -0.795  0.00  0.00    +0.000 C 
ATOM     12  O1  UNL     1       2.917  -3.195  -1.339  0.00  0.00    +0.000 OA
ATOM     13  N2  UNL     1       1.640  -1.607  -0.212  0.00  0.00    +0.000 N 
ATOM     14  H11 UNL     1       1.748  -0.682   0.197  0.00  0.00    +0.000 HD
BRANCH  11  24
ATOM     15  C1  UNL     1       3.782  -0.161  -3.073  0.00  0.00    +0.000 A 
ATOM     16  C2  UNL     1       3.577   0.904  -3.948  0.00  0.00    +0.000 A 
ATOM     17  C3  UNL     1       3.363   2.186  -3.449  0.00  0.00    +0.000 A 
ATOM     18  C4  UNL     1       3.352   2.407  -2.072  0.00  0.00    +0.000 A 
ATOM     19  C5  UNL     1       3.546   1.343  -1.178  0.00  0.00    +0.000 A 
ATOM     20  C6  UNL     1       3.773   0.049  -1.686  0.00  0.00    +0.000 A 
ATOM     21  C7  UNL     1       3.582   1.615   0.307  0.00  0.00    +0.000 C 
ATOM     22  N1  UNL     1       3.317   0.418   1.120  0.00  0.00    +0.000 NA
ATOM     23  C8  UNL     1       4.235  -0.664   0.710  0.00  0.00    +0.000 C 
ATOM     24  C9  UNL     1       3.974  -1.121  -0.739  0.00  0.00    +0.000 C 
ATOM     25  H7  UNL     1       3.510   0.654   2.095  0.00  0.00    +0.000 HD
ENDBRANCH  11  24
ENDBRANCH   1  13
BRANCH   8  26
ATOM     26  N4  UNL     1      -4.023   0.363   2.430  0.00  0.00    +0.000 N 
ATOM     27  H17 UNL     1      -4.169  -0.009   3.371  0.00  0.00    +0.000 HD
BRANCH  26  28
ATOM     28  S1  UNL     1      -5.539   0.563   1.699  0.00  0.00    +0.000 S 
ATOM     29  O2  UNL     1      -6.404   1.008   2.772  0.00  0.00    +0.000 OA
ATOM     30  O3  UNL     1      -5.872  -0.626   0.947  0.00  0.00    +0.000 OA
BRANCH  28  31
ATOM     31  C20 UNL     1      -5.538   1.930   0.511  0.00  0.00    +0.000 C 
ATOM     32  C21 UNL     1      -4.413   2.917   0.640  0.00  0.00    +0.000 C 
ATOM     33  C22 UNL     1      -4.427   1.932  -0.499  0.00  0.00    +0.000 C 
ENDBRANCH  28  31
ENDBRANCH  26  28
ENDBRANCH   8  26
TORSDOF 5
