REMARK  Name = /home/anacleto/Desktop/manuscript_Mpro/naturecomm/supplementary_file_S2/6-chemical-library/molecular_docking/3D_ligand_structure/4574.pdb
REMARK  4 active torsions:
REMARK  status: ('A' for Active; 'I' for Inactive)
REMARK    1  A    between atoms: N1_8  and  S1_9
REMARK    2  A    between atoms: S1_9  and  N2_12
REMARK    3  A    between atoms: C12_17  and  C13_18
REMARK    4  A    between atoms: N3_20  and  C14_21
REMARK                            x       y       z     vdW  Elec       q    Type
REMARK                         _______ _______ _______ _____ _____    ______ ____
ROOT
ATOM      1  C1  UNL     1       0.542   2.690   0.651  0.00  0.00    +0.000 A 
ATOM      2  C2  UNL     1       0.320   3.751   1.531  0.00  0.00    +0.000 A 
ATOM      3  C3  UNL     1      -0.970   4.049   1.955  0.00  0.00    +0.000 A 
ATOM      4  C4  UNL     1      -2.044   3.291   1.495  0.00  0.00    +0.000 A 
ATOM      5  C5  UNL     1      -1.838   2.222   0.606  0.00  0.00    +0.000 A 
ATOM      6  C6  UNL     1      -0.525   1.899   0.194  0.00  0.00    +0.000 A 
ATOM      7  C7  UNL     1      -3.046   1.428   0.138  0.00  0.00    +0.000 C 
ATOM      8  N1  UNL     1      -2.741   0.471  -0.945  0.00  0.00    +0.000 NA
ATOM      9  C11 UNL     1      -1.471  -0.249  -0.713  0.00  0.00    +0.000 C 
ATOM     10  C12 UNL     1      -0.314   0.757  -0.797  0.00  0.00    +0.000 C 
ENDROOT
BRANCH  10  11
ATOM     11  C13 UNL     1       0.986  -0.022  -0.586  0.00  0.00    +0.000 C 
ATOM     12  O3  UNL     1       1.046  -0.991   0.165  0.00  0.00    +0.000 OA
ATOM     13  N3  UNL     1       2.042   0.474  -1.341  0.00  0.00    +0.000 N 
ATOM     14  H16 UNL     1       1.769   0.955  -2.191  0.00  0.00    +0.000 HD
BRANCH  13  15
ATOM     15  C14 UNL     1       3.375  -0.016  -1.318  0.00  0.00    +0.000 A 
ATOM     16  C15 UNL     1       4.030  -0.087  -2.551  0.00  0.00    +0.000 A 
ATOM     17  N4  UNL     1       5.282  -0.553  -2.740  0.00  0.00    +0.000 NA
ATOM     18  C16 UNL     1       5.931  -0.964  -1.632  0.00  0.00    +0.000 A 
ATOM     19  C17 UNL     1       5.416  -0.899  -0.336  0.00  0.00    +0.000 A 
ATOM     20  C18 UNL     1       4.106  -0.390  -0.155  0.00  0.00    +0.000 A 
ATOM     21  C19 UNL     1       6.196  -1.303   0.763  0.00  0.00    +0.000 A 
ATOM     22  C20 UNL     1       5.712  -1.181   2.063  0.00  0.00    +0.000 A 
ATOM     23  C21 UNL     1       4.453  -0.640   2.275  0.00  0.00    +0.000 A 
ATOM     24  C22 UNL     1       3.669  -0.243   1.186  0.00  0.00    +0.000 A 
ENDBRANCH  13  15
ENDBRANCH  10  11
BRANCH   8  25
ATOM     25  S1  UNL     1      -4.048  -0.414  -1.514  0.00  0.00    +0.000 S 
ATOM     26  O1  UNL     1      -5.164   0.488  -1.679  0.00  0.00    +0.000 OA
ATOM     27  O2  UNL     1      -3.595  -1.255  -2.598  0.00  0.00    +0.000 OA
BRANCH  25  28
ATOM     28  N2  UNL     1      -4.378  -1.397  -0.189  0.00  0.00    +0.000 NA
ATOM     29  C8  UNL     1      -3.722  -2.712   0.096  0.00  0.00    +0.000 C 
ATOM     30  C9  UNL     1      -5.007  -3.185   0.797  0.00  0.00    +0.000 C 
ATOM     31  C10 UNL     1      -5.704  -2.067   0.007  0.00  0.00    +0.000 C 
ENDBRANCH  25  28
ENDBRANCH   8  25
TORSDOF 4
