REMARK  Name = /home/anacleto/Desktop/manuscript_Mpro/naturecomm/supplementary_file_S2/6-chemical-library/molecular_docking/3D_ligand_structure/4584.pdb
REMARK  3 active torsions:
REMARK  status: ('A' for Active; 'I' for Inactive)
REMARK    1  A    between atoms: C3_4  and  N2_7
REMARK    2  A    between atoms: C7_11  and  C14_18
REMARK    3  A    between atoms: N3_20  and  C15_21
REMARK                            x       y       z     vdW  Elec       q    Type
REMARK                         _______ _______ _______ _____ _____    ______ ____
ROOT
ATOM      1  N2  UNL     1      -2.646   0.779   0.193  0.00  0.00    +0.000 N 
ATOM      2  C5  UNL     1      -2.848  -0.509   0.693  0.00  0.00    +0.000 C 
ATOM      3  O2  UNL     1      -3.843  -1.182   0.450  0.00  0.00    +0.000 OA
ATOM      4  C6  UNL     1      -1.287   1.316   0.181  0.00  0.00    +0.000 C 
ATOM      5  C7  UNL     1      -0.563   1.128   1.515  0.00  0.00    +0.000 C 
ATOM      6  C8  UNL     1      -0.690  -0.302   1.997  0.00  0.00    +0.000 A 
ATOM      7  C9  UNL     1      -1.787  -1.076   1.580  0.00  0.00    +0.000 A 
ATOM      8  C10 UNL     1       0.223  -0.856   2.911  0.00  0.00    +0.000 A 
ATOM      9  C11 UNL     1       0.080  -2.172   3.350  0.00  0.00    +0.000 A 
ATOM     10  C12 UNL     1      -0.988  -2.946   2.904  0.00  0.00    +0.000 A 
ATOM     11  C13 UNL     1      -1.924  -2.397   2.029  0.00  0.00    +0.000 A 
ENDROOT
BRANCH   1  15
ATOM     12  N1  UNL     1      -4.637   0.265  -2.644  0.00  0.00    +0.000 N 
ATOM     13  C1  UNL     1      -5.596   0.231  -1.579  0.00  0.00    +0.000 C 
ATOM     14  C2  UNL     1      -5.073   1.214  -0.544  0.00  0.00    +0.000 C 
ATOM     15  C3  UNL     1      -3.567   1.319  -0.818  0.00  0.00    +0.000 C 
ATOM     16  C4  UNL     1      -3.397   0.669  -2.191  0.00  0.00    +0.000 C 
ATOM     17  O1  UNL     1      -2.348   0.511  -2.797  0.00  0.00    +0.000 OA
ATOM     18  H1  UNL     1      -4.668  -0.358  -3.442  0.00  0.00    +0.000 HD
ENDBRANCH   1  15
BRANCH   5  19
ATOM     19  C14 UNL     1       0.875   1.623   1.343  0.00  0.00    +0.000 C 
ATOM     20  O3  UNL     1       1.230   2.671   1.876  0.00  0.00    +0.000 OA
ATOM     21  N3  UNL     1       1.666   0.818   0.540  0.00  0.00    +0.000 N 
ATOM     22  H14 UNL     1       1.244  -0.040   0.214  0.00  0.00    +0.000 HD
BRANCH  21  23
ATOM     23  C15 UNL     1       3.026   1.018   0.179  0.00  0.00    +0.000 A 
ATOM     24  C16 UNL     1       3.757   2.138   0.583  0.00  0.00    +0.000 A 
ATOM     25  N4  UNL     1       5.054   2.368   0.269  0.00  0.00    +0.000 NA
ATOM     26  C17 UNL     1       5.662   1.437  -0.490  0.00  0.00    +0.000 A 
ATOM     27  C18 UNL     1       5.052   0.277  -0.963  0.00  0.00    +0.000 A 
ATOM     28  C19 UNL     1       3.695   0.047  -0.628  0.00  0.00    +0.000 A 
ATOM     29  C20 UNL     1       5.769  -0.640  -1.753  0.00  0.00    +0.000 A 
ATOM     30  C21 UNL     1       5.162  -1.798  -2.229  0.00  0.00    +0.000 A 
ATOM     31  C22 UNL     1       3.833  -2.050  -1.921  0.00  0.00    +0.000 A 
ATOM     32  C23 UNL     1       3.111  -1.145  -1.135  0.00  0.00    +0.000 A 
ENDBRANCH  21  23
ENDBRANCH   5  19
TORSDOF 3
