REMARK  Name = /home/anacleto/Desktop/manuscript_Mpro/naturecomm/supplementary_file_S2/6-chemical-library/molecular_docking/3D_ligand_structure/4589.pdb
REMARK  3 active torsions:
REMARK  status: ('A' for Active; 'I' for Inactive)
REMARK    1  A    between atoms: C8_9  and  C9_11
REMARK    2  A    between atoms: C13_17  and  C14_18
REMARK    3  A    between atoms: N4_20  and  C15_21
REMARK                            x       y       z     vdW  Elec       q    Type
REMARK                         _______ _______ _______ _____ _____    ______ ____
ROOT
ATOM      1  C1  UNL     1      -0.318  -2.787   0.361  0.00  0.00    +0.000 A 
ATOM      2  C2  UNL     1      -0.241  -4.139   0.702  0.00  0.00    +0.000 A 
ATOM      3  C3  UNL     1       0.980  -4.803   0.657  0.00  0.00    +0.000 A 
ATOM      4  C4  UNL     1       2.129  -4.115   0.273  0.00  0.00    +0.000 A 
ATOM      5  C5  UNL     1       2.070  -2.754  -0.069  0.00  0.00    +0.000 A 
ATOM      6  C6  UNL     1       0.827  -2.079  -0.042  0.00  0.00    +0.000 A 
ATOM      7  C7  UNL     1       3.351  -2.069  -0.501  0.00  0.00    +0.000 C 
ATOM      8  N1  UNL     1       3.225  -0.625  -0.626  0.00  0.00    +0.000 N 
ATOM      9  C8  UNL     1       4.417   0.084  -0.782  0.00  0.00    +0.000 C 
ATOM     10  O1  UNL     1       5.487  -0.494  -0.962  0.00  0.00    +0.000 OA
ATOM     11  C12 UNL     1       1.971  -0.190  -1.247  0.00  0.00    +0.000 C 
ATOM     12  C13 UNL     1       0.777  -0.591  -0.371  0.00  0.00    +0.000 C 
ENDROOT
BRANCH   9  13
ATOM     13  C9  UNL     1       4.377   1.521  -0.682  0.00  0.00    +0.000 A 
ATOM     14  C10 UNL     1       3.522   2.402  -0.051  0.00  0.00    +0.000 A 
ATOM     15  N2  UNL     1       3.927   3.702  -0.217  0.00  0.00    +0.000 NA
ATOM     16  C11 UNL     1       5.043   3.627  -0.903  0.00  0.00    +0.000 A 
ATOM     17  N3  UNL     1       5.368   2.334  -1.187  0.00  0.00    +0.000 N 
ATOM     18  H9  UNL     1       6.191   2.009  -1.677  0.00  0.00    +0.000 HD
ENDBRANCH   9  13
BRANCH  12  19
ATOM     19  C14 UNL     1      -0.502  -0.145  -1.083  0.00  0.00    +0.000 C 
ATOM     20  O2  UNL     1      -0.616  -0.208  -2.303  0.00  0.00    +0.000 OA
ATOM     21  N4  UNL     1      -1.476   0.306  -0.202  0.00  0.00    +0.000 N 
ATOM     22  H13 UNL     1      -1.236   0.279   0.778  0.00  0.00    +0.000 HD
BRANCH  21  23
ATOM     23  C15 UNL     1      -2.779   0.780  -0.518  0.00  0.00    +0.000 A 
ATOM     24  C16 UNL     1      -3.254   0.864  -1.829  0.00  0.00    +0.000 A 
ATOM     25  N5  UNL     1      -4.486   1.306  -2.176  0.00  0.00    +0.000 NA
ATOM     26  C17 UNL     1      -5.294   1.687  -1.169  0.00  0.00    +0.000 A 
ATOM     27  C18 UNL     1      -4.948   1.654   0.180  0.00  0.00    +0.000 A 
ATOM     28  C19 UNL     1      -3.657   1.190   0.532  0.00  0.00    +0.000 A 
ATOM     29  C20 UNL     1      -5.862   2.073   1.164  0.00  0.00    +0.000 A 
ATOM     30  C21 UNL     1      -5.521   2.042   2.513  0.00  0.00    +0.000 A 
ATOM     31  C22 UNL     1      -4.263   1.593   2.890  0.00  0.00    +0.000 A 
ATOM     32  C23 UNL     1      -3.347   1.174   1.919  0.00  0.00    +0.000 A 
ENDBRANCH  21  23
ENDBRANCH  12  19
TORSDOF 3
