REMARK  Name = /home/anacleto/Desktop/manuscript_Mpro/naturecomm/supplementary_file_S2/6-chemical-library/molecular_docking/3D_ligand_structure/4590.pdb
REMARK  3 active torsions:
REMARK  status: ('A' for Active; 'I' for Inactive)
REMARK    1  A    between atoms: C8_9  and  C9_11
REMARK    2  A    between atoms: C13_17  and  C14_18
REMARK    3  A    between atoms: N4_20  and  C15_21
REMARK                            x       y       z     vdW  Elec       q    Type
REMARK                         _______ _______ _______ _____ _____    ______ ____
ROOT
ATOM      1  C1  UNL     1      -0.821  -3.662   0.776  0.00  0.00    +0.000 A 
ATOM      2  C2  UNL     1      -1.469  -4.886   0.948  0.00  0.00    +0.000 A 
ATOM      3  C3  UNL     1      -2.840  -4.924   1.187  0.00  0.00    +0.000 A 
ATOM      4  C4  UNL     1      -3.571  -3.739   1.251  0.00  0.00    +0.000 A 
ATOM      5  C5  UNL     1      -2.937  -2.500   1.074  0.00  0.00    +0.000 A 
ATOM      6  C6  UNL     1      -1.536  -2.458   0.857  0.00  0.00    +0.000 A 
ATOM      7  C7  UNL     1      -3.770  -1.231   1.179  0.00  0.00    +0.000 C 
ATOM      8  N1  UNL     1      -3.055  -0.059   0.680  0.00  0.00    +0.000 N 
ATOM      9  C8  UNL     1      -3.411   0.424  -0.585  0.00  0.00    +0.000 C 
ATOM     10  O1  UNL     1      -4.328  -0.070  -1.237  0.00  0.00    +0.000 OA
ATOM     11  C12 UNL     1      -1.690   0.022   1.203  0.00  0.00    +0.000 C 
ATOM     12  C13 UNL     1      -0.856  -1.118   0.602  0.00  0.00    +0.000 C 
ENDROOT
BRANCH   9  13
ATOM     13  C9  UNL     1      -2.629   1.496  -1.152  0.00  0.00    +0.000 A 
ATOM     14  C10 UNL     1      -2.082   2.654  -0.631  0.00  0.00    +0.000 A 
ATOM     15  C11 UNL     1      -1.408   3.260  -1.707  0.00  0.00    +0.000 A 
ATOM     16  N2  UNL     1      -1.524   2.555  -2.833  0.00  0.00    +0.000 NA
ATOM     17  N3  UNL     1      -2.361   1.557  -2.495  0.00  0.00    +0.000 N 
ATOM     18  H9  UNL     1      -2.687   0.918  -3.215  0.00  0.00    +0.000 HD
ENDBRANCH   9  13
BRANCH  12  19
ATOM     19  C14 UNL     1       0.569  -0.947   1.118  0.00  0.00    +0.000 C 
ATOM     20  O2  UNL     1       0.973  -1.491   2.138  0.00  0.00    +0.000 OA
ATOM     21  N4  UNL     1       1.297  -0.062   0.328  0.00  0.00    +0.000 N 
ATOM     22  H13 UNL     1       0.826   0.309  -0.485  0.00  0.00    +0.000 HD
BRANCH  21  23
ATOM     23  C15 UNL     1       2.630   0.387   0.525  0.00  0.00    +0.000 A 
ATOM     24  C16 UNL     1       3.431  -0.065   1.575  0.00  0.00    +0.000 A 
ATOM     25  N5  UNL     1       4.704   0.338   1.800  0.00  0.00    +0.000 NA
ATOM     26  C17 UNL     1       5.212   1.238   0.936  0.00  0.00    +0.000 A 
ATOM     27  C18 UNL     1       4.522   1.771  -0.151  0.00  0.00    +0.000 A 
ATOM     28  C19 UNL     1       3.191   1.343  -0.377  0.00  0.00    +0.000 A 
ATOM     29  C20 UNL     1       5.135   2.711  -0.999  0.00  0.00    +0.000 A 
ATOM     30  C21 UNL     1       4.448   3.248  -2.084  0.00  0.00    +0.000 A 
ATOM     31  C22 UNL     1       3.142   2.851  -2.331  0.00  0.00    +0.000 A 
ATOM     32  C23 UNL     1       2.523   1.915  -1.494  0.00  0.00    +0.000 A 
ENDBRANCH  21  23
ENDBRANCH  12  19
TORSDOF 3
