REMARK  Name = /home/anacleto/Desktop/manuscript_Mpro/naturecomm/supplementary_file_S2/6-chemical-library/molecular_docking/3D_ligand_structure/4591.pdb
REMARK  4 active torsions:
REMARK  status: ('A' for Active; 'I' for Inactive)
REMARK    1  A    between atoms: C3_5  and  C4_6
REMARK    2  A    between atoms: C4_6  and  N3_7
REMARK    3  A    between atoms: C7_11  and  C14_18
REMARK    4  A    between atoms: N4_20  and  C15_21
REMARK                            x       y       z     vdW  Elec       q    Type
REMARK                         _______ _______ _______ _____ _____    ______ ____
ROOT
ATOM      1  N3  UNL     1      -2.507  -0.369  -0.855  0.00  0.00    +0.000 N 
ATOM      2  C5  UNL     1      -2.569  -0.450   0.533  0.00  0.00    +0.000 C 
ATOM      3  O1  UNL     1      -3.294  -1.241   1.130  0.00  0.00    +0.000 OA
ATOM      4  C6  UNL     1      -1.903   0.798  -1.502  0.00  0.00    +0.000 C 
ATOM      5  C7  UNL     1      -0.567   1.183  -0.849  0.00  0.00    +0.000 C 
ATOM      6  C8  UNL     1      -0.793   1.339   0.642  0.00  0.00    +0.000 A 
ATOM      7  C9  UNL     1      -1.726   0.516   1.298  0.00  0.00    +0.000 A 
ATOM      8  C10 UNL     1      -0.085   2.300   1.386  0.00  0.00    +0.000 A 
ATOM      9  C11 UNL     1      -0.270   2.398   2.766  0.00  0.00    +0.000 A 
ATOM     10  C12 UNL     1      -1.169   1.554   3.416  0.00  0.00    +0.000 A 
ATOM     11  C13 UNL     1      -1.902   0.621   2.684  0.00  0.00    +0.000 A 
ENDROOT
BRANCH   5  12
ATOM     12  C14 UNL     1       0.521   0.162  -1.237  0.00  0.00    +0.000 C 
ATOM     13  O2  UNL     1       0.404  -0.535  -2.242  0.00  0.00    +0.000 OA
ATOM     14  N4  UNL     1       1.661   0.203  -0.451  0.00  0.00    +0.000 N 
ATOM     15  H13 UNL     1       1.700   0.918   0.260  0.00  0.00    +0.000 HD
BRANCH  14  16
ATOM     16  C15 UNL     1       2.811  -0.626  -0.558  0.00  0.00    +0.000 A 
ATOM     17  C16 UNL     1       2.827  -1.788  -1.335  0.00  0.00    +0.000 A 
ATOM     18  N5  UNL     1       3.882  -2.628  -1.443  0.00  0.00    +0.000 NA
ATOM     19  C17 UNL     1       4.989  -2.296  -0.746  0.00  0.00    +0.000 A 
ATOM     20  C18 UNL     1       5.107  -1.169   0.068  0.00  0.00    +0.000 A 
ATOM     21  C19 UNL     1       3.994  -0.300   0.175  0.00  0.00    +0.000 A 
ATOM     22  C20 UNL     1       6.301  -0.906   0.768  0.00  0.00    +0.000 A 
ATOM     23  C21 UNL     1       6.423   0.224   1.575  0.00  0.00    +0.000 A 
ATOM     24  C22 UNL     1       5.354   1.101   1.689  0.00  0.00    +0.000 A 
ATOM     25  C23 UNL     1       4.162   0.847   1.000  0.00  0.00    +0.000 A 
ENDBRANCH  14  16
ENDBRANCH   5  12
BRANCH   1  26
ATOM     26  C4  UNL     1      -3.364  -1.231  -1.656  0.00  0.00    +0.000 C 
BRANCH  26  31
ATOM     27  N1  UNL     1      -5.590  -0.605  -0.706  0.00  0.00    +0.000 N 
ATOM     28  C1  UNL     1      -6.726   0.019  -1.130  0.00  0.00    +0.000 A 
ATOM     29  N2  UNL     1      -6.631   0.395  -2.386  0.00  0.00    +0.000 NA
ATOM     30  C2  UNL     1      -5.383  -0.002  -2.791  0.00  0.00    +0.000 A 
ATOM     31  C3  UNL     1      -4.710  -0.623  -1.763  0.00  0.00    +0.000 A 
ATOM     32  H1  UNL     1      -5.397  -0.964   0.224  0.00  0.00    +0.000 HD
ENDBRANCH  26  31
ENDBRANCH   1  26
TORSDOF 4
