REMARK  Name = /home/anacleto/Desktop/manuscript_Mpro/naturecomm/supplementary_file_S2/6-chemical-library/molecular_docking/3D_ligand_structure/4592.pdb
REMARK  4 active torsions:
REMARK  status: ('A' for Active; 'I' for Inactive)
REMARK    1  A    between atoms: C9_10  and  N2_11
REMARK    2  A    between atoms: C10_12  and  C11_14
REMARK    3  A    between atoms: N3_17  and  C20_24
REMARK    4  A    between atoms: C20_24  and  C21_25
REMARK                            x       y       z     vdW  Elec       q    Type
REMARK                         _______ _______ _______ _____ _____    ______ ____
ROOT
ATOM      1  C11 UNL     1       0.228  -0.136   1.299  0.00  0.00    +0.000 C 
ATOM      2  C12 UNL     1      -0.725   0.640   2.209  0.00  0.00    +0.000 C 
ATOM      3  C13 UNL     1      -1.554   1.622   1.401  0.00  0.00    +0.000 C 
ATOM      4  N3  UNL     1      -2.341   0.932   0.379  0.00  0.00    +0.000 N 
ATOM      5  C14 UNL     1      -1.737  -0.110  -0.336  0.00  0.00    +0.000 A 
ATOM      6  C15 UNL     1      -0.511  -0.681   0.086  0.00  0.00    +0.000 A 
ATOM      7  C16 UNL     1      -2.357  -0.693  -1.459  0.00  0.00    +0.000 A 
ATOM      8  C17 UNL     1      -1.795  -1.770  -2.155  0.00  0.00    +0.000 A 
ATOM      9  C18 UNL     1      -0.594  -2.316  -1.730  0.00  0.00    +0.000 A 
ATOM     10  C19 UNL     1       0.039  -1.783  -0.612  0.00  0.00    +0.000 A 
ENDROOT
BRANCH   1  12
ATOM     11  N2  UNL     1       2.566  -0.023   0.590  0.00  0.00    +0.000 N 
ATOM     12  C10 UNL     1       1.445   0.731   0.910  0.00  0.00    +0.000 C 
ATOM     13  O1  UNL     1       1.408   1.957   0.920  0.00  0.00    +0.000 OA
ATOM     14  H7  UNL     1       2.470  -1.019   0.698  0.00  0.00    +0.000 HD
BRANCH  11  24
ATOM     15  C1  UNL     1       4.804  -1.899   0.096  0.00  0.00    +0.000 A 
ATOM     16  C2  UNL     1       5.888  -2.750  -0.149  0.00  0.00    +0.000 A 
ATOM     17  C3  UNL     1       7.099  -2.227  -0.577  0.00  0.00    +0.000 A 
ATOM     18  C4  UNL     1       7.227  -0.854  -0.763  0.00  0.00    +0.000 A 
ATOM     19  C5  UNL     1       6.142   0.011  -0.522  0.00  0.00    +0.000 A 
ATOM     20  C6  UNL     1       4.893  -0.490  -0.081  0.00  0.00    +0.000 A 
ATOM     21  C7  UNL     1       6.275   1.387  -0.709  0.00  0.00    +0.000 A 
ATOM     22  N1  UNL     1       5.297   2.287  -0.493  0.00  0.00    +0.000 NA
ATOM     23  C8  UNL     1       4.106   1.796  -0.072  0.00  0.00    +0.000 A 
ATOM     24  C9  UNL     1       3.835   0.444   0.153  0.00  0.00    +0.000 A 
ENDBRANCH  11  24
ENDBRANCH   1  12
BRANCH   4  25
ATOM     25  C20 UNL     1      -3.393   1.758  -0.246  0.00  0.00    +0.000 C 
BRANCH  25  26
ATOM     26  C21 UNL     1      -4.788   1.185  -0.077  0.00  0.00    +0.000 A 
ATOM     27  C22 UNL     1      -5.136   0.377   1.016  0.00  0.00    +0.000 A 
ATOM     28  C23 UNL     1      -6.439  -0.104   1.161  0.00  0.00    +0.000 A 
ATOM     29  C24 UNL     1      -7.413   0.224   0.220  0.00  0.00    +0.000 A 
ATOM     30  C25 UNL     1      -7.088   1.038  -0.863  0.00  0.00    +0.000 A 
ATOM     31  C26 UNL     1      -5.785   1.521  -1.008  0.00  0.00    +0.000 A 
ENDBRANCH  25  26
ENDBRANCH   4  25
TORSDOF 4
