REMARK  Name = /home/anacleto/Desktop/manuscript_Mpro/naturecomm/supplementary_file_S2/6-chemical-library/molecular_docking/3D_ligand_structure/4593.pdb
REMARK  5 active torsions:
REMARK  status: ('A' for Active; 'I' for Inactive)
REMARK    1  A    between atoms: C4_6  and  N4_10
REMARK    2  A    between atoms: C7_11  and  C8_13
REMARK    3  A    between atoms: N5_15  and  S1_16
REMARK    4  A    between atoms: S1_16  and  C10_19
REMARK    5  A    between atoms: C10_19  and  C11_20
REMARK                            x       y       z     vdW  Elec       q    Type
REMARK                         _______ _______ _______ _____ _____    ______ ____
ROOT
ATOM      1  C8  UNL     1      -0.134  -0.196  -0.495  0.00  0.00    +0.000 C 
ATOM      2  C9  UNL     1       0.517  -0.293  -1.878  0.00  0.00    +0.000 C 
ATOM      3  N5  UNL     1       1.936  -0.695  -1.786  0.00  0.00    +0.000 NA
ATOM      4  C14 UNL     1       2.113  -2.033  -1.203  0.00  0.00    +0.000 C 
ATOM      5  C15 UNL     1       1.316  -2.221   0.072  0.00  0.00    +0.000 A 
ATOM      6  C16 UNL     1       0.230  -1.377   0.401  0.00  0.00    +0.000 A 
ATOM      7  C17 UNL     1       1.650  -3.286   0.924  0.00  0.00    +0.000 A 
ATOM      8  C18 UNL     1       0.941  -3.499   2.105  0.00  0.00    +0.000 A 
ATOM      9  C19 UNL     1      -0.110  -2.655   2.446  0.00  0.00    +0.000 A 
ATOM     10  C20 UNL     1      -0.461  -1.598   1.605  0.00  0.00    +0.000 A 
ENDROOT
BRANCH   1  12
ATOM     11  N4  UNL     1      -2.199   1.013  -0.020  0.00  0.00    +0.000 N 
ATOM     12  C7  UNL     1      -1.645  -0.055  -0.709  0.00  0.00    +0.000 C 
ATOM     13  O1  UNL     1      -2.273  -0.841  -1.412  0.00  0.00    +0.000 OA
ATOM     14  H5  UNL     1      -1.567   1.599   0.514  0.00  0.00    +0.000 HD
BRANCH  11  20
ATOM     15  C1  UNL     1      -6.745   0.363  -1.213  0.00  0.00    +0.000 A 
ATOM     16  N1  UNL     1      -6.026  -0.604  -1.785  0.00  0.00    +0.000 NA
ATOM     17  N2  UNL     1      -4.768  -0.328  -1.393  0.00  0.00    +0.000 N 
ATOM     18  C2  UNL     1      -4.649   0.776  -0.587  0.00  0.00    +0.000 A 
ATOM     19  C3  UNL     1      -5.954   1.251  -0.455  0.00  0.00    +0.000 A 
ATOM     20  C4  UNL     1      -3.557   1.395   0.028  0.00  0.00    +0.000 A 
ATOM     21  C5  UNL     1      -3.917   2.524   0.776  0.00  0.00    +0.000 A 
ATOM     22  N3  UNL     1      -5.168   3.020   0.932  0.00  0.00    +0.000 NA
ATOM     23  C6  UNL     1      -6.195   2.388   0.317  0.00  0.00    +0.000 A 
ATOM     24  H2  UNL     1      -4.007  -0.931  -1.705  0.00  0.00    +0.000 HD
ENDBRANCH  11  20
ENDBRANCH   1  12
BRANCH   3  25
ATOM     25  S1  UNL     1       3.161   0.438  -1.622  0.00  0.00    +0.000 S 
ATOM     26  O2  UNL     1       4.377  -0.193  -2.092  0.00  0.00    +0.000 OA
ATOM     27  O3  UNL     1       2.684   1.675  -2.205  0.00  0.00    +0.000 OA
BRANCH  25  28
ATOM     28  C10 UNL     1       3.301   0.667   0.164  0.00  0.00    +0.000 C 
BRANCH  28  29
ATOM     29  C11 UNL     1       4.385   1.684   0.373  0.00  0.00    +0.000 C 
ATOM     30  C12 UNL     1       5.019   1.818   1.736  0.00  0.00    +0.000 C 
ATOM     31  C13 UNL     1       5.816   1.261   0.590  0.00  0.00    +0.000 C 
ENDBRANCH  28  29
ENDBRANCH  25  28
ENDBRANCH   3  25
TORSDOF 5
