REMARK  Name = /home/anacleto/Desktop/manuscript_Mpro/naturecomm/supplementary_file_S2/6-chemical-library/molecular_docking/3D_ligand_structure/4594.pdb
REMARK  5 active torsions:
REMARK  status: ('A' for Active; 'I' for Inactive)
REMARK    1  A    between atoms: C4_6  and  N4_10
REMARK    2  A    between atoms: C7_11  and  C8_13
REMARK    3  A    between atoms: N5_15  and  S1_16
REMARK    4  A    between atoms: S1_16  and  C10_19
REMARK    5  A    between atoms: C10_19  and  C11_20
REMARK                            x       y       z     vdW  Elec       q    Type
REMARK                         _______ _______ _______ _____ _____    ______ ____
ROOT
ATOM      1  C8  UNL     1       0.172   0.359   0.316  0.00  0.00    +0.000 C 
ATOM      2  C9  UNL     1      -1.104  -0.464   0.539  0.00  0.00    +0.000 C 
ATOM      3  N5  UNL     1      -2.236   0.448   0.791  0.00  0.00    +0.000 NA
ATOM      4  C14 UNL     1      -2.525   1.410  -0.287  0.00  0.00    +0.000 C 
ATOM      5  C15 UNL     1      -1.320   1.814  -1.117  0.00  0.00    +0.000 A 
ATOM      6  C16 UNL     1      -0.026   1.311  -0.858  0.00  0.00    +0.000 A 
ATOM      7  C17 UNL     1      -1.513   2.723  -2.172  0.00  0.00    +0.000 A 
ATOM      8  C18 UNL     1      -0.441   3.138  -2.958  0.00  0.00    +0.000 A 
ATOM      9  C19 UNL     1       0.836   2.655  -2.697  0.00  0.00    +0.000 A 
ATOM     10  C20 UNL     1       1.045   1.754  -1.651  0.00  0.00    +0.000 A 
ENDROOT
BRANCH   1  12
ATOM     11  N4  UNL     1       2.517  -0.163   0.671  0.00  0.00    +0.000 N 
ATOM     12  C7  UNL     1       1.327  -0.626   0.145  0.00  0.00    +0.000 C 
ATOM     13  O1  UNL     1       1.186  -1.707  -0.420  0.00  0.00    +0.000 OA
ATOM     14  H5  UNL     1       2.544   0.752   1.118  0.00  0.00    +0.000 HD
BRANCH  11  20
ATOM     15  C1  UNL     1       7.060  -0.053   1.825  0.00  0.00    +0.000 A 
ATOM     16  N1  UNL     1       6.325   1.044   2.178  0.00  0.00    +0.000 N 
ATOM     17  N2  UNL     1       5.023   0.982   1.826  0.00  0.00    +0.000 NA
ATOM     18  C2  UNL     1       4.891  -0.217   1.220  0.00  0.00    +0.000 A 
ATOM     19  C3  UNL     1       6.164  -0.879   1.208  0.00  0.00    +0.000 A 
ATOM     20  C4  UNL     1       3.755  -0.825   0.653  0.00  0.00    +0.000 A 
ATOM     21  C5  UNL     1       4.067  -2.088   0.117  0.00  0.00    +0.000 A 
ATOM     22  N3  UNL     1       5.306  -2.727   0.108  0.00  0.00    +0.000 NA
ATOM     23  C6  UNL     1       6.409  -2.131   0.663  0.00  0.00    +0.000 A 
ATOM     24  H2  UNL     1       6.647   1.876   2.662  0.00  0.00    +0.000 HD
ENDBRANCH  11  20
ENDBRANCH   1  12
BRANCH   3  25
ATOM     25  S1  UNL     1      -3.496  -0.066   1.767  0.00  0.00    +0.000 S 
ATOM     26  O2  UNL     1      -4.529   0.950   1.738  0.00  0.00    +0.000 OA
ATOM     27  O3  UNL     1      -2.897  -0.455   3.029  0.00  0.00    +0.000 OA
BRANCH  25  28
ATOM     28  C10 UNL     1      -4.126  -1.583   1.018  0.00  0.00    +0.000 C 
BRANCH  28  29
ATOM     29  C11 UNL     1      -4.547  -1.320  -0.393  0.00  0.00    +0.000 C 
ATOM     30  C12 UNL     1      -5.678  -2.130  -0.982  0.00  0.00    +0.000 C 
ATOM     31  C13 UNL     1      -5.864  -0.663  -0.723  0.00  0.00    +0.000 C 
ENDBRANCH  28  29
ENDBRANCH  25  28
ENDBRANCH   3  25
TORSDOF 5
