REMARK  Name = /home/anacleto/Desktop/manuscript_Mpro/naturecomm/supplementary_file_S2/6-chemical-library/molecular_docking/3D_ligand_structure/4598.pdb
REMARK  4 active torsions:
REMARK  status: ('A' for Active; 'I' for Inactive)
REMARK    1  A    between atoms: N1_8  and  C8_9
REMARK    2  A    between atoms: C8_9  and  C9_10
REMARK    3  A    between atoms: C13_16  and  C14_17
REMARK    4  A    between atoms: N3_19  and  C15_20
REMARK                            x       y       z     vdW  Elec       q    Type
REMARK                         _______ _______ _______ _____ _____    ______ ____
ROOT
ATOM      1  C1  UNL     1       0.130  -2.178  -0.757  0.00  0.00    +0.000 A 
ATOM      2  C2  UNL     1       0.603  -3.334  -1.382  0.00  0.00    +0.000 A 
ATOM      3  C3  UNL     1       1.968  -3.524  -1.559  0.00  0.00    +0.000 A 
ATOM      4  C4  UNL     1       2.863  -2.556  -1.115  0.00  0.00    +0.000 A 
ATOM      5  C5  UNL     1       2.404  -1.382  -0.492  0.00  0.00    +0.000 A 
ATOM      6  C6  UNL     1       1.019  -1.194  -0.294  0.00  0.00    +0.000 A 
ATOM      7  C7  UNL     1       3.430  -0.384   0.016  0.00  0.00    +0.000 C 
ATOM      8  N1  UNL     1       2.876   0.943   0.355  0.00  0.00    +0.000 NA
ATOM      9  C12 UNL     1       1.660   0.760   1.171  0.00  0.00    +0.000 C 
ATOM     10  C13 UNL     1       0.543   0.110   0.331  0.00  0.00    +0.000 C 
ENDROOT
BRANCH  10  11
ATOM     11  C14 UNL     1      -0.701  -0.019   1.217  0.00  0.00    +0.000 C 
ATOM     12  O1  UNL     1      -0.622  -0.216   2.426  0.00  0.00    +0.000 OA
ATOM     13  N3  UNL     1      -1.883   0.117   0.501  0.00  0.00    +0.000 N 
ATOM     14  H14 UNL     1      -1.782   0.205  -0.500  0.00  0.00    +0.000 HD
BRANCH  13  15
ATOM     15  C15 UNL     1      -3.210   0.079   1.005  0.00  0.00    +0.000 A 
ATOM     16  C16 UNL     1      -3.495   0.019   2.373  0.00  0.00    +0.000 A 
ATOM     17  N4  UNL     1      -4.741   0.000   2.902  0.00  0.00    +0.000 NA
ATOM     18  C17 UNL     1      -5.765   0.034   2.028  0.00  0.00    +0.000 A 
ATOM     19  C18 UNL     1      -5.623   0.088   0.643  0.00  0.00    +0.000 A 
ATOM     20  C19 UNL     1      -4.314   0.116   0.101  0.00  0.00    +0.000 A 
ATOM     21  C20 UNL     1      -6.754   0.116  -0.192  0.00  0.00    +0.000 A 
ATOM     22  C21 UNL     1      -6.616   0.170  -1.576  0.00  0.00    +0.000 A 
ATOM     23  C22 UNL     1      -5.348   0.197  -2.138  0.00  0.00    +0.000 A 
ATOM     24  C23 UNL     1      -4.216   0.170  -1.316  0.00  0.00    +0.000 A 
ENDBRANCH  13  15
ENDBRANCH  10  11
BRANCH   8  25
ATOM     25  C8  UNL     1       3.865   1.731   1.119  0.00  0.00    +0.000 C 
BRANCH  25  26
ATOM     26  C9  UNL     1       5.037   2.110   0.257  0.00  0.00    +0.000 A 
ATOM     27  C10 UNL     1       5.092   3.178  -0.628  0.00  0.00    +0.000 A 
ATOM     28  S1  UNL     1       6.635   3.248  -1.374  0.00  0.00    +0.000 S 
ATOM     29  C11 UNL     1       7.108   1.857  -0.481  0.00  0.00    +0.000 A 
ATOM     30  N2  UNL     1       6.205   1.352   0.332  0.00  0.00    +0.000 NA
ENDBRANCH  25  26
ENDBRANCH   8  25
TORSDOF 4
