REMARK  Name = /home/anacleto/Desktop/manuscript_Mpro/naturecomm/supplementary_file_S2/6-chemical-library/molecular_docking/3D_ligand_structure/46.pdb
REMARK  0 active torsions:
REMARK  status: ('A' for Active; 'I' for Inactive)
REMARK                            x       y       z     vdW  Elec       q    Type
REMARK                         _______ _______ _______ _____ _____    ______ ____
ROOT
ATOM      1  O1  UNL     1       2.456   0.591   0.004  0.00  0.00    +0.000 OA
ATOM      2  C1  UNL     1       1.294   0.203  -0.003  0.00  0.00    +0.000 A 
ATOM      3  C2  UNL     1       0.177   1.170   0.055  0.00  0.00    +0.000 A 
ATOM      4  C3  UNL     1      -1.085   0.737   0.046  0.00  0.00    +0.000 A 
ATOM      5  C4  UNL     1      -1.284  -0.720  -0.022  0.00  0.00    +0.000 A 
ATOM      6  N1  UNL     1      -0.342  -1.606  -0.074  0.00  0.00    +0.000 NA
ATOM      7  N2  UNL     1       0.937  -1.121  -0.063  0.00  0.00    +0.000 N 
ATOM      8  H4  UNL     1       1.684  -1.807  -0.104  0.00  0.00    +0.000 HD
ENDROOT
TORSDOF 0
