REMARK  Name = /home/anacleto/Desktop/manuscript_Mpro/naturecomm/supplementary_file_S2/6-chemical-library/molecular_docking/3D_ligand_structure/4612.pdb
REMARK  5 active torsions:
REMARK  status: ('A' for Active; 'I' for Inactive)
REMARK    1  A    between atoms: C9_10  and  N2_11
REMARK    2  A    between atoms: C10_12  and  C11_14
REMARK    3  A    between atoms: C16_20  and  O3_24
REMARK    4  A    between atoms: O3_24  and  C20_25
REMARK    5  A    between atoms: C20_25  and  C21_26
REMARK                            x       y       z     vdW  Elec       q    Type
REMARK                         _______ _______ _______ _____ _____    ______ ____
ROOT
ATOM      1  C11 UNL     1      -0.417  -0.446   0.619  0.00  0.00    +0.000 C 
ATOM      2  C12 UNL     1      -0.292  -0.393   2.141  0.00  0.00    +0.000 C 
ATOM      3  C13 UNL     1       0.797  -1.349   2.577  0.00  0.00    +0.000 C 
ATOM      4  O2  UNL     1       2.067  -0.963   2.061  0.00  0.00    +0.000 OA
ATOM      5  C14 UNL     1       2.095  -0.731   0.710  0.00  0.00    +0.000 A 
ATOM      6  C15 UNL     1       0.946  -0.445  -0.039  0.00  0.00    +0.000 A 
ATOM      7  C16 UNL     1       3.351  -0.755   0.088  0.00  0.00    +0.000 A 
ATOM      8  C17 UNL     1       3.466  -0.550  -1.289  0.00  0.00    +0.000 A 
ATOM      9  C18 UNL     1       2.326  -0.289  -2.043  0.00  0.00    +0.000 A 
ATOM     10  C19 UNL     1       1.076  -0.238  -1.425  0.00  0.00    +0.000 A 
ENDROOT
BRANCH   1  12
ATOM     11  N2  UNL     1      -2.674   0.290   0.100  0.00  0.00    +0.000 N 
ATOM     12  C10 UNL     1      -1.345   0.692   0.173  0.00  0.00    +0.000 C 
ATOM     13  O1  UNL     1      -0.930   1.821  -0.056  0.00  0.00    +0.000 OA
ATOM     14  H7  UNL     1      -2.865  -0.664   0.359  0.00  0.00    +0.000 HD
BRANCH  11  24
ATOM     15  C1  UNL     1      -5.400  -0.856   0.064  0.00  0.00    +0.000 A 
ATOM     16  C2  UNL     1      -6.701  -1.370   0.009  0.00  0.00    +0.000 A 
ATOM     17  C3  UNL     1      -7.734  -0.592  -0.496  0.00  0.00    +0.000 A 
ATOM     18  C4  UNL     1      -7.466   0.701  -0.944  0.00  0.00    +0.000 A 
ATOM     19  C5  UNL     1      -6.162   1.228  -0.887  0.00  0.00    +0.000 A 
ATOM     20  C6  UNL     1      -5.085   0.459  -0.379  0.00  0.00    +0.000 A 
ATOM     21  C7  UNL     1      -5.898   2.524  -1.330  0.00  0.00    +0.000 A 
ATOM     22  N1  UNL     1      -4.684   3.108  -1.309  0.00  0.00    +0.000 NA
ATOM     23  C8  UNL     1      -3.662   2.363  -0.826  0.00  0.00    +0.000 A 
ATOM     24  C9  UNL     1      -3.784   1.051  -0.357  0.00  0.00    +0.000 A 
ENDBRANCH  11  24
ENDBRANCH   1  12
BRANCH   7  25
ATOM     25  O3  UNL     1       4.453  -1.092   0.824  0.00  0.00    +0.000 OA
BRANCH  25  26
ATOM     26  C20 UNL     1       5.392  -0.020   0.943  0.00  0.00    +0.000 C 
BRANCH  26  27
ATOM     27  C21 UNL     1       6.744  -0.542   0.562  0.00  0.00    +0.000 C 
ATOM     28  C22 UNL     1       7.929   0.380   0.414  0.00  0.00    +0.000 C 
ATOM     29  C23 UNL     1       7.317  -0.254  -0.807  0.00  0.00    +0.000 C 
ENDBRANCH  26  27
ENDBRANCH  25  26
ENDBRANCH   7  25
TORSDOF 5
