REMARK  Name = /home/anacleto/Desktop/manuscript_Mpro/naturecomm/supplementary_file_S2/6-chemical-library/molecular_docking/3D_ligand_structure/4628.pdb
REMARK  3 active torsions:
REMARK  status: ('A' for Active; 'I' for Inactive)
REMARK    1  A    between atoms: N1_7  and  C7_10
REMARK    2  A    between atoms: C7_10  and  C8_11
REMARK    3  A    between atoms: C15_21  and  C16_22
REMARK                            x       y       z     vdW  Elec       q    Type
REMARK                         _______ _______ _______ _____ _____    ______ ____
ROOT
ATOM      1  C8  UNL     1       0.236  -0.742   1.464  0.00  0.00    +0.000 C 
ATOM      2  O1  UNL     1      -0.315  -1.508   2.260  0.00  0.00    +0.000 OA
ATOM      3  N4  UNL     1      -0.414  -0.256   0.318  0.00  0.00    +0.000 N 
ATOM      4  C9  UNL     1       0.347   0.255  -0.835  0.00  0.00    +0.000 C 
ATOM      5  C10 UNL     1      -0.489   1.020  -1.849  0.00  0.00    +0.000 C 
ATOM      6  N5  UNL     1      -1.628   0.214  -2.223  0.00  0.00    +0.000 N 
ATOM      7  C11 UNL     1      -2.229  -0.647  -1.344  0.00  0.00    +0.000 A 
ATOM      8  C12 UNL     1      -2.225   0.153  -3.447  0.00  0.00    +0.000 A 
ATOM      9  C13 UNL     1      -3.241  -0.774  -3.363  0.00  0.00    +0.000 A 
ATOM     10  C14 UNL     1      -3.244  -1.282  -2.040  0.00  0.00    +0.000 A 
ATOM     11  C15 UNL     1      -1.784  -0.781   0.093  0.00  0.00    +0.000 C 
ENDROOT
BRANCH  11  12
ATOM     12  C16 UNL     1      -2.785  -0.115   1.041  0.00  0.00    +0.000 A 
ATOM     13  C17 UNL     1      -3.405  -0.873   2.048  0.00  0.00    +0.000 A 
ATOM     14  C18 UNL     1      -4.318  -0.287   2.927  0.00  0.00    +0.000 A 
ATOM     15  C19 UNL     1      -4.627   1.066   2.813  0.00  0.00    +0.000 A 
ATOM     16  C20 UNL     1      -4.021   1.835   1.822  0.00  0.00    +0.000 A 
ATOM     17  C21 UNL     1      -3.105   1.250   0.944  0.00  0.00    +0.000 A 
ENDBRANCH  11  12
BRANCH   1  18
ATOM     18  C7  UNL     1       1.626  -0.232   1.788  0.00  0.00    +0.000 C 
BRANCH  18  25
ATOM     19  C1  UNL     1       5.685  -0.883  -0.814  0.00  0.00    +0.000 A 
ATOM     20  C2  UNL     1       6.262   0.378  -0.615  0.00  0.00    +0.000 A 
ATOM     21  C3  UNL     1       5.624   1.341   0.171  0.00  0.00    +0.000 A 
ATOM     22  C4  UNL     1       4.391   1.084   0.783  0.00  0.00    +0.000 A 
ATOM     23  C5  UNL     1       3.834  -0.182   0.567  0.00  0.00    +0.000 A 
ATOM     24  C6  UNL     1       4.452  -1.157  -0.208  0.00  0.00    +0.000 A 
ATOM     25  N1  UNL     1       2.677  -0.799   0.973  0.00  0.00    +0.000 N 
ATOM     26  N2  UNL     1       2.598  -2.058   0.505  0.00  0.00    +0.000 NA
ATOM     27  N3  UNL     1       3.676  -2.283  -0.233  0.00  0.00    +0.000 NA
ENDBRANCH  18  25
ENDBRANCH   1  18
TORSDOF 3
