REMARK  Name = /home/anacleto/Desktop/manuscript_Mpro/naturecomm/supplementary_file_S2/6-chemical-library/molecular_docking/3D_ligand_structure/463.pdb
REMARK  6 active torsions:
REMARK  status: ('A' for Active; 'I' for Inactive)
REMARK    1  A    between atoms: C1_5  and  C2_6
REMARK    2  A    between atoms: N5_8  and  C3_9
REMARK    3  A    between atoms: C3_9  and  C4_10
REMARK    4  A    between atoms: N6_12  and  C5_13
REMARK    5  A    between atoms: C5_13  and  C6_14
REMARK    6  A    between atoms: C6_14  and  C7_15
REMARK                            x       y       z     vdW  Elec       q    Type
REMARK                         _______ _______ _______ _____ _____    ______ ____
ROOT
ATOM      1  C4  UNL     1       1.271  -0.412   1.058  0.00  0.00    +0.000 C 
ATOM      2  O2  UNL     1       1.444  -1.371   0.309  0.00  0.00    +0.000 OA
ATOM      3  N6  UNL     1       0.055   0.226   1.212  0.00  0.00    +0.000 N 
ATOM      4  H5  UNL     1       0.076   1.165   1.591  0.00  0.00    +0.000 HD
ENDROOT
BRANCH   1   5
ATOM      5  C3  UNL     1       2.382   0.142   1.956  0.00  0.00    +0.000 C 
BRANCH   5   8
ATOM      6  C2  UNL     1       4.247   0.698   0.457  0.00  0.00    +0.000 C 
ATOM      7  O1  UNL     1       3.803   1.819   0.221  0.00  0.00    +0.000 OA
ATOM      8  N5  UNL     1       3.680  -0.148   1.384  0.00  0.00    +0.000 N 
ATOM      9  H2  UNL     1       3.960  -1.123   1.323  0.00  0.00    +0.000 HD
BRANCH   6  14
ATOM     10  N1  UNL     1       6.101   0.798  -1.189  0.00  0.00    +0.000 N 
ATOM     11  N2  UNL     1       7.113   0.022  -1.602  0.00  0.00    +0.000 NA
ATOM     12  N3  UNL     1       7.010  -1.089  -0.883  0.00  0.00    +0.000 NA
ATOM     13  N4  UNL     1       5.944  -1.021  -0.016  0.00  0.00    +0.000 NA
ATOM     14  C1  UNL     1       5.392   0.159  -0.218  0.00  0.00    +0.000 A 
ATOM     15  H1  UNL     1       5.956   1.715  -1.593  0.00  0.00    +0.000 HD
ENDBRANCH   6  14
ENDBRANCH   5   8
ENDBRANCH   1   5
BRANCH   3  16
ATOM     16  C5  UNL     1      -1.062  -0.112   0.344  0.00  0.00    +0.000 C 
BRANCH  16  17
ATOM     17  C6  UNL     1      -2.391   0.369   0.924  0.00  0.00    +0.000 C 
BRANCH  17  18
ATOM     18  C7  UNL     1      -3.551   0.058   0.013  0.00  0.00    +0.000 A 
ATOM     19  C8  UNL     1      -3.995   1.002  -0.923  0.00  0.00    +0.000 A 
ATOM     20  C9  UNL     1      -5.057   0.703  -1.778  0.00  0.00    +0.000 A 
ATOM     21  C10 UNL     1      -5.681  -0.540  -1.708  0.00  0.00    +0.000 A 
ATOM     22  C11 UNL     1      -5.244  -1.488  -0.785  0.00  0.00    +0.000 A 
ATOM     23  C12 UNL     1      -4.183  -1.192   0.071  0.00  0.00    +0.000 A 
ENDBRANCH  17  18
ENDBRANCH  16  17
ENDBRANCH   3  16
TORSDOF 6
