REMARK  Name = /home/anacleto/Desktop/manuscript_Mpro/naturecomm/supplementary_file_S2/6-chemical-library/molecular_docking/3D_ligand_structure/4630.pdb
REMARK  3 active torsions:
REMARK  status: ('A' for Active; 'I' for Inactive)
REMARK    1  A    between atoms: N1_7  and  C9_10
REMARK    2  A    between atoms: C9_10  and  C10_11
REMARK    3  A    between atoms: C11_14  and  C12_15
REMARK                            x       y       z     vdW  Elec       q    Type
REMARK                         _______ _______ _______ _____ _____    ______ ____
ROOT
ATOM      1  C10 UNL     1      -0.146   1.179   0.457  0.00  0.00    +0.000 C 
ATOM      2  O1  UNL     1       0.031   1.901   1.446  0.00  0.00    +0.000 OA
ATOM      3  N2  UNL     1      -0.939   0.032   0.552  0.00  0.00    +0.000 N 
ATOM      4  C11 UNL     1      -1.524  -0.658  -0.627  0.00  0.00    +0.000 C 
ATOM      5  C16 UNL     1      -1.450  -0.319   1.892  0.00  0.00    +0.000 C 
ATOM      6  C17 UNL     1      -1.400  -1.825   2.173  0.00  0.00    +0.000 C 
ATOM      7  C18 UNL     1      -2.012  -2.542   1.021  0.00  0.00    +0.000 A 
ATOM      8  C19 UNL     1      -2.076  -2.022  -0.257  0.00  0.00    +0.000 A 
ATOM      9  S2  UNL     1      -2.685  -4.094   1.158  0.00  0.00    +0.000 S 
ATOM     10  C20 UNL     1      -3.084  -4.118  -0.504  0.00  0.00    +0.000 A 
ATOM     11  C21 UNL     1      -2.700  -2.960  -1.146  0.00  0.00    +0.000 A 
ENDROOT
BRANCH   4  12
ATOM     12  C12 UNL     1      -2.581   0.224  -1.265  0.00  0.00    +0.000 A 
ATOM     13  C13 UNL     1      -3.666   0.865  -0.691  0.00  0.00    +0.000 A 
ATOM     14  C14 UNL     1      -4.432   1.607  -1.635  0.00  0.00    +0.000 A 
ATOM     15  C15 UNL     1      -3.920   1.507  -2.908  0.00  0.00    +0.000 A 
ATOM     16  S1  UNL     1      -2.529   0.519  -2.962  0.00  0.00    +0.000 S 
ENDBRANCH   4  12
BRANCH   1  17
ATOM     17  C9  UNL     1       0.508   1.547  -0.896  0.00  0.00    +0.000 C 
BRANCH  17  24
ATOM     18  C1  UNL     1       4.926   0.218   0.677  0.00  0.00    +0.000 A 
ATOM     19  C2  UNL     1       4.684  -1.150   0.567  0.00  0.00    +0.000 A 
ATOM     20  C3  UNL     1       3.503  -1.615  -0.029  0.00  0.00    +0.000 A 
ATOM     21  C4  UNL     1       2.546  -0.716  -0.516  0.00  0.00    +0.000 A 
ATOM     22  C5  UNL     1       2.773   0.644  -0.389  0.00  0.00    +0.000 A 
ATOM     23  C6  UNL     1       3.962   1.091   0.199  0.00  0.00    +0.000 A 
ATOM     24  N1  UNL     1       1.967   1.705  -0.824  0.00  0.00    +0.000 N 
ATOM     25  C7  UNL     1       2.532   2.897  -0.167  0.00  0.00    +0.000 C 
ATOM     26  C8  UNL     1       4.001   2.582   0.167  0.00  0.00    +0.000 C 
ENDBRANCH  17  24
ENDBRANCH   1  17
TORSDOF 3
