REMARK  Name = /home/anacleto/Desktop/manuscript_Mpro/naturecomm/supplementary_file_S2/6-chemical-library/molecular_docking/3D_ligand_structure/4652.pdb
REMARK  19 active torsions:
REMARK  status: ('A' for Active; 'I' for Inactive)
REMARK    1  A    between atoms: C4_5  and  C5_7
REMARK    2  A    between atoms: N2_9  and  C6_10
REMARK    3  A    between atoms: C6_10  and  C7_11
REMARK    4  A    between atoms: C6_10  and  C11_17
REMARK    5  A    between atoms: C7_11  and  C8_12
REMARK    6  A    between atoms: N5_19  and  C12_20
REMARK    7  A    between atoms: C12_20  and  C13_21
REMARK    8  A    between atoms: C12_20  and  C22_31
REMARK    9  A    between atoms: C13_21  and  C14_22
REMARK   10  A    between atoms: N7_33  and  C23_34
REMARK   11  A    between atoms: C23_34  and  C24_35
REMARK   12  A    between atoms: N8_37  and  C25_38
REMARK   13  A    between atoms: C25_38  and  C26_39
REMARK   14  A    between atoms: N9_41  and  C27_42
REMARK   15  A    between atoms: C27_42  and  C28_43
REMARK   16  A    between atoms: N10_45  and  C29_46
REMARK   17  A    between atoms: C29_46  and  C30_47
REMARK   18  A    between atoms: N11_49  and  C31_50
REMARK   19  A    between atoms: C31_50  and  C32_51
REMARK                            x       y       z     vdW  Elec       q    Type
REMARK                         _______ _______ _______ _____ _____    ______ ____
ROOT
ATOM      1  C12 UNL     1      -2.307  -0.610  -0.806  0.00  0.00    +0.000 C 
ENDROOT
BRANCH   1   2
ATOM      2  C22 UNL     1      -1.019   0.236  -0.847  0.00  0.00    +0.000 C 
ATOM      3  O4  UNL     1       0.108  -0.244  -0.956  0.00  0.00    +0.000 OA
ATOM      4  N7  UNL     1      -1.226   1.599  -0.840  0.00  0.00    +0.000 N 
ATOM      5  H24 UNL     1      -2.189   1.880  -0.991  0.00  0.00    +0.000 HD
BRANCH   4   6
ATOM      6  C23 UNL     1      -0.203   2.537  -1.290  0.00  0.00    +0.000 C 
BRANCH   6   7
ATOM      7  C24 UNL     1       0.976   2.810  -0.339  0.00  0.00    +0.000 C 
ATOM      8  O5  UNL     1       1.553   3.894  -0.332  0.00  0.00    +0.000 OA
ATOM      9  N8  UNL     1       1.441   1.728   0.371  0.00  0.00    +0.000 N 
ATOM     10  H27 UNL     1       1.082   0.806   0.125  0.00  0.00    +0.000 HD
BRANCH   9  11
ATOM     11  C25 UNL     1       2.646   1.802   1.184  0.00  0.00    +0.000 C 
BRANCH  11  12
ATOM     12  C26 UNL     1       3.935   1.486   0.412  0.00  0.00    +0.000 C 
ATOM     13  O6  UNL     1       5.050   1.596   0.921  0.00  0.00    +0.000 OA
ATOM     14  N9  UNL     1       3.765   0.952  -0.844  0.00  0.00    +0.000 N 
ATOM     15  H30 UNL     1       2.826   0.951  -1.226  0.00  0.00    +0.000 HD
BRANCH  14  16
ATOM     16  C27 UNL     1       4.870   0.788  -1.778  0.00  0.00    +0.000 C 
BRANCH  16  17
ATOM     17  C28 UNL     1       5.713  -0.481  -1.587  0.00  0.00    +0.000 C 
ATOM     18  O7  UNL     1       6.236  -1.056  -2.538  0.00  0.00    +0.000 OA
ATOM     19  N10 UNL     1       5.953  -0.836  -0.283  0.00  0.00    +0.000 N 
ATOM     20  H33 UNL     1       5.757  -0.135   0.434  0.00  0.00    +0.000 HD
BRANCH  19  21
ATOM     21  C29 UNL     1       6.823  -1.941   0.086  0.00  0.00    +0.000 C 
BRANCH  21  22
ATOM     22  C30 UNL     1       8.206  -1.495   0.583  0.00  0.00    +0.000 C 
ATOM     23  O8  UNL     1       8.902  -2.217   1.296  0.00  0.00    +0.000 OA
ATOM     24  N11 UNL     1       8.634  -0.273   0.113  0.00  0.00    +0.000 N 
ATOM     25  H36 UNL     1       8.223   0.015  -0.769  0.00  0.00    +0.000 HD
BRANCH  24  26
ATOM     26  C31 UNL     1       9.993   0.175   0.353  0.00  0.00    +0.000 C 
BRANCH  26  27
ATOM     27  C32 UNL     1      10.904  -0.197  -0.823  0.00  0.00    +0.000 C 
ATOM     28  O9  UNL     1      10.439  -0.427  -1.942  0.00  0.00    +0.000 OA
ATOM     29  N12 UNL     1      12.262  -0.185  -0.584  0.00  0.00    +0.000 N 
ATOM     30  C33 UNL     1      13.217  -0.526  -1.623  0.00  0.00    +0.000 C 
ATOM     31  C34 UNL     1      14.537  -0.690  -0.884  0.00  0.00    +0.000 C 
ATOM     32  C35 UNL     1      14.392   0.267   0.292  0.00  0.00    +0.000 C 
ATOM     33  C36 UNL     1      12.926   0.119   0.672  0.00  0.00    +0.000 C 
ENDBRANCH  26  27
ENDBRANCH  24  26
ENDBRANCH  21  22
ENDBRANCH  19  21
ENDBRANCH  16  17
ENDBRANCH  14  16
ENDBRANCH  11  12
ENDBRANCH   9  11
ENDBRANCH   6   7
ENDBRANCH   4   6
ENDBRANCH   1   2
BRANCH   1  36
ATOM     34  C11 UNL     1      -4.654   0.195  -0.843  0.00  0.00    +0.000 C 
ATOM     35  O3  UNL     1      -4.826  -0.157  -2.010  0.00  0.00    +0.000 OA
ATOM     36  N5  UNL     1      -3.419   0.167  -0.225  0.00  0.00    +0.000 N 
ATOM     37  H14 UNL     1      -3.392   0.301   0.779  0.00  0.00    +0.000 HD
BRANCH  34  38
ATOM     38  C6  UNL     1      -5.802   0.782   0.001  0.00  0.00    +0.000 C 
BRANCH  38  41
ATOM     39  C5  UNL     1      -8.102  -0.155   0.123  0.00  0.00    +0.000 C 
ATOM     40  O2  UNL     1      -8.102  -0.119   1.354  0.00  0.00    +0.000 OA
ATOM     41  N2  UNL     1      -7.043   0.313  -0.619  0.00  0.00    +0.000 N 
ATOM     42  H7  UNL     1      -6.981   0.089  -1.612  0.00  0.00    +0.000 HD
BRANCH  39  47
ATOM     43  O1  UNL     1     -12.155   0.038   1.122  0.00  0.00    +0.000 OA
ATOM     44  C1  UNL     1     -11.278  -0.026   0.279  0.00  0.00    +0.000 C 
ATOM     45  C2  UNL     1     -10.939   1.029  -0.745  0.00  0.00    +0.000 C 
ATOM     46  C3  UNL     1      -9.898   0.336  -1.625  0.00  0.00    +0.000 C 
ATOM     47  C4  UNL     1      -9.281  -0.708  -0.704  0.00  0.00    +0.000 C 
ATOM     48  N1  UNL     1     -10.383  -1.070   0.149  0.00  0.00    +0.000 N 
ATOM     49  H6  UNL     1     -10.296  -1.706   0.935  0.00  0.00    +0.000 HD
ENDBRANCH  39  47
ENDBRANCH  38  41
BRANCH  38  50
ATOM     50  C7  UNL     1      -5.675   2.313   0.001  0.00  0.00    +0.000 C 
BRANCH  50  51
ATOM     51  C8  UNL     1      -6.742   3.081   0.714  0.00  0.00    +0.000 A 
ATOM     52  C9  UNL     1      -7.105   4.410   0.606  0.00  0.00    +0.000 A 
ATOM     53  N3  UNL     1      -8.152   4.706   1.438  0.00  0.00    +0.000 NA
ATOM     54  C10 UNL     1      -8.442   3.579   2.044  0.00  0.00    +0.000 A 
ATOM     55  N4  UNL     1      -7.599   2.574   1.666  0.00  0.00    +0.000 N 
ATOM     56  H13 UNL     1      -7.671   1.607   1.976  0.00  0.00    +0.000 HD
ENDBRANCH  50  51
ENDBRANCH  38  50
ENDBRANCH  34  38
ENDBRANCH   1  36
BRANCH   1  57
ATOM     57  C13 UNL     1      -2.053  -1.926  -0.047  0.00  0.00    +0.000 C 
BRANCH  57  58
ATOM     58  C14 UNL     1      -3.279  -2.780   0.052  0.00  0.00    +0.000 A 
ATOM     59  C15 UNL     1      -3.772  -3.619  -0.929  0.00  0.00    +0.000 A 
ATOM     60  N6  UNL     1      -4.935  -4.180  -0.473  0.00  0.00    +0.000 N 
ATOM     61  C16 UNL     1      -5.226  -3.711   0.787  0.00  0.00    +0.000 A 
ATOM     62  C17 UNL     1      -4.189  -2.854   1.157  0.00  0.00    +0.000 A 
ATOM     63  C18 UNL     1      -6.315  -3.989   1.621  0.00  0.00    +0.000 A 
ATOM     64  C19 UNL     1      -6.340  -3.378   2.877  0.00  0.00    +0.000 A 
ATOM     65  C20 UNL     1      -5.317  -2.526   3.282  0.00  0.00    +0.000 A 
ATOM     66  C21 UNL     1      -4.233  -2.257   2.435  0.00  0.00    +0.000 A 
ATOM     67  H19 UNL     1      -5.509  -4.830  -0.990  0.00  0.00    +0.000 HD
ENDBRANCH  57  58
ENDBRANCH   1  57
TORSDOF 19
