REMARK  Name = /home/anacleto/Desktop/manuscript_Mpro/naturecomm/supplementary_file_S2/6-chemical-library/molecular_docking/3D_ligand_structure/4653.pdb
REMARK  19 active torsions:
REMARK  status: ('A' for Active; 'I' for Inactive)
REMARK    1  A    between atoms: C4_5  and  C5_7
REMARK    2  A    between atoms: N2_9  and  C6_10
REMARK    3  A    between atoms: C6_10  and  C7_11
REMARK    4  A    between atoms: C6_10  and  C11_17
REMARK    5  A    between atoms: C7_11  and  C8_12
REMARK    6  A    between atoms: N5_19  and  C12_20
REMARK    7  A    between atoms: C12_20  and  C13_21
REMARK    8  A    between atoms: C12_20  and  C22_31
REMARK    9  A    between atoms: C13_21  and  C14_22
REMARK   10  A    between atoms: N7_33  and  C23_34
REMARK   11  A    between atoms: C23_34  and  C24_35
REMARK   12  A    between atoms: N8_37  and  C25_38
REMARK   13  A    between atoms: C25_38  and  C26_39
REMARK   14  A    between atoms: N9_41  and  C27_42
REMARK   15  A    between atoms: C27_42  and  C28_43
REMARK   16  A    between atoms: N10_45  and  C29_46
REMARK   17  A    between atoms: C29_46  and  C30_47
REMARK   18  A    between atoms: N11_49  and  C31_50
REMARK   19  A    between atoms: C31_50  and  C32_51
REMARK                            x       y       z     vdW  Elec       q    Type
REMARK                         _______ _______ _______ _____ _____    ______ ____
ROOT
ATOM      1  C12 UNL     1      -3.298  -1.513  -1.460  0.00  0.00    +0.000 C 
ENDROOT
BRANCH   1   2
ATOM      2  C22 UNL     1      -2.902  -1.348   0.029  0.00  0.00    +0.000 C 
ATOM      3  O4  UNL     1      -3.699  -0.972   0.890  0.00  0.00    +0.000 OA
ATOM      4  N7  UNL     1      -1.595  -1.704   0.305  0.00  0.00    +0.000 N 
ATOM      5  H24 UNL     1      -0.949  -1.684  -0.477  0.00  0.00    +0.000 HD
BRANCH   4   6
ATOM      6  C23 UNL     1      -1.006  -1.434   1.605  0.00  0.00    +0.000 C 
BRANCH   6   7
ATOM      7  C24 UNL     1      -0.167  -0.150   1.545  0.00  0.00    +0.000 C 
ATOM      8  O5  UNL     1      -0.454   0.814   0.838  0.00  0.00    +0.000 OA
ATOM      9  N8  UNL     1       0.961  -0.180   2.345  0.00  0.00    +0.000 N 
ATOM     10  H27 UNL     1       1.324  -1.099   2.579  0.00  0.00    +0.000 HD
BRANCH   9  11
ATOM     11  C25 UNL     1       1.971   0.849   2.169  0.00  0.00    +0.000 C 
BRANCH  11  12
ATOM     12  C26 UNL     1       2.871   0.474   0.984  0.00  0.00    +0.000 C 
ATOM     13  O6  UNL     1       2.909  -0.662   0.517  0.00  0.00    +0.000 OA
ATOM     14  N9  UNL     1       3.681   1.503   0.537  0.00  0.00    +0.000 N 
ATOM     15  H30 UNL     1       3.369   2.444   0.752  0.00  0.00    +0.000 HD
BRANCH  14  16
ATOM     16  C27 UNL     1       4.376   1.347  -0.739  0.00  0.00    +0.000 C 
BRANCH  16  17
ATOM     17  C28 UNL     1       5.636   0.468  -0.708  0.00  0.00    +0.000 C 
ATOM     18  O7  UNL     1       6.216   0.131  -1.740  0.00  0.00    +0.000 OA
ATOM     19  N10 UNL     1       6.112   0.162   0.547  0.00  0.00    +0.000 N 
ATOM     20  H33 UNL     1       5.789   0.755   1.301  0.00  0.00    +0.000 HD
BRANCH  19  21
ATOM     21  C29 UNL     1       7.386  -0.506   0.715  0.00  0.00    +0.000 C 
BRANCH  21  22
ATOM     22  C30 UNL     1       8.516   0.516   0.856  0.00  0.00    +0.000 C 
ATOM     23  O8  UNL     1       8.347   1.641   1.323  0.00  0.00    +0.000 OA
ATOM     24  N11 UNL     1       9.749   0.039   0.482  0.00  0.00    +0.000 N 
ATOM     25  H36 UNL     1       9.816  -0.814  -0.067  0.00  0.00    +0.000 HD
BRANCH  24  26
ATOM     26  C31 UNL     1      10.929   0.882   0.488  0.00  0.00    +0.000 C 
BRANCH  26  27
ATOM     27  C32 UNL     1      12.109   0.096  -0.088  0.00  0.00    +0.000 C 
ATOM     28  O9  UNL     1      11.943  -1.013  -0.603  0.00  0.00    +0.000 OA
ATOM     29  N12 UNL     1      13.345   0.695  -0.022  0.00  0.00    +0.000 N 
ATOM     30  C33 UNL     1      14.535   0.037  -0.538  0.00  0.00    +0.000 C 
ATOM     31  C34 UNL     1      15.690   0.862   0.012  0.00  0.00    +0.000 C 
ATOM     32  C35 UNL     1      15.092   2.262   0.103  0.00  0.00    +0.000 C 
ATOM     33  C36 UNL     1      13.659   1.995   0.550  0.00  0.00    +0.000 C 
ENDBRANCH  26  27
ENDBRANCH  24  26
ENDBRANCH  21  22
ENDBRANCH  19  21
ENDBRANCH  16  17
ENDBRANCH  14  16
ENDBRANCH  11  12
ENDBRANCH   9  11
ENDBRANCH   6   7
ENDBRANCH   4   6
ENDBRANCH   1   2
BRANCH   1  36
ATOM     34  C11 UNL     1      -4.347   0.664  -1.888  0.00  0.00    +0.000 C 
ATOM     35  O3  UNL     1      -3.323   1.153  -2.361  0.00  0.00    +0.000 OA
ATOM     36  N5  UNL     1      -4.485  -0.699  -1.691  0.00  0.00    +0.000 N 
ATOM     37  H14 UNL     1      -5.292  -0.957  -1.134  0.00  0.00    +0.000 HD
BRANCH  34  38
ATOM     38  C6  UNL     1      -5.606   1.490  -1.548  0.00  0.00    +0.000 C 
BRANCH  38  41
ATOM     39  C5  UNL     1      -7.568   0.100  -0.849  0.00  0.00    +0.000 C 
ATOM     40  O2  UNL     1      -8.051   0.071  -1.977  0.00  0.00    +0.000 OA
ATOM     41  N2  UNL     1      -6.406   0.772  -0.542  0.00  0.00    +0.000 N 
ATOM     42  H7  UNL     1      -6.015   0.668   0.389  0.00  0.00    +0.000 HD
BRANCH  39  47
ATOM     43  O1  UNL     1      -7.283   0.637   3.504  0.00  0.00    +0.000 OA
ATOM     44  C1  UNL     1      -7.838   0.394   2.445  0.00  0.00    +0.000 C 
ATOM     45  C2  UNL     1      -9.012   1.137   1.862  0.00  0.00    +0.000 C 
ATOM     46  C3  UNL     1      -9.504   0.199   0.761  0.00  0.00    +0.000 C 
ATOM     47  C4  UNL     1      -8.262  -0.575   0.347  0.00  0.00    +0.000 C 
ATOM     48  N1  UNL     1      -7.465  -0.588   1.554  0.00  0.00    +0.000 N 
ATOM     49  H6  UNL     1      -6.649  -1.175   1.709  0.00  0.00    +0.000 HD
ENDBRANCH  39  47
ENDBRANCH  38  41
BRANCH  38  50
ATOM     50  C7  UNL     1      -5.155   2.869  -1.046  0.00  0.00    +0.000 C 
BRANCH  50  51
ATOM     51  C8  UNL     1      -6.280   3.770  -0.669  0.00  0.00    +0.000 A 
ATOM     52  C9  UNL     1      -6.558   4.340   0.555  0.00  0.00    +0.000 A 
ATOM     53  N3  UNL     1      -7.678   5.098   0.354  0.00  0.00    +0.000 N 
ATOM     54  C10 UNL     1      -8.036   4.961  -0.954  0.00  0.00    +0.000 A 
ATOM     55  N4  UNL     1      -7.211   4.168  -1.597  0.00  0.00    +0.000 NA
ATOM     56  H12 UNL     1      -8.150   5.670   1.039  0.00  0.00    +0.000 HD
ENDBRANCH  50  51
ENDBRANCH  38  50
ENDBRANCH  34  38
ENDBRANCH   1  36
BRANCH   1  57
ATOM     57  C13 UNL     1      -3.520  -2.993  -1.804  0.00  0.00    +0.000 C 
BRANCH  57  58
ATOM     58  C14 UNL     1      -4.633  -3.654  -1.041  0.00  0.00    +0.000 A 
ATOM     59  C15 UNL     1      -4.518  -4.331   0.158  0.00  0.00    +0.000 A 
ATOM     60  N6  UNL     1      -5.757  -4.789   0.514  0.00  0.00    +0.000 N 
ATOM     61  C16 UNL     1      -6.688  -4.426  -0.431  0.00  0.00    +0.000 A 
ATOM     62  C17 UNL     1      -6.013  -3.711  -1.420  0.00  0.00    +0.000 A 
ATOM     63  C18 UNL     1      -8.065  -4.677  -0.483  0.00  0.00    +0.000 A 
ATOM     64  C19 UNL     1      -8.776  -4.180  -1.580  0.00  0.00    +0.000 A 
ATOM     65  C20 UNL     1      -8.132  -3.453  -2.576  0.00  0.00    +0.000 A 
ATOM     66  C21 UNL     1      -6.754  -3.211  -2.509  0.00  0.00    +0.000 A 
ATOM     67  H19 UNL     1      -5.963  -5.317   1.350  0.00  0.00    +0.000 HD
ENDBRANCH  57  58
ENDBRANCH   1  57
TORSDOF 19
