REMARK  Name = /home/anacleto/Desktop/manuscript_Mpro/naturecomm/supplementary_file_S2/6-chemical-library/molecular_docking/3D_ligand_structure/4663.pdb
REMARK  8 active torsions:
REMARK  status: ('A' for Active; 'I' for Inactive)
REMARK    1  A    between atoms: C6_6  and  C7_7
REMARK    2  A    between atoms: C7_7  and  C8_8
REMARK    3  A    between atoms: C8_8  and  N1_9
REMARK    4  A    between atoms: C9_10  and  C10_12
REMARK    5  A    between atoms: C10_12  and  C11_13
REMARK    6  A    between atoms: C10_12  and  N3_19
REMARK    7  A    between atoms: N3_19  and  C16_20
REMARK    8  A    between atoms: C22_26  and  C23_28
REMARK                            x       y       z     vdW  Elec       q    Type
REMARK                         _______ _______ _______ _____ _____    ______ ____
ROOT
ATOM      1  N3  UNL     1      -1.373  -0.418   0.946  0.00  0.00    +0.000 N 
ATOM      2  C22 UNL     1      -1.829   0.902   1.146  0.00  0.00    +0.000 C 
ATOM      3  O2  UNL     1      -1.091   1.769   1.618  0.00  0.00    +0.000 OA
ENDROOT
BRANCH   2   4
ATOM      4  C23 UNL     1      -3.216   1.238   0.854  0.00  0.00    +0.000 A 
ATOM      5  C24 UNL     1      -4.372   0.472   0.741  0.00  0.00    +0.000 A 
ATOM      6  N4  UNL     1      -3.601   2.561   0.693  0.00  0.00    +0.000 N 
ATOM      7  C25 UNL     1      -4.935   2.614   0.440  0.00  0.00    +0.000 A 
ATOM      8  C26 UNL     1      -5.449   1.347   0.464  0.00  0.00    +0.000 A 
ATOM      9  N5  UNL     1      -5.678   3.738   0.206  0.00  0.00    +0.000 N 
ATOM     10  C27 UNL     1      -7.028   3.601  -0.025  0.00  0.00    +0.000 A 
ATOM     11  O3  UNL     1      -7.742   4.577  -0.242  0.00  0.00    +0.000 OA
ATOM     12  N6  UNL     1      -7.547   2.324  -0.002  0.00  0.00    +0.000 N 
ATOM     13  C28 UNL     1      -6.861   1.148   0.236  0.00  0.00    +0.000 A 
ATOM     14  O4  UNL     1      -7.410   0.053   0.252  0.00  0.00    +0.000 OA
ATOM     15  H22 UNL     1      -2.960   3.342   0.759  0.00  0.00    +0.000 HD
ATOM     16  H23 UNL     1      -5.285   4.670   0.191  0.00  0.00    +0.000 HD
ATOM     17  H24 UNL     1      -8.537   2.239  -0.167  0.00  0.00    +0.000 HD
ENDBRANCH   2   4
BRANCH   1  18
ATOM     18  C16 UNL     1      -1.886  -1.226  -0.115  0.00  0.00    +0.000 A 
ATOM     19  C17 UNL     1      -2.025  -0.715  -1.412  0.00  0.00    +0.000 A 
ATOM     20  C18 UNL     1      -2.548  -1.511  -2.433  0.00  0.00    +0.000 A 
ATOM     21  C19 UNL     1      -2.946  -2.819  -2.165  0.00  0.00    +0.000 A 
ATOM     22  C20 UNL     1      -2.821  -3.332  -0.876  0.00  0.00    +0.000 A 
ATOM     23  C21 UNL     1      -2.296  -2.539   0.146  0.00  0.00    +0.000 A 
ENDBRANCH   1  18
BRANCH   1  24
ATOM     24  C10 UNL     1       0.030  -0.646   1.369  0.00  0.00    +0.000 C 
BRANCH  24  25
ATOM     25  C11 UNL     1       0.379  -2.083   1.725  0.00  0.00    +0.000 A 
ATOM     26  C12 UNL     1       0.921  -2.990   0.805  0.00  0.00    +0.000 A 
ATOM     27  C13 UNL     1       1.215  -4.290   1.204  0.00  0.00    +0.000 A 
ATOM     28  C14 UNL     1       0.958  -4.647   2.515  0.00  0.00    +0.000 A 
ATOM     29  N2  UNL     1       0.433  -3.806   3.431  0.00  0.00    +0.000 NA
ATOM     30  C15 UNL     1       0.148  -2.551   3.016  0.00  0.00    +0.000 A 
ENDBRANCH  24  25
BRANCH  24  32
ATOM     31  N1  UNL     1       2.359   0.079   0.920  0.00  0.00    +0.000 N 
ATOM     32  C9  UNL     1       1.075  -0.011   0.394  0.00  0.00    +0.000 C 
ATOM     33  O1  UNL     1       0.809   0.378  -0.742  0.00  0.00    +0.000 OA
ATOM     34  H10 UNL     1       2.577  -0.497   1.724  0.00  0.00    +0.000 HD
BRANCH  31  35
ATOM     35  C8  UNL     1       3.467   0.522   0.091  0.00  0.00    +0.000 C 
BRANCH  35  36
ATOM     36  C7  UNL     1       4.664   0.957   0.935  0.00  0.00    +0.000 C 
BRANCH  36  42
ATOM     37  C1  UNL     1       5.925   2.690  -0.398  0.00  0.00    +0.000 A 
ATOM     38  C2  UNL     1       6.998   3.074  -1.204  0.00  0.00    +0.000 A 
ATOM     39  C3  UNL     1       7.984   2.150  -1.541  0.00  0.00    +0.000 A 
ATOM     40  C4  UNL     1       7.899   0.840  -1.074  0.00  0.00    +0.000 A 
ATOM     41  C5  UNL     1       6.828   0.453  -0.268  0.00  0.00    +0.000 A 
ATOM     42  C6  UNL     1       5.833   1.376   0.082  0.00  0.00    +0.000 A 
ENDBRANCH  36  42
ENDBRANCH  35  36
ENDBRANCH  31  35
ENDBRANCH  24  32
ENDBRANCH   1  24
TORSDOF 8
