REMARK  Name = /home/anacleto/Desktop/manuscript_Mpro/naturecomm/supplementary_file_S2/6-chemical-library/molecular_docking/3D_ligand_structure/4673.pdb
REMARK  8 active torsions:
REMARK  status: ('A' for Active; 'I' for Inactive)
REMARK    1  A    between atoms: C6_6  and  C7_7
REMARK    2  A    between atoms: C7_7  and  C8_8
REMARK    3  A    between atoms: C8_8  and  N1_9
REMARK    4  A    between atoms: C9_10  and  C10_12
REMARK    5  A    between atoms: C10_12  and  N2_13
REMARK    6  A    between atoms: C10_12  and  C21_27
REMARK    7  A    between atoms: N2_13  and  C15_21
REMARK    8  A    between atoms: C11_14  and  C12_16
REMARK                            x       y       z     vdW  Elec       q    Type
REMARK                         _______ _______ _______ _____ _____    ______ ____
ROOT
ATOM      1  C10 UNL     1      -0.934   0.126   0.190  0.00  0.00    +0.000 C 
ENDROOT
BRANCH   1   2
ATOM      2  C21 UNL     1      -1.660   1.469   0.352  0.00  0.00    +0.000 A 
ATOM      3  C22 UNL     1      -2.976   1.586   0.628  0.00  0.00    +0.000 A 
ATOM      4  C23 UNL     1      -3.670   2.882   0.782  0.00  0.00    +0.000 A 
ATOM      5  O4  UNL     1      -4.864   2.931   1.045  0.00  0.00    +0.000 OA
ATOM      6  N4  UNL     1      -2.917   4.002   0.611  0.00  0.00    +0.000 N 
ATOM      7  C24 UNL     1      -1.567   3.973   0.257  0.00  0.00    +0.000 A 
ATOM      8  C25 UNL     1      -0.906   2.739   0.102  0.00  0.00    +0.000 A 
ATOM      9  C26 UNL     1      -0.916   5.191   0.040  0.00  0.00    +0.000 A 
ATOM     10  C27 UNL     1       0.418   5.201  -0.349  0.00  0.00    +0.000 A 
ATOM     11  C28 UNL     1       1.093   3.999  -0.524  0.00  0.00    +0.000 A 
ATOM     12  C29 UNL     1       0.437   2.783  -0.305  0.00  0.00    +0.000 A 
ATOM     13  H20 UNL     1      -3.405   4.881   0.715  0.00  0.00    +0.000 HD
ENDBRANCH   1   2
BRANCH   1  15
ATOM     14  N1  UNL     1       1.011  -1.286   0.770  0.00  0.00    +0.000 N 
ATOM     15  C9  UNL     1       0.299  -0.151   1.116  0.00  0.00    +0.000 C 
ATOM     16  O1  UNL     1       0.656   0.598   2.022  0.00  0.00    +0.000 OA
ATOM     17  H10 UNL     1       0.819  -1.695  -0.147  0.00  0.00    +0.000 HD
BRANCH  14  18
ATOM     18  C8  UNL     1       2.225  -1.685   1.453  0.00  0.00    +0.000 C 
BRANCH  18  19
ATOM     19  C7  UNL     1       3.446  -0.828   1.102  0.00  0.00    +0.000 C 
BRANCH  19  25
ATOM     20  C1  UNL     1       3.795   0.424  -1.063  0.00  0.00    +0.000 A 
ATOM     21  C2  UNL     1       4.143   0.476  -2.414  0.00  0.00    +0.000 A 
ATOM     22  C3  UNL     1       4.505  -0.689  -3.085  0.00  0.00    +0.000 A 
ATOM     23  C4  UNL     1       4.516  -1.908  -2.406  0.00  0.00    +0.000 A 
ATOM     24  C5  UNL     1       4.158  -1.962  -1.055  0.00  0.00    +0.000 A 
ATOM     25  C6  UNL     1       3.794  -0.796  -0.370  0.00  0.00    +0.000 A 
ENDBRANCH  19  25
ENDBRANCH  18  19
ENDBRANCH  14  18
ENDBRANCH   1  15
BRANCH   1  26
ATOM     26  N2  UNL     1      -1.844  -1.055   0.165  0.00  0.00    +0.000 N 
ATOM     27  C11 UNL     1      -2.253  -1.575  -1.079  0.00  0.00    +0.000 C 
ATOM     28  O2  UNL     1      -3.401  -1.957  -1.308  0.00  0.00    +0.000 OA
BRANCH  26  29
ATOM     29  C15 UNL     1      -2.391  -1.597   1.398  0.00  0.00    +0.000 A 
ATOM     30  C16 UNL     1      -3.074  -2.828   1.403  0.00  0.00    +0.000 A 
ATOM     31  C17 UNL     1      -3.600  -3.379   2.580  0.00  0.00    +0.000 A 
ATOM     32  C18 UNL     1      -3.448  -2.716   3.792  0.00  0.00    +0.000 A 
ATOM     33  C19 UNL     1      -2.762  -1.508   3.824  0.00  0.00    +0.000 A 
ATOM     34  C20 UNL     1      -2.237  -0.960   2.643  0.00  0.00    +0.000 A 
ENDBRANCH  26  29
BRANCH  27  35
ATOM     35  C12 UNL     1      -1.234  -1.693  -2.125  0.00  0.00    +0.000 A 
ATOM     36  C13 UNL     1      -1.484  -1.897  -3.463  0.00  0.00    +0.000 A 
ATOM     37  O3  UNL     1      -0.291  -1.978  -4.114  0.00  0.00    +0.000 OA
ATOM     38  C14 UNL     1       0.634  -1.843  -3.128  0.00  0.00    +0.000 A 
ATOM     39  N3  UNL     1       0.141  -1.686  -1.919  0.00  0.00    +0.000 NA
ENDBRANCH  27  35
ENDBRANCH   1  26
TORSDOF 8
