REMARK  Name = /home/anacleto/Desktop/manuscript_Mpro/naturecomm/supplementary_file_S2/6-chemical-library/molecular_docking/3D_ligand_structure/4675.pdb
REMARK  8 active torsions:
REMARK  status: ('A' for Active; 'I' for Inactive)
REMARK    1  A    between atoms: C6_6  and  C7_7
REMARK    2  A    between atoms: C7_7  and  C8_8
REMARK    3  A    between atoms: C8_8  and  N1_9
REMARK    4  A    between atoms: C9_10  and  C10_12
REMARK    5  A    between atoms: C10_12  and  N2_13
REMARK    6  A    between atoms: C10_12  and  C22_27
REMARK    7  A    between atoms: N2_13  and  C16_21
REMARK    8  A    between atoms: C11_14  and  C12_16
REMARK                            x       y       z     vdW  Elec       q    Type
REMARK                         _______ _______ _______ _____ _____    ______ ____
ROOT
ATOM      1  C10 UNL     1      -1.067   0.145  -0.266  0.00  0.00    +0.000 C 
ENDROOT
BRANCH   1   2
ATOM      2  C22 UNL     1      -2.149  -0.936  -0.210  0.00  0.00    +0.000 A 
ATOM      3  C23 UNL     1      -3.304  -0.808   0.476  0.00  0.00    +0.000 A 
ATOM      4  C24 UNL     1      -4.362  -1.840   0.509  0.00  0.00    +0.000 A 
ATOM      5  O4  UNL     1      -5.378  -1.681   1.175  0.00  0.00    +0.000 OA
ATOM      6  N3  UNL     1      -4.145  -2.956  -0.235  0.00  0.00    +0.000 N 
ATOM      7  C25 UNL     1      -3.003  -3.152  -1.015  0.00  0.00    +0.000 A 
ATOM      8  C26 UNL     1      -1.990  -2.174  -1.041  0.00  0.00    +0.000 A 
ATOM      9  C27 UNL     1      -2.913  -4.329  -1.767  0.00  0.00    +0.000 A 
ATOM     10  C28 UNL     1      -1.802  -4.552  -2.573  0.00  0.00    +0.000 A 
ATOM     11  C29 UNL     1      -0.790  -3.600  -2.626  0.00  0.00    +0.000 A 
ATOM     12  C30 UNL     1      -0.885  -2.424  -1.871  0.00  0.00    +0.000 A 
ATOM     13  H21 UNL     1      -4.876  -3.653  -0.208  0.00  0.00    +0.000 HD
ENDBRANCH   1   2
BRANCH   1  15
ATOM     14  N1  UNL     1       1.251   0.819   0.338  0.00  0.00    +0.000 N 
ATOM     15  C9  UNL     1       0.341  -0.231   0.321  0.00  0.00    +0.000 C 
ATOM     16  O1  UNL     1       0.667  -1.375   0.629  0.00  0.00    +0.000 OA
ATOM     17  H10 UNL     1       0.870   1.762   0.327  0.00  0.00    +0.000 HD
BRANCH  14  18
ATOM     18  C8  UNL     1       2.569   0.656   0.924  0.00  0.00    +0.000 C 
BRANCH  18  19
ATOM     19  C7  UNL     1       3.530  -0.105   0.007  0.00  0.00    +0.000 C 
BRANCH  19  25
ATOM     20  C1  UNL     1       5.922   0.657   0.309  0.00  0.00    +0.000 A 
ATOM     21  C2  UNL     1       7.180   0.532   0.902  0.00  0.00    +0.000 A 
ATOM     22  C3  UNL     1       7.423  -0.490   1.818  0.00  0.00    +0.000 A 
ATOM     23  C4  UNL     1       6.409  -1.389   2.144  0.00  0.00    +0.000 A 
ATOM     24  C5  UNL     1       5.151  -1.267   1.552  0.00  0.00    +0.000 A 
ATOM     25  C6  UNL     1       4.898  -0.244   0.627  0.00  0.00    +0.000 A 
ENDBRANCH  19  25
ENDBRANCH  18  19
ENDBRANCH  14  18
ENDBRANCH   1  15
BRANCH   1  26
ATOM     26  N2  UNL     1      -1.508   1.482   0.224  0.00  0.00    +0.000 N 
ATOM     27  C11 UNL     1      -1.434   2.534  -0.718  0.00  0.00    +0.000 C 
ATOM     28  O2  UNL     1      -0.771   3.548  -0.496  0.00  0.00    +0.000 OA
BRANCH  26  29
ATOM     29  C16 UNL     1      -1.564   1.783   1.645  0.00  0.00    +0.000 A 
ATOM     30  C17 UNL     1      -1.330   0.815   2.637  0.00  0.00    +0.000 A 
ATOM     31  C18 UNL     1      -1.412   1.127   4.001  0.00  0.00    +0.000 A 
ATOM     32  C19 UNL     1      -1.749   2.411   4.407  0.00  0.00    +0.000 A 
ATOM     33  C20 UNL     1      -2.018   3.380   3.449  0.00  0.00    +0.000 A 
ATOM     34  C21 UNL     1      -1.934   3.065   2.087  0.00  0.00    +0.000 A 
ENDBRANCH  26  29
BRANCH  27  35
ATOM     35  C12 UNL     1      -2.130   2.351  -1.983  0.00  0.00    +0.000 A 
ATOM     36  C13 UNL     1      -2.096   3.104  -3.144  0.00  0.00    +0.000 A 
ATOM     37  C14 UNL     1      -2.982   2.487  -4.060  0.00  0.00    +0.000 A 
ATOM     38  C15 UNL     1      -3.515   1.404  -3.404  0.00  0.00    +0.000 A 
ATOM     39  O3  UNL     1      -3.011   1.316  -2.147  0.00  0.00    +0.000 OA
ENDBRANCH  27  35
ENDBRANCH   1  26
TORSDOF 8
