REMARK  Name = /home/anacleto/Desktop/manuscript_Mpro/naturecomm/supplementary_file_S2/6-chemical-library/molecular_docking/3D_ligand_structure/4694.pdb
REMARK  8 active torsions:
REMARK  status: ('A' for Active; 'I' for Inactive)
REMARK    1  A    between atoms: C6_6  and  C7_7
REMARK    2  A    between atoms: C7_7  and  C8_8
REMARK    3  A    between atoms: C8_8  and  N1_9
REMARK    4  A    between atoms: C9_10  and  C10_12
REMARK    5  A    between atoms: C10_12  and  C11_13
REMARK    6  A    between atoms: C10_12  and  N3_19
REMARK    7  A    between atoms: N3_19  and  C20_27
REMARK    8  A    between atoms: C16_20  and  C17_22
REMARK                            x       y       z     vdW  Elec       q    Type
REMARK                         _______ _______ _______ _____ _____    ______ ____
ROOT
ATOM      1  C10 UNL     1      -0.724   0.480  -0.631  0.00  0.00    +0.000 C 
ENDROOT
BRANCH   1   2
ATOM      2  C11 UNL     1      -0.787  -0.306  -1.934  0.00  0.00    +0.000 A 
ATOM      3  C12 UNL     1       0.174  -1.250  -2.314  0.00  0.00    +0.000 A 
ATOM      4  C13 UNL     1       0.037  -1.940  -3.516  0.00  0.00    +0.000 A 
ATOM      5  C14 UNL     1      -1.065  -1.671  -4.306  0.00  0.00    +0.000 A 
ATOM      6  N2  UNL     1      -2.018  -0.775  -3.979  0.00  0.00    +0.000 NA
ATOM      7  C15 UNL     1      -1.856  -0.115  -2.808  0.00  0.00    +0.000 A 
ENDBRANCH   1   2
BRANCH   1   9
ATOM      8  N1  UNL     1       1.297   0.155   0.809  0.00  0.00    +0.000 N 
ATOM      9  C9  UNL     1       0.726   0.878  -0.220  0.00  0.00    +0.000 C 
ATOM     10  O1  UNL     1       1.360   1.738  -0.832  0.00  0.00    +0.000 OA
ATOM     11  H10 UNL     1       0.899  -0.768   0.974  0.00  0.00    +0.000 HD
BRANCH   8  12
ATOM     12  C8  UNL     1       2.687   0.343   1.183  0.00  0.00    +0.000 C 
BRANCH  12  13
ATOM     13  C7  UNL     1       3.647  -0.349   0.212  0.00  0.00    +0.000 C 
BRANCH  13  19
ATOM     14  C1  UNL     1       5.708  -1.174   1.421  0.00  0.00    +0.000 A 
ATOM     15  C2  UNL     1       7.032  -1.012   1.833  0.00  0.00    +0.000 A 
ATOM     16  C3  UNL     1       7.741   0.132   1.473  0.00  0.00    +0.000 A 
ATOM     17  C4  UNL     1       7.127   1.118   0.702  0.00  0.00    +0.000 A 
ATOM     18  C5  UNL     1       5.803   0.958   0.289  0.00  0.00    +0.000 A 
ATOM     19  C6  UNL     1       5.084  -0.191   0.642  0.00  0.00    +0.000 A 
ENDBRANCH  13  19
ENDBRANCH  12  13
ENDBRANCH   8  12
ENDBRANCH   1   9
BRANCH   1  20
ATOM     20  N3  UNL     1      -1.594  -0.104   0.432  0.00  0.00    +0.000 N 
ATOM     21  C16 UNL     1      -1.394  -1.436   0.816  0.00  0.00    +0.000 C 
ATOM     22  O2  UNL     1      -0.312  -1.989   0.607  0.00  0.00    +0.000 OA
BRANCH  20  23
ATOM     23  C20 UNL     1      -2.529   0.786   1.153  0.00  0.00    +0.000 C 
ATOM     24  C21 UNL     1      -1.912   2.104   1.684  0.00  0.00    +0.000 C 
ATOM     25  O4  UNL     1      -2.248   3.191   0.790  0.00  0.00    +0.000 OA
ATOM     26  C22 UNL     1      -3.353   2.731   0.121  0.00  0.00    +0.000 A 
ATOM     27  C23 UNL     1      -3.584   1.372   0.281  0.00  0.00    +0.000 A 
ATOM     28  C24 UNL     1      -4.147   3.520  -0.685  0.00  0.00    +0.000 A 
ATOM     29  C25 UNL     1      -5.223   2.914  -1.335  0.00  0.00    +0.000 A 
ATOM     30  C26 UNL     1      -5.473   1.542  -1.172  0.00  0.00    +0.000 A 
ATOM     31  C27 UNL     1      -4.648   0.759  -0.360  0.00  0.00    +0.000 A 
ENDBRANCH  20  23
BRANCH  21  32
ATOM     32  C17 UNL     1      -2.462  -2.179   1.488  0.00  0.00    +0.000 A 
ATOM     33  C18 UNL     1      -2.305  -3.425   2.059  0.00  0.00    +0.000 A 
ATOM     34  O3  UNL     1      -3.504  -3.831   2.558  0.00  0.00    +0.000 OA
ATOM     35  C19 UNL     1      -4.345  -2.810   2.248  0.00  0.00    +0.000 A 
ATOM     36  N4  UNL     1      -3.789  -1.803   1.614  0.00  0.00    +0.000 NA
ENDBRANCH  21  32
ENDBRANCH   1  20
TORSDOF 8
