REMARK  Name = /home/anacleto/Desktop/manuscript_Mpro/naturecomm/supplementary_file_S2/6-chemical-library/molecular_docking/3D_ligand_structure/4699.pdb
REMARK  8 active torsions:
REMARK  status: ('A' for Active; 'I' for Inactive)
REMARK    1  A    between atoms: C5_7  and  N2_10
REMARK    2  A    between atoms: N2_10  and  C12_18
REMARK    3  A    between atoms: C8_11  and  C9_13
REMARK    4  A    between atoms: C12_18  and  C13_19
REMARK    5  A    between atoms: C12_18  and  C18_25
REMARK    6  A    between atoms: N6_27  and  C19_28
REMARK    7  A    between atoms: C19_28  and  C20_29
REMARK    8  A    between atoms: C20_29  and  C21_30
REMARK                            x       y       z     vdW  Elec       q    Type
REMARK                         _______ _______ _______ _____ _____    ______ ____
ROOT
ATOM      1  C12 UNL     1      -0.790  -1.336  -0.914  0.00  0.00    +0.000 C 
ENDROOT
BRANCH   1   2
ATOM      2  C13 UNL     1      -1.120  -2.820  -0.848  0.00  0.00    +0.000 A 
ATOM      3  C14 UNL     1      -2.270  -3.315  -1.481  0.00  0.00    +0.000 A 
ATOM      4  C15 UNL     1      -2.578  -4.671  -1.410  0.00  0.00    +0.000 A 
ATOM      5  C16 UNL     1      -1.726  -5.499  -0.701  0.00  0.00    +0.000 A 
ATOM      6  N5  UNL     1      -0.615  -5.064  -0.073  0.00  0.00    +0.000 NA
ATOM      7  C17 UNL     1      -0.338  -3.741  -0.155  0.00  0.00    +0.000 A 
ENDBRANCH   1   2
BRANCH   1   8
ATOM      8  C18 UNL     1       0.723  -1.003  -0.772  0.00  0.00    +0.000 C 
ATOM      9  O3  UNL     1       1.512  -1.235  -1.691  0.00  0.00    +0.000 OA
ATOM     10  N6  UNL     1       1.149  -0.521   0.448  0.00  0.00    +0.000 N 
ATOM     11  H13 UNL     1       0.562  -0.759   1.249  0.00  0.00    +0.000 HD
BRANCH  10  12
ATOM     12  C19 UNL     1       2.556  -0.295   0.725  0.00  0.00    +0.000 C 
BRANCH  12  13
ATOM     13  C20 UNL     1       3.102   0.948   0.017  0.00  0.00    +0.000 C 
BRANCH  13  14
ATOM     14  C21 UNL     1       4.540   1.212   0.387  0.00  0.00    +0.000 A 
ATOM     15  C22 UNL     1       4.859   2.095   1.427  0.00  0.00    +0.000 A 
ATOM     16  C23 UNL     1       6.191   2.319   1.778  0.00  0.00    +0.000 A 
ATOM     17  C24 UNL     1       7.214   1.658   1.099  0.00  0.00    +0.000 A 
ATOM     18  C25 UNL     1       6.906   0.774   0.066  0.00  0.00    +0.000 A 
ATOM     19  C26 UNL     1       5.575   0.551  -0.288  0.00  0.00    +0.000 A 
ENDBRANCH  13  14
ENDBRANCH  12  13
ENDBRANCH  10  12
ENDBRANCH   1   8
BRANCH   1  20
ATOM     20  N2  UNL     1      -1.725  -0.512  -0.092  0.00  0.00    +0.000 N 
ATOM     21  C8  UNL     1      -1.858  -0.848   1.266  0.00  0.00    +0.000 C 
ATOM     22  O2  UNL     1      -0.949  -1.416   1.871  0.00  0.00    +0.000 OA
BRANCH  20  29
ATOM     23  N1  UNL     1      -2.708   4.630  -2.104  0.00  0.00    +0.000 NA
ATOM     24  C1  UNL     1      -2.915   4.209  -3.333  0.00  0.00    +0.000 A 
ATOM     25  O1  UNL     1      -2.819   2.861  -3.517  0.00  0.00    +0.000 OA
ATOM     26  C2  UNL     1      -2.507   2.391  -2.275  0.00  0.00    +0.000 A 
ATOM     27  C3  UNL     1      -2.444   3.475  -1.417  0.00  0.00    +0.000 A 
ATOM     28  C4  UNL     1      -2.289   1.066  -1.906  0.00  0.00    +0.000 A 
ATOM     29  C5  UNL     1      -1.980   0.832  -0.554  0.00  0.00    +0.000 A 
ATOM     30  C6  UNL     1      -1.914   1.922   0.341  0.00  0.00    +0.000 A 
ATOM     31  C7  UNL     1      -2.143   3.248  -0.072  0.00  0.00    +0.000 A 
ENDBRANCH  20  29
BRANCH  21  32
ATOM     32  C9  UNL     1      -3.116  -0.535   1.905  0.00  0.00    +0.000 A 
ATOM     33  C10 UNL     1      -3.423  -0.557   3.253  0.00  0.00    +0.000 A 
ATOM     34  N3  UNL     1      -4.731  -0.211   3.473  0.00  0.00    +0.000 NA
ATOM     35  C11 UNL     1      -5.238  -0.005   2.281  0.00  0.00    +0.000 A 
ATOM     36  N4  UNL     1      -4.307  -0.197   1.303  0.00  0.00    +0.000 N 
ATOM     37  H7  UNL     1      -4.465  -0.102   0.310  0.00  0.00    +0.000 HD
ENDBRANCH  21  32
ENDBRANCH   1  20
TORSDOF 8
