REMARK  Name = /home/anacleto/Desktop/manuscript_Mpro/naturecomm/supplementary_file_S2/6-chemical-library/molecular_docking/3D_ligand_structure/4704.pdb
REMARK  8 active torsions:
REMARK  status: ('A' for Active; 'I' for Inactive)
REMARK    1  A    between atoms: C6_6  and  C7_7
REMARK    2  A    between atoms: C7_7  and  C8_8
REMARK    3  A    between atoms: C8_8  and  N1_9
REMARK    4  A    between atoms: C9_10  and  C10_12
REMARK    5  A    between atoms: C10_12  and  C11_13
REMARK    6  A    between atoms: C10_12  and  N3_19
REMARK    7  A    between atoms: N3_19  and  C20_27
REMARK    8  A    between atoms: C16_20  and  C17_22
REMARK                            x       y       z     vdW  Elec       q    Type
REMARK                         _______ _______ _______ _____ _____    ______ ____
ROOT
ATOM      1  C10 UNL     1      -0.313  -2.188  -0.015  0.00  0.00    +0.000 C 
ENDROOT
BRANCH   1   2
ATOM      2  C11 UNL     1      -0.603  -3.057   1.199  0.00  0.00    +0.000 A 
ATOM      3  C12 UNL     1       0.098  -2.967   2.409  0.00  0.00    +0.000 A 
ATOM      4  C13 UNL     1      -0.229  -3.810   3.468  0.00  0.00    +0.000 A 
ATOM      5  C14 UNL     1      -1.252  -4.724   3.289  0.00  0.00    +0.000 A 
ATOM      6  N2  UNL     1      -1.955  -4.844   2.145  0.00  0.00    +0.000 NA
ATOM      7  C15 UNL     1      -1.612  -4.019   1.129  0.00  0.00    +0.000 A 
ENDBRANCH   1   2
BRANCH   1   9
ATOM      8  N1  UNL     1       1.154  -0.154   0.147  0.00  0.00    +0.000 N 
ATOM      9  C9  UNL     1       1.097  -1.521   0.006  0.00  0.00    +0.000 C 
ATOM     10  O1  UNL     1       2.128  -2.200   0.002  0.00  0.00    +0.000 OA
ATOM     11  H10 UNL     1       0.301   0.386   0.128  0.00  0.00    +0.000 HD
BRANCH   8  12
ATOM     12  C8  UNL     1       2.413   0.568   0.154  0.00  0.00    +0.000 C 
BRANCH  12  13
ATOM     13  C7  UNL     1       2.945   0.800  -1.261  0.00  0.00    +0.000 C 
BRANCH  13  19
ATOM     14  C1  UNL     1       5.466   0.861  -1.197  0.00  0.00    +0.000 A 
ATOM     15  C2  UNL     1       6.676   1.556  -1.160  0.00  0.00    +0.000 A 
ATOM     16  C3  UNL     1       6.680   2.950  -1.169  0.00  0.00    +0.000 A 
ATOM     17  C4  UNL     1       5.476   3.650  -1.212  0.00  0.00    +0.000 A 
ATOM     18  C5  UNL     1       4.265   2.957  -1.250  0.00  0.00    +0.000 A 
ATOM     19  C6  UNL     1       4.250   1.556  -1.246  0.00  0.00    +0.000 A 
ENDBRANCH  13  19
ENDBRANCH  12  13
ENDBRANCH   8  12
ENDBRANCH   1   9
BRANCH   1  20
ATOM     20  N3  UNL     1      -1.433  -1.328  -0.481  0.00  0.00    +0.000 N 
ATOM     21  C16 UNL     1      -1.613  -1.322  -1.882  0.00  0.00    +0.000 C 
ATOM     22  O2  UNL     1      -0.705  -1.626  -2.656  0.00  0.00    +0.000 OA
BRANCH  20  23
ATOM     23  C20 UNL     1      -1.985  -0.283   0.345  0.00  0.00    +0.000 A 
ATOM     24  C21 UNL     1      -2.163   1.011  -0.194  0.00  0.00    +0.000 A 
ATOM     25  C22 UNL     1      -2.312  -0.484   1.689  0.00  0.00    +0.000 A 
ATOM     26  C23 UNL     1      -2.798   0.547   2.508  0.00  0.00    +0.000 A 
ATOM     27  C24 UNL     1      -2.945   1.812   1.939  0.00  0.00    +0.000 A 
ATOM     28  C25 UNL     1      -2.640   2.069   0.606  0.00  0.00    +0.000 A 
ATOM     29  N5  UNL     1      -3.392   2.991   2.490  0.00  0.00    +0.000 N 
ATOM     30  C26 UNL     1      -3.364   3.989   1.551  0.00  0.00    +0.000 A 
ATOM     31  C27 UNL     1      -2.903   3.447   0.373  0.00  0.00    +0.000 A 
ATOM     32  H21 UNL     1      -3.696   3.099   3.448  0.00  0.00    +0.000 HD
ENDBRANCH  20  23
BRANCH  21  33
ATOM     33  C17 UNL     1      -2.954  -1.036  -2.395  0.00  0.00    +0.000 A 
ATOM     34  C18 UNL     1      -3.268  -0.805  -3.718  0.00  0.00    +0.000 A 
ATOM     35  O3  UNL     1      -4.612  -0.611  -3.816  0.00  0.00    +0.000 OA
ATOM     36  C19 UNL     1      -5.053  -0.743  -2.536  0.00  0.00    +0.000 A 
ATOM     37  N4  UNL     1      -4.119  -1.001  -1.649  0.00  0.00    +0.000 NA
ENDBRANCH  21  33
ENDBRANCH   1  20
TORSDOF 8
