REMARK  Name = /home/anacleto/Desktop/manuscript_Mpro/naturecomm/supplementary_file_S2/6-chemical-library/molecular_docking/3D_ligand_structure/4707.pdb
REMARK  8 active torsions:
REMARK  status: ('A' for Active; 'I' for Inactive)
REMARK    1  A    between atoms: C6_6  and  C7_7
REMARK    2  A    between atoms: C7_7  and  C8_8
REMARK    3  A    between atoms: C8_8  and  N1_9
REMARK    4  A    between atoms: C9_10  and  C10_12
REMARK    5  A    between atoms: C10_12  and  N2_13
REMARK    6  A    between atoms: C10_12  and  C22_27
REMARK    7  A    between atoms: N2_13  and  C16_21
REMARK    8  A    between atoms: C11_14  and  C12_16
REMARK                            x       y       z     vdW  Elec       q    Type
REMARK                         _______ _______ _______ _____ _____    ______ ____
ROOT
ATOM      1  C10 UNL     1      -0.419  -0.141  -1.465  0.00  0.00    +0.000 C 
ENDROOT
BRANCH   1   2
ATOM      2  C22 UNL     1      -0.637  -1.641  -1.364  0.00  0.00    +0.000 A 
ATOM      3  N3  UNL     1       0.147  -2.450  -0.620  0.00  0.00    +0.000 NA
ATOM      4  N4  UNL     1      -0.391  -3.674  -0.790  0.00  0.00    +0.000 N 
ATOM      5  C23 UNL     1      -1.470  -3.704  -1.627  0.00  0.00    +0.000 A 
ATOM      6  C24 UNL     1      -1.655  -2.388  -2.037  0.00  0.00    +0.000 A 
ATOM      7  C25 UNL     1      -2.282  -4.761  -2.053  0.00  0.00    +0.000 A 
ATOM      8  C26 UNL     1      -3.320  -4.451  -2.935  0.00  0.00    +0.000 A 
ATOM      9  C27 UNL     1      -3.529  -3.141  -3.371  0.00  0.00    +0.000 A 
ATOM     10  C28 UNL     1      -2.702  -2.099  -2.933  0.00  0.00    +0.000 A 
ATOM     11  H20 UNL     1       0.033  -4.461  -0.311  0.00  0.00    +0.000 HD
ENDBRANCH   1   2
BRANCH   1  13
ATOM     12  N1  UNL     1       2.003  -0.452  -0.896  0.00  0.00    +0.000 N 
ATOM     13  C9  UNL     1       0.949   0.436  -1.006  0.00  0.00    +0.000 C 
ATOM     14  O1  UNL     1       1.118   1.644  -0.817  0.00  0.00    +0.000 OA
ATOM     15  H10 UNL     1       1.737  -1.433  -0.786  0.00  0.00    +0.000 HD
BRANCH  12  16
ATOM     16  C8  UNL     1       3.289  -0.031  -0.378  0.00  0.00    +0.000 C 
BRANCH  16  17
ATOM     17  C7  UNL     1       3.303   0.020   1.151  0.00  0.00    +0.000 C 
BRANCH  17  23
ATOM     18  C1  UNL     1       5.738  -0.274   1.788  0.00  0.00    +0.000 A 
ATOM     19  C2  UNL     1       6.954   0.243   2.239  0.00  0.00    +0.000 A 
ATOM     20  C3  UNL     1       7.055   1.593   2.583  0.00  0.00    +0.000 A 
ATOM     21  C4  UNL     1       5.942   2.424   2.478  0.00  0.00    +0.000 A 
ATOM     22  C5  UNL     1       4.726   1.910   2.025  0.00  0.00    +0.000 A 
ATOM     23  C6  UNL     1       4.612   0.556   1.678  0.00  0.00    +0.000 A 
ENDBRANCH  17  23
ENDBRANCH  16  17
ENDBRANCH  12  16
ENDBRANCH   1  13
BRANCH   1  24
ATOM     24  N2  UNL     1      -1.569   0.592  -0.869  0.00  0.00    +0.000 N 
ATOM     25  C11 UNL     1      -2.334   1.382  -1.750  0.00  0.00    +0.000 C 
ATOM     26  O2  UNL     1      -1.983   1.549  -2.920  0.00  0.00    +0.000 OA
BRANCH  24  27
ATOM     27  C16 UNL     1      -1.526   0.847   0.543  0.00  0.00    +0.000 A 
ATOM     28  C17 UNL     1      -1.436  -0.205   1.463  0.00  0.00    +0.000 A 
ATOM     29  C18 UNL     1      -1.404   0.049   2.839  0.00  0.00    +0.000 A 
ATOM     30  C19 UNL     1      -1.444   1.359   3.309  0.00  0.00    +0.000 A 
ATOM     31  C20 UNL     1      -1.509   2.417   2.405  0.00  0.00    +0.000 A 
ATOM     32  C21 UNL     1      -1.552   2.163   1.032  0.00  0.00    +0.000 A 
ENDBRANCH  24  27
BRANCH  25  33
ATOM     33  C12 UNL     1      -3.622   1.883  -1.279  0.00  0.00    +0.000 A 
ATOM     34  C13 UNL     1      -4.513   1.462  -0.305  0.00  0.00    +0.000 A 
ATOM     35  C14 UNL     1      -5.617   2.348  -0.341  0.00  0.00    +0.000 A 
ATOM     36  C15 UNL     1      -5.349   3.248  -1.341  0.00  0.00    +0.000 A 
ATOM     37  O3  UNL     1      -4.155   2.972  -1.921  0.00  0.00    +0.000 OA
ENDBRANCH  25  33
ENDBRANCH   1  24
TORSDOF 8
