REMARK  Name = /home/anacleto/Desktop/manuscript_Mpro/naturecomm/supplementary_file_S2/6-chemical-library/molecular_docking/3D_ligand_structure/472.pdb
REMARK  6 active torsions:
REMARK  status: ('A' for Active; 'I' for Inactive)
REMARK    1  A    between atoms: C3_5  and  C4_6
REMARK    2  A    between atoms: N2_8  and  C5_9
REMARK    3  A    between atoms: C5_9  and  C6_10
REMARK    4  A    between atoms: N3_12  and  C7_13
REMARK    5  A    between atoms: C7_13  and  C8_14
REMARK    6  A    between atoms: C8_14  and  C9_15
REMARK                            x       y       z     vdW  Elec       q    Type
REMARK                         _______ _______ _______ _____ _____    ______ ____
ROOT
ATOM      1  C6  UNL     1       1.166   2.072  -0.546  0.00  0.00    +0.000 C 
ATOM      2  O3  UNL     1       1.008   2.235  -1.752  0.00  0.00    +0.000 OA
ATOM      3  N3  UNL     1       0.243   1.454   0.279  0.00  0.00    +0.000 N 
ATOM      4  H6  UNL     1       0.629   1.048   1.131  0.00  0.00    +0.000 HD
ENDROOT
BRANCH   1   5
ATOM      5  C5  UNL     1       2.456   2.466   0.174  0.00  0.00    +0.000 C 
BRANCH   5   8
ATOM      6  C4  UNL     1       3.202   0.322   1.136  0.00  0.00    +0.000 C 
ATOM      7  O2  UNL     1       2.324   0.322   1.995  0.00  0.00    +0.000 OA
ATOM      8  N2  UNL     1       3.358   1.336   0.223  0.00  0.00    +0.000 N 
ATOM      9  H3  UNL     1       3.997   1.165  -0.550  0.00  0.00    +0.000 HD
BRANCH   6  14
ATOM     10  N1  UNL     1       5.109  -0.800  -0.048  0.00  0.00    +0.000 NA
ATOM     11  C1  UNL     1       5.723  -1.944   0.161  0.00  0.00    +0.000 A 
ATOM     12  O1  UNL     1       5.256  -2.670   1.213  0.00  0.00    +0.000 OA
ATOM     13  C2  UNL     1       4.245  -1.906   1.716  0.00  0.00    +0.000 A 
ATOM     14  C3  UNL     1       4.149  -0.765   0.954  0.00  0.00    +0.000 A 
ENDBRANCH   6  14
ENDBRANCH   5   8
ENDBRANCH   1   5
BRANCH   3  15
ATOM     15  C7  UNL     1      -0.939   0.826  -0.282  0.00  0.00    +0.000 C 
BRANCH  15  16
ATOM     16  C8  UNL     1      -1.987   0.541   0.793  0.00  0.00    +0.000 C 
BRANCH  16  17
ATOM     17  C9  UNL     1      -3.202  -0.150   0.226  0.00  0.00    +0.000 A 
ATOM     18  C10 UNL     1      -3.308  -1.547   0.264  0.00  0.00    +0.000 A 
ATOM     19  C11 UNL     1      -4.424  -2.185  -0.280  0.00  0.00    +0.000 A 
ATOM     20  C12 UNL     1      -5.440  -1.435  -0.868  0.00  0.00    +0.000 A 
ATOM     21  C13 UNL     1      -5.342  -0.046  -0.915  0.00  0.00    +0.000 A 
ATOM     22  C14 UNL     1      -4.227   0.595  -0.372  0.00  0.00    +0.000 A 
ENDBRANCH  16  17
ENDBRANCH  15  16
ENDBRANCH   3  15
TORSDOF 6
