REMARK  Name = /home/anacleto/Desktop/manuscript_Mpro/naturecomm/supplementary_file_S2/6-chemical-library/molecular_docking/3D_ligand_structure/4724.pdb
REMARK  7 active torsions:
REMARK  status: ('A' for Active; 'I' for Inactive)
REMARK    1  A    between atoms: C6_6  and  C7_7
REMARK    2  A    between atoms: C7_7  and  C8_8
REMARK    3  A    between atoms: C8_8  and  N1_9
REMARK    4  A    between atoms: N1_9  and  C9_10
REMARK    5  A    between atoms: C11_12  and  O1_16
REMARK    6  A    between atoms: O1_16  and  C15_17
REMARK    7  A    between atoms: N3_24  and  C19_25
REMARK                            x       y       z     vdW  Elec       q    Type
REMARK                         _______ _______ _______ _____ _____    ______ ____
ROOT
ATOM      1  N1  UNL     1      -0.382   0.318   0.468  0.00  0.00    +0.000 N 
ATOM      2  C18 UNL     1      -1.333  -0.101  -0.497  0.00  0.00    +0.000 C 
ATOM      3  O3  UNL     1      -1.874   0.659  -1.297  0.00  0.00    +0.000 OA
ATOM      4  N3  UNL     1      -1.595  -1.460  -0.453  0.00  0.00    +0.000 N 
ATOM      5  H24 UNL     1      -1.518  -1.858   0.466  0.00  0.00    +0.000 HD
ENDROOT
BRANCH   4   6
ATOM      6  C19 UNL     1      -2.311  -2.221  -1.416  0.00  0.00    +0.000 A 
ATOM      7  C20 UNL     1      -2.548  -1.747  -2.709  0.00  0.00    +0.000 A 
ATOM      8  N4  UNL     1      -3.195  -2.437  -3.676  0.00  0.00    +0.000 NA
ATOM      9  C21 UNL     1      -3.634  -3.668  -3.344  0.00  0.00    +0.000 A 
ATOM     10  C22 UNL     1      -3.452  -4.265  -2.097  0.00  0.00    +0.000 A 
ATOM     11  C23 UNL     1      -2.769  -3.535  -1.095  0.00  0.00    +0.000 A 
ATOM     12  C24 UNL     1      -3.934  -5.563  -1.845  0.00  0.00    +0.000 A 
ATOM     13  C25 UNL     1      -3.748  -6.164  -0.603  0.00  0.00    +0.000 A 
ATOM     14  C26 UNL     1      -3.080  -5.474   0.399  0.00  0.00    +0.000 A 
ATOM     15  C27 UNL     1      -2.599  -4.181   0.159  0.00  0.00    +0.000 A 
ENDBRANCH   4   6
BRANCH   1  16
ATOM     16  C9  UNL     1      -0.292   1.716   0.837  0.00  0.00    +0.000 A 
ATOM     17  C10 UNL     1      -1.415   2.557   0.753  0.00  0.00    +0.000 A 
ATOM     18  C11 UNL     1      -1.362   3.905   1.130  0.00  0.00    +0.000 A 
ATOM     19  C12 UNL     1      -0.179   4.441   1.624  0.00  0.00    +0.000 A 
ATOM     20  C13 UNL     1       0.946   3.627   1.730  0.00  0.00    +0.000 A 
ATOM     21  C14 UNL     1       0.888   2.281   1.346  0.00  0.00    +0.000 A 
BRANCH  18  22
ATOM     22  O1  UNL     1      -2.544   4.595   1.001  0.00  0.00    +0.000 OA
BRANCH  22  23
ATOM     23  C15 UNL     1      -2.513   6.031   1.012  0.00  0.00    +0.000 C 
ATOM     24  N2  UNL     1      -3.790   6.669   0.652  0.00  0.00    +0.000 N 
ATOM     25  C16 UNL     1      -1.910   6.740  -0.223  0.00  0.00    +0.000 C 
ATOM     26  C17 UNL     1      -3.197   7.571  -0.174  0.00  0.00    +0.000 C 
ATOM     27  O2  UNL     1      -3.591   8.637  -0.578  0.00  0.00    +0.000 OA
ATOM     28  H21 UNL     1      -4.499   7.022   1.279  0.00  0.00    +0.000 HD
ENDBRANCH  22  23
ENDBRANCH  18  22
ENDBRANCH   1  16
BRANCH   1  29
ATOM     29  C8  UNL     1       0.711  -0.588   0.870  0.00  0.00    +0.000 C 
BRANCH  29  30
ATOM     30  C7  UNL     1       1.792  -0.703  -0.215  0.00  0.00    +0.000 C 
BRANCH  30  36
ATOM     31  C1  UNL     1       3.900  -1.862  -1.028  0.00  0.00    +0.000 C 
ATOM     32  C2  UNL     1       5.118  -0.954  -0.907  0.00  0.00    +0.000 C 
ATOM     33  C3  UNL     1       5.921  -1.246   0.361  0.00  0.00    +0.000 C 
ATOM     34  C4  UNL     1       5.069  -1.801   1.504  0.00  0.00    +0.000 C 
ATOM     35  C5  UNL     1       3.643  -1.268   1.448  0.00  0.00    +0.000 C 
ATOM     36  C6  UNL     1       2.921  -1.688   0.152  0.00  0.00    +0.000 C 
ENDBRANCH  30  36
ENDBRANCH  29  30
ENDBRANCH   1  29
TORSDOF 7
