REMARK  Name = /home/anacleto/Desktop/manuscript_Mpro/naturecomm/supplementary_file_S2/6-chemical-library/molecular_docking/3D_ligand_structure/4726.pdb
REMARK  6 active torsions:
REMARK  status: ('A' for Active; 'I' for Inactive)
REMARK    1  A    between atoms: N1_7  and  C7_10
REMARK    2  A    between atoms: C7_10  and  C8_11
REMARK    3  A    between atoms: N4_13  and  C9_14
REMARK    4  A    between atoms: N4_13  and  C15_23
REMARK    5  A    between atoms: C9_14  and  C10_15
REMARK    6  A    between atoms: C20_28  and  C21_29
REMARK                            x       y       z     vdW  Elec       q    Type
REMARK                         _______ _______ _______ _____ _____    ______ ____
ROOT
ATOM      1  C8  UNL     1      -0.434  -1.572  -1.534  0.00  0.00    +0.000 C 
ATOM      2  O1  UNL     1       0.262  -2.497  -1.965  0.00  0.00    +0.000 OA
ATOM      3  N4  UNL     1       0.136  -0.330  -1.222  0.00  0.00    +0.000 N 
ENDROOT
BRANCH   3   4
ATOM      4  C15 UNL     1      -0.583   0.885  -1.034  0.00  0.00    +0.000 A 
ATOM      5  C16 UNL     1      -1.651   1.225  -1.872  0.00  0.00    +0.000 A 
ATOM      6  C17 UNL     1      -2.345   2.430  -1.700  0.00  0.00    +0.000 A 
ATOM      7  C18 UNL     1      -0.204   1.800  -0.046  0.00  0.00    +0.000 A 
ATOM      8  C19 UNL     1      -0.902   3.002   0.127  0.00  0.00    +0.000 A 
ATOM      9  C20 UNL     1      -1.987   3.337  -0.694  0.00  0.00    +0.000 A 
BRANCH   9  10
ATOM     10  C21 UNL     1      -2.719   4.601  -0.513  0.00  0.00    +0.000 A 
ATOM     11  C22 UNL     1      -2.043   5.833  -0.484  0.00  0.00    +0.000 A 
ATOM     12  C23 UNL     1      -2.738   7.033  -0.313  0.00  0.00    +0.000 A 
ATOM     13  C24 UNL     1      -4.123   7.023  -0.167  0.00  0.00    +0.000 A 
ATOM     14  C25 UNL     1      -4.813   5.813  -0.192  0.00  0.00    +0.000 A 
ATOM     15  C26 UNL     1      -4.116   4.614  -0.364  0.00  0.00    +0.000 A 
ENDBRANCH   9  10
ENDBRANCH   3   4
BRANCH   1  16
ATOM     16  C7  UNL     1      -1.914  -1.757  -1.253  0.00  0.00    +0.000 C 
BRANCH  16  23
ATOM     17  C1  UNL     1      -2.540  -6.109   0.849  0.00  0.00    +0.000 A 
ATOM     18  C2  UNL     1      -1.785  -5.897   2.010  0.00  0.00    +0.000 A 
ATOM     19  C3  UNL     1      -1.127  -4.683   2.223  0.00  0.00    +0.000 A 
ATOM     20  C4  UNL     1      -1.198  -3.641   1.291  0.00  0.00    +0.000 A 
ATOM     21  C5  UNL     1      -1.955  -3.879   0.139  0.00  0.00    +0.000 A 
ATOM     22  C6  UNL     1      -2.622  -5.075  -0.094  0.00  0.00    +0.000 A 
ATOM     23  N1  UNL     1      -2.251  -3.141  -0.977  0.00  0.00    +0.000 N 
ATOM     24  N2  UNL     1      -3.077  -3.807  -1.811  0.00  0.00    +0.000 NA
ATOM     25  N3  UNL     1      -3.292  -5.006  -1.287  0.00  0.00    +0.000 NA
ENDBRANCH  16  23
ENDBRANCH   1  16
BRANCH   3  26
ATOM     26  C9  UNL     1       1.600  -0.301  -1.093  0.00  0.00    +0.000 C 
BRANCH  26  27
ATOM     27  C10 UNL     1       2.064  -0.793   0.290  0.00  0.00    +0.000 C 
ATOM     28  O2  UNL     1       1.258  -1.040   1.191  0.00  0.00    +0.000 OA
ATOM     29  N5  UNL     1       3.434  -0.894   0.491  0.00  0.00    +0.000 N 
ATOM     30  C11 UNL     1       3.942  -1.280   1.809  0.00  0.00    +0.000 C 
ATOM     31  C12 UNL     1       5.248  -0.542   2.158  0.00  0.00    +0.000 C 
ATOM     32  N6  UNL     1       6.313  -0.600   1.142  0.00  0.00    +0.000 NA
ATOM     33  C13 UNL     1       5.844  -1.152  -0.135  0.00  0.00    +0.000 C 
ATOM     34  C14 UNL     1       4.446  -0.656  -0.544  0.00  0.00    +0.000 C 
ATOM     35  H13 UNL     1       7.092  -1.161   1.486  0.00  0.00    +0.000 HD
ENDBRANCH  26  27
ENDBRANCH   3  26
TORSDOF 6
