REMARK  Name = /home/anacleto/Desktop/manuscript_Mpro/naturecomm/supplementary_file_S2/6-chemical-library/molecular_docking/3D_ligand_structure/4748.pdb
REMARK  7 active torsions:
REMARK  status: ('A' for Active; 'I' for Inactive)
REMARK    1  A    between atoms: N1_7  and  C7_10
REMARK    2  A    between atoms: C7_10  and  C8_11
REMARK    3  A    between atoms: N4_13  and  C9_14
REMARK    4  A    between atoms: N4_13  and  C14_20
REMARK    5  A    between atoms: C9_14  and  C10_15
REMARK    6  A    between atoms: C19_25  and  C20_26
REMARK    7  A    between atoms: N5_28  and  C21_29
REMARK                            x       y       z     vdW  Elec       q    Type
REMARK                         _______ _______ _______ _____ _____    ______ ____
ROOT
ATOM      1  C8  UNL     1      -2.263  -0.395  -0.042  0.00  0.00    +0.000 C 
ATOM      2  O1  UNL     1      -3.394  -0.858   0.137  0.00  0.00    +0.000 OA
ATOM      3  N4  UNL     1      -1.141  -1.220  -0.179  0.00  0.00    +0.000 N 
ENDROOT
BRANCH   3   4
ATOM      4  C14 UNL     1       0.199  -0.791   0.056  0.00  0.00    +0.000 A 
ATOM      5  C15 UNL     1       1.241  -1.240  -0.767  0.00  0.00    +0.000 A 
ATOM      6  C16 UNL     1       2.562  -0.837  -0.532  0.00  0.00    +0.000 A 
ATOM      7  C17 UNL     1       0.506   0.038   1.143  0.00  0.00    +0.000 A 
ATOM      8  C18 UNL     1       1.824   0.436   1.384  0.00  0.00    +0.000 A 
ATOM      9  C19 UNL     1       2.855   0.015   0.538  0.00  0.00    +0.000 A 
BRANCH   9  10
ATOM     10  C20 UNL     1       4.244   0.461   0.836  0.00  0.00    +0.000 C 
ATOM     11  O2  UNL     1       4.565   0.721   1.990  0.00  0.00    +0.000 OA
ATOM     12  N5  UNL     1       5.089   0.588  -0.251  0.00  0.00    +0.000 N 
ATOM     13  H16 UNL     1       4.703   0.543  -1.186  0.00  0.00    +0.000 HD
BRANCH  12  14
ATOM     14  C21 UNL     1       6.433   1.050  -0.110  0.00  0.00    +0.000 C 
ATOM     15  C22 UNL     1       7.571   0.069  -0.058  0.00  0.00    +0.000 C 
ATOM     16  C23 UNL     1       7.401   0.955  -1.258  0.00  0.00    +0.000 C 
ENDBRANCH  12  14
ENDBRANCH   9  10
ENDBRANCH   3   4
BRANCH   1  17
ATOM     17  C7  UNL     1      -2.067   1.104  -0.181  0.00  0.00    +0.000 C 
BRANCH  17  24
ATOM     18  C1  UNL     1      -5.916   3.234  -2.279  0.00  0.00    +0.000 A 
ATOM     19  C2  UNL     1      -6.748   3.332  -1.157  0.00  0.00    +0.000 A 
ATOM     20  C3  UNL     1      -6.335   2.843   0.086  0.00  0.00    +0.000 A 
ATOM     21  C4  UNL     1      -5.081   2.244   0.253  0.00  0.00    +0.000 A 
ATOM     22  C5  UNL     1      -4.267   2.161  -0.882  0.00  0.00    +0.000 A 
ATOM     23  C6  UNL     1      -4.657   2.635  -2.129  0.00  0.00    +0.000 A 
ATOM     24  N1  UNL     1      -3.016   1.660  -1.124  0.00  0.00    +0.000 N 
ATOM     25  N2  UNL     1      -2.653   1.820  -2.413  0.00  0.00    +0.000 NA
ATOM     26  N3  UNL     1      -3.659   2.413  -3.041  0.00  0.00    +0.000 NA
ENDBRANCH  17  24
ENDBRANCH   1  17
BRANCH   3  27
ATOM     27  C9  UNL     1      -1.379  -2.665  -0.299  0.00  0.00    +0.000 C 
BRANCH  27  28
ATOM     28  C10 UNL     1      -1.299  -3.317   1.056  0.00  0.00    +0.000 A 
ATOM     29  C11 UNL     1      -0.118  -3.923   1.606  0.00  0.00    +0.000 A 
ATOM     30  C12 UNL     1      -0.323  -4.439   2.866  0.00  0.00    +0.000 A 
ATOM     31  S1  UNL     1      -1.929  -4.210   3.398  0.00  0.00    +0.000 S 
ATOM     32  C13 UNL     1      -2.355  -3.420   1.944  0.00  0.00    +0.000 A 
ENDBRANCH  27  28
ENDBRANCH   3  27
TORSDOF 7
