REMARK  Name = /home/anacleto/Desktop/manuscript_Mpro/naturecomm/supplementary_file_S2/6-chemical-library/molecular_docking/3D_ligand_structure/4769.pdb
REMARK  12 active torsions:
REMARK  status: ('A' for Active; 'I' for Inactive)
REMARK    1  A    between atoms: C6_6  and  C7_7
REMARK    2  A    between atoms: C7_7  and  C8_8
REMARK    3  A    between atoms: C8_8  and  O1_9
REMARK    4  A    between atoms: O1_9  and  C9_10
REMARK    5  A    between atoms: C9_10  and  C10_12
REMARK    6  A    between atoms: C11_13  and  C12_14
REMARK    7  A    between atoms: C18_21  and  C19_22
REMARK    8  A    between atoms: C25_28  and  C26_29
REMARK    9  A    between atoms: C26_29  and  O5_31
REMARK   10  A    between atoms: O5_31  and  C27_32
REMARK   11  A    between atoms: C27_32  and  C28_33
REMARK   12  A    between atoms: C28_33  and  C29_34
REMARK                            x       y       z     vdW  Elec       q    Type
REMARK                         _______ _______ _______ _____ _____    ______ ____
ROOT
ATOM      1  C12 UNL     1       0.534   0.180  -3.070  0.00  0.00    +0.000 A 
ATOM      2  C13 UNL     1       0.888   0.517  -4.385  0.00  0.00    +0.000 A 
ATOM      3  C14 UNL     1      -0.021   0.350  -5.442  0.00  0.00    +0.000 A 
ATOM      4  C15 UNL     1      -1.292  -0.172  -5.203  0.00  0.00    +0.000 A 
ATOM      5  C16 UNL     1      -1.621  -0.505  -3.905  0.00  0.00    +0.000 A 
ATOM      6  C17 UNL     1      -0.744  -0.320  -2.848  0.00  0.00    +0.000 A 
ATOM      7  O3  UNL     1      -2.818  -1.068  -3.553  0.00  0.00    +0.000 OA
ATOM      8  C18 UNL     1      -2.678  -1.413  -2.146  0.00  0.00    +0.000 C 
ATOM      9  C25 UNL     1      -1.412  -0.735  -1.582  0.00  0.00    +0.000 C 
ENDROOT
BRANCH   8  10
ATOM     10  C19 UNL     1      -2.665  -2.923  -1.933  0.00  0.00    +0.000 A 
ATOM     11  C20 UNL     1      -2.904  -3.437  -0.647  0.00  0.00    +0.000 A 
ATOM     12  C21 UNL     1      -2.882  -4.812  -0.412  0.00  0.00    +0.000 A 
ATOM     13  C22 UNL     1      -2.624  -5.694  -1.458  0.00  0.00    +0.000 A 
ATOM     14  C23 UNL     1      -2.385  -5.201  -2.739  0.00  0.00    +0.000 A 
ATOM     15  C24 UNL     1      -2.400  -3.825  -2.974  0.00  0.00    +0.000 A 
ENDBRANCH   8  10
BRANCH   1  17
ATOM     16  C10 UNL     1       1.503   1.373  -1.160  0.00  0.00    +0.000 C 
ATOM     17  C11 UNL     1       1.516   0.325  -1.997  0.00  0.00    +0.000 C 
BRANCH  16  18
ATOM     18  C9  UNL     1       2.451   1.540  -0.039  0.00  0.00    +0.000 C 
ATOM     19  O2  UNL     1       2.265   2.352   0.854  0.00  0.00    +0.000 OA
BRANCH  18  20
ATOM     20  O1  UNL     1       3.506   0.698  -0.146  0.00  0.00    +0.000 OA
BRANCH  20  21
ATOM     21  C8  UNL     1       4.454   0.792   0.928  0.00  0.00    +0.000 C 
BRANCH  21  22
ATOM     22  C7  UNL     1       5.733   0.075   0.499  0.00  0.00    +0.000 C 
BRANCH  22  28
ATOM     23  C1  UNL     1       7.529   1.116   1.937  0.00  0.00    +0.000 A 
ATOM     24  C2  UNL     1       8.441   1.056   2.991  0.00  0.00    +0.000 A 
ATOM     25  C3  UNL     1       8.577  -0.117   3.732  0.00  0.00    +0.000 A 
ATOM     26  C4  UNL     1       7.802  -1.233   3.418  0.00  0.00    +0.000 A 
ATOM     27  C5  UNL     1       6.887  -1.174   2.365  0.00  0.00    +0.000 A 
ATOM     28  C6  UNL     1       6.743   0.000   1.614  0.00  0.00    +0.000 A 
ENDBRANCH  22  28
ENDBRANCH  21  22
ENDBRANCH  20  21
ENDBRANCH  18  20
ENDBRANCH  16  18
ENDBRANCH   1  17
BRANCH   9  29
ATOM     29  C26 UNL     1      -1.847   0.416  -0.704  0.00  0.00    +0.000 C 
ATOM     30  O4  UNL     1      -1.797   1.603  -0.988  0.00  0.00    +0.000 OA
BRANCH  29  31
ATOM     31  O5  UNL     1      -2.337  -0.074   0.474  0.00  0.00    +0.000 OA
BRANCH  31  32
ATOM     32  C27 UNL     1      -2.844   0.908   1.397  0.00  0.00    +0.000 C 
BRANCH  32  33
ATOM     33  C28 UNL     1      -4.250   1.354   0.987  0.00  0.00    +0.000 C 
BRANCH  33  34
ATOM     34  C29 UNL     1      -4.879   2.264   2.006  0.00  0.00    +0.000 A 
ATOM     35  C30 UNL     1      -5.580   1.732   3.098  0.00  0.00    +0.000 A 
ATOM     36  C31 UNL     1      -6.160   2.576   4.047  0.00  0.00    +0.000 A 
ATOM     37  C32 UNL     1      -6.040   3.958   3.914  0.00  0.00    +0.000 A 
ATOM     38  C33 UNL     1      -5.341   4.496   2.835  0.00  0.00    +0.000 A 
ATOM     39  C34 UNL     1      -4.760   3.654   1.886  0.00  0.00    +0.000 A 
ENDBRANCH  33  34
ENDBRANCH  32  33
ENDBRANCH  31  32
ENDBRANCH  29  31
ENDBRANCH   9  29
TORSDOF 12
