REMARK  Name = /home/anacleto/Desktop/manuscript_Mpro/naturecomm/supplementary_file_S2/6-chemical-library/molecular_docking/3D_ligand_structure/4770.pdb
REMARK  5 active torsions:
REMARK  status: ('A' for Active; 'I' for Inactive)
REMARK    1  A    between atoms: C9_11  and  C10_12
REMARK    2  A    between atoms: C12_16  and  C13_17
REMARK    3  A    between atoms: N3_19  and  C14_20
REMARK    4  A    between atoms: C14_20  and  C15_21
REMARK    5  A    between atoms: N4_28  and  C21_29
REMARK                            x       y       z     vdW  Elec       q    Type
REMARK                         _______ _______ _______ _____ _____    ______ ____
ROOT
ATOM      1  C10 UNL     1       2.104  -1.302   0.562  0.00  0.00    +0.000 C 
ATOM      2  O2  UNL     1       1.871  -2.229   1.335  0.00  0.00    +0.000 OA
ATOM      3  N2  UNL     1       1.286  -0.189   0.444  0.00  0.00    +0.000 N 
ATOM      4  C11 UNL     1       0.103  -0.121   1.309  0.00  0.00    +0.000 C 
ATOM      5  C12 UNL     1      -1.063   0.694   0.711  0.00  0.00    +0.000 C 
ATOM      6  C19 UNL     1       1.718   1.109  -0.103  0.00  0.00    +0.000 C 
ATOM      7  C20 UNL     1       0.562   1.884  -0.763  0.00  0.00    +0.000 C 
ATOM      8  N4  UNL     1      -0.580   2.002   0.167  0.00  0.00    +0.000 N 
ENDROOT
BRANCH   1  19
ATOM      9  C1  UNL     1       4.969  -1.214   1.599  0.00  0.00    +0.000 A 
ATOM     10  C2  UNL     1       6.293  -1.189   2.044  0.00  0.00    +0.000 A 
ATOM     11  C3  UNL     1       7.343  -1.291   1.132  0.00  0.00    +0.000 A 
ATOM     12  C4  UNL     1       7.073  -1.421  -0.231  0.00  0.00    +0.000 A 
ATOM     13  C5  UNL     1       5.750  -1.446  -0.672  0.00  0.00    +0.000 A 
ATOM     14  C6  UNL     1       4.683  -1.340   0.233  0.00  0.00    +0.000 A 
ATOM     15  N1  UNL     1       5.482  -1.579  -2.040  0.00  0.00    +0.000 N 
ATOM     16  C7  UNL     1       4.221  -1.621  -2.567  0.00  0.00    +0.000 A 
ATOM     17  O1  UNL     1       4.019  -1.722  -3.771  0.00  0.00    +0.000 OA
ATOM     18  C8  UNL     1       3.094  -1.525  -1.616  0.00  0.00    +0.000 A 
ATOM     19  C9  UNL     1       3.313  -1.359  -0.302  0.00  0.00    +0.000 A 
ATOM     20  H5  UNL     1       6.241  -1.654  -2.705  0.00  0.00    +0.000 HD
ENDBRANCH   1  19
BRANCH   8  21
ATOM     21  C21 UNL     1      -1.622   2.875  -0.185  0.00  0.00    +0.000 A 
ATOM     22  C22 UNL     1      -2.416   3.433   0.830  0.00  0.00    +0.000 A 
ATOM     23  C23 UNL     1      -3.468   4.307   0.539  0.00  0.00    +0.000 A 
ATOM     24  C24 UNL     1      -3.750   4.638  -0.781  0.00  0.00    +0.000 A 
ATOM     25  C25 UNL     1      -2.978   4.097  -1.805  0.00  0.00    +0.000 A 
ATOM     26  C26 UNL     1      -1.922   3.228  -1.508  0.00  0.00    +0.000 A 
ENDBRANCH   8  21
BRANCH   5  27
ATOM     27  C13 UNL     1      -1.797  -0.186  -0.332  0.00  0.00    +0.000 C 
ATOM     28  O3  UNL     1      -1.432  -0.325  -1.498  0.00  0.00    +0.000 OA
ATOM     29  N3  UNL     1      -2.901  -0.852   0.166  0.00  0.00    +0.000 N 
ATOM     30  H10 UNL     1      -3.093  -0.850   1.160  0.00  0.00    +0.000 HD
BRANCH  29  31
ATOM     31  C14 UNL     1      -3.618  -1.796  -0.657  0.00  0.00    +0.000 C 
BRANCH  31  32
ATOM     32  C15 UNL     1      -4.851  -2.215   0.075  0.00  0.00    +0.000 A 
ATOM     33  C16 UNL     1      -6.102  -1.630   0.045  0.00  0.00    +0.000 A 
ATOM     34  C17 UNL     1      -7.036  -2.305   0.883  0.00  0.00    +0.000 A 
ATOM     35  C18 UNL     1      -6.467  -3.380   1.526  0.00  0.00    +0.000 A 
ATOM     36  S1  UNL     1      -4.817  -3.570   1.123  0.00  0.00    +0.000 S 
ENDBRANCH  31  32
ENDBRANCH  29  31
ENDBRANCH   5  27
TORSDOF 5
