REMARK  Name = /home/anacleto/Desktop/manuscript_Mpro/naturecomm/supplementary_file_S2/6-chemical-library/molecular_docking/3D_ligand_structure/4785.pdb
REMARK  5 active torsions:
REMARK  status: ('A' for Active; 'I' for Inactive)
REMARK    1  A    between atoms: C6_6  and  C7_7
REMARK    2  A    between atoms: N1_9  and  C8_10
REMARK    3  A    between atoms: C10_12  and  O2_16
REMARK    4  A    between atoms: O2_16  and  C14_17
REMARK    5  A    between atoms: C19_24  and  C20_26
REMARK                            x       y       z     vdW  Elec       q    Type
REMARK                         _______ _______ _______ _____ _____    ______ ____
ROOT
ATOM      1  C8  UNL     1       1.999  -0.260   1.649  0.00  0.00    +0.000 A 
ATOM      2  C9  UNL     1       1.130  -1.186   1.071  0.00  0.00    +0.000 A 
ATOM      3  C10 UNL     1       0.024  -1.647   1.790  0.00  0.00    +0.000 A 
ATOM      4  C11 UNL     1      -0.205  -1.226   3.099  0.00  0.00    +0.000 A 
ATOM      5  C12 UNL     1       0.668  -0.314   3.687  0.00  0.00    +0.000 A 
ATOM      6  C13 UNL     1       1.764   0.166   2.964  0.00  0.00    +0.000 A 
ENDROOT
BRANCH   1   9
ATOM      7  C7  UNL     1       3.449   0.131  -0.351  0.00  0.00    +0.000 C 
ATOM      8  O1  UNL     1       2.739  -0.355  -1.223  0.00  0.00    +0.000 OA
ATOM      9  N1  UNL     1       3.130   0.265   0.989  0.00  0.00    +0.000 N 
ATOM     10  H6  UNL     1       3.718   0.877   1.541  0.00  0.00    +0.000 HD
BRANCH   7  16
ATOM     11  C1  UNL     1       4.910   1.260  -2.018  0.00  0.00    +0.000 A 
ATOM     12  C2  UNL     1       6.136   1.797  -2.419  0.00  0.00    +0.000 A 
ATOM     13  C3  UNL     1       7.227   1.767  -1.551  0.00  0.00    +0.000 A 
ATOM     14  C4  UNL     1       7.100   1.193  -0.285  0.00  0.00    +0.000 A 
ATOM     15  C5  UNL     1       5.876   0.655   0.120  0.00  0.00    +0.000 A 
ATOM     16  C6  UNL     1       4.772   0.699  -0.742  0.00  0.00    +0.000 A 
ENDBRANCH   7  16
ENDBRANCH   1   9
BRANCH   3  17
ATOM     17  O2  UNL     1      -0.794  -2.578   1.191  0.00  0.00    +0.000 OA
BRANCH  17  18
ATOM     18  C14 UNL     1      -2.081  -2.125   0.959  0.00  0.00    +0.000 A 
ATOM     19  N2  UNL     1      -3.041  -2.627   1.772  0.00  0.00    +0.000 NA
ATOM     20  C15 UNL     1      -4.331  -2.249   1.568  0.00  0.00    +0.000 A 
ATOM     21  C16 UNL     1      -2.301  -1.257  -0.110  0.00  0.00    +0.000 A 
ATOM     22  C17 UNL     1      -3.631  -0.892  -0.282  0.00  0.00    +0.000 A 
ATOM     23  C18 UNL     1      -4.652  -1.366   0.533  0.00  0.00    +0.000 A 
ATOM     24  N3  UNL     1      -4.263  -0.071  -1.182  0.00  0.00    +0.000 N 
ATOM     25  C19 UNL     1      -5.606  -0.066  -0.892  0.00  0.00    +0.000 A 
ATOM     26  N4  UNL     1      -5.863  -0.846   0.141  0.00  0.00    +0.000 NA
ATOM     27  H13 UNL     1      -3.811   0.442  -1.924  0.00  0.00    +0.000 HD
BRANCH  25  28
ATOM     28  C20 UNL     1      -6.679   0.750  -1.677  0.00  0.00    +0.000 A 
ATOM     29  C21 UNL     1      -6.474   1.594  -2.773  0.00  0.00    +0.000 A 
ATOM     30  N5  UNL     1      -7.630   2.121  -3.174  0.00  0.00    +0.000 NA
ATOM     31  O3  UNL     1      -8.576   1.586  -2.298  0.00  0.00    +0.000 OA
ATOM     32  N6  UNL     1      -7.978   0.737  -1.371  0.00  0.00    +0.000 NA
ENDBRANCH  25  28
ENDBRANCH  17  18
ENDBRANCH   3  17
TORSDOF 5
