REMARK  Name = /home/anacleto/Desktop/manuscript_Mpro/naturecomm/supplementary_file_S2/6-chemical-library/molecular_docking/3D_ligand_structure/4793.pdb
REMARK  4 active torsions:
REMARK  status: ('A' for Active; 'I' for Inactive)
REMARK    1  A    between atoms: N1_7  and  C7_10
REMARK    2  A    between atoms: C7_10  and  C8_11
REMARK    3  A    between atoms: C12_17  and  C13_18
REMARK    4  A    between atoms: C14_22  and  C15_23
REMARK                            x       y       z     vdW  Elec       q    Type
REMARK                         _______ _______ _______ _____ _____    ______ ____
ROOT
ATOM      1  C8  UNL     1      -1.032  -1.117   0.526  0.00  0.00    +0.000 C 
ATOM      2  O1  UNL     1      -2.136  -1.407   0.991  0.00  0.00    +0.000 OA
ATOM      3  N4  UNL     1      -0.155  -2.112   0.126  0.00  0.00    +0.000 N 
ATOM      4  C9  UNL     1      -0.569  -3.505   0.146  0.00  0.00    +0.000 C 
ATOM      5  C10 UNL     1       0.278  -4.158  -0.934  0.00  0.00    +0.000 C 
ATOM      6  C11 UNL     1       1.600  -3.410  -0.825  0.00  0.00    +0.000 C 
ATOM      7  C12 UNL     1       1.174  -1.970  -0.496  0.00  0.00    +0.000 C 
ENDROOT
BRANCH   7   8
ATOM      8  C13 UNL     1       2.144  -1.257   0.392  0.00  0.00    +0.000 A 
ATOM      9  N5  UNL     1       2.628  -1.768   1.533  0.00  0.00    +0.000 NA
ATOM     10  O2  UNL     1       3.424  -0.736   2.033  0.00  0.00    +0.000 OA
ATOM     11  N6  UNL     1       2.547   0.029   0.124  0.00  0.00    +0.000 NA
ATOM     12  C14 UNL     1       3.319   0.303   1.152  0.00  0.00    +0.000 A 
BRANCH  12  13
ATOM     13  C15 UNL     1       4.020   1.675   1.347  0.00  0.00    +0.000 C 
ATOM     14  C16 UNL     1       3.168   2.907   1.519  0.00  0.00    +0.000 C 
ATOM     15  C17 UNL     1       3.942   2.363   2.685  0.00  0.00    +0.000 C 
ENDBRANCH  12  13
ENDBRANCH   7   8
BRANCH   1  16
ATOM     16  C7  UNL     1      -0.579   0.321   0.371  0.00  0.00    +0.000 C 
BRANCH  16  23
ATOM     17  C1  UNL     1      -4.410   3.065  -0.861  0.00  0.00    +0.000 A 
ATOM     18  C2  UNL     1      -4.831   2.352  -1.992  0.00  0.00    +0.000 A 
ATOM     19  C3  UNL     1      -4.171   1.187  -2.390  0.00  0.00    +0.000 A 
ATOM     20  C4  UNL     1      -3.071   0.693  -1.679  0.00  0.00    +0.000 A 
ATOM     21  C5  UNL     1      -2.671   1.421  -0.553  0.00  0.00    +0.000 A 
ATOM     22  C6  UNL     1      -3.310   2.584  -0.138  0.00  0.00    +0.000 A 
ATOM     23  N1  UNL     1      -1.676   1.269   0.380  0.00  0.00    +0.000 N 
ATOM     24  N2  UNL     1      -1.669   2.285   1.270  0.00  0.00    +0.000 NA
ATOM     25  N3  UNL     1      -2.687   3.083   0.975  0.00  0.00    +0.000 NA
ENDBRANCH  16  23
ENDBRANCH   1  16
TORSDOF 4
