REMARK  Name = /home/anacleto/Desktop/manuscript_Mpro/naturecomm/supplementary_file_S2/6-chemical-library/molecular_docking/3D_ligand_structure/4794.pdb
REMARK  9 active torsions:
REMARK  status: ('A' for Active; 'I' for Inactive)
REMARK    1  A    between atoms: C6_6  and  N1_7
REMARK    2  A    between atoms: N1_7  and  C12_15
REMARK    3  A    between atoms: C7_8  and  C8_10
REMARK    4  A    between atoms: C12_15  and  C13_16
REMARK    5  A    between atoms: C12_15  and  C18_22
REMARK    6  A    between atoms: N3_24  and  C19_25
REMARK    7  A    between atoms: C19_25  and  C20_26
REMARK    8  A    between atoms: C20_26  and  C21_27
REMARK    9  A    between atoms: C20_26  and  C27_33
REMARK                            x       y       z     vdW  Elec       q    Type
REMARK                         _______ _______ _______ _____ _____    ______ ____
ROOT
ATOM      1  C12 UNL     1       1.472  -0.976  -0.479  0.00  0.00    +0.000 C 
ENDROOT
BRANCH   1   2
ATOM      2  C13 UNL     1       1.309  -2.218   0.391  0.00  0.00    +0.000 A 
ATOM      3  C14 UNL     1       2.350  -2.736   1.175  0.00  0.00    +0.000 A 
ATOM      4  C15 UNL     1       2.162  -3.904   1.912  0.00  0.00    +0.000 A 
ATOM      5  C16 UNL     1       0.940  -4.544   1.826  0.00  0.00    +0.000 A 
ATOM      6  N2  UNL     1      -0.077  -4.107   1.057  0.00  0.00    +0.000 NA
ATOM      7  C17 UNL     1       0.131  -2.968   0.355  0.00  0.00    +0.000 A 
ENDBRANCH   1   2
BRANCH   1   8
ATOM      8  C18 UNL     1       0.207  -0.106  -0.688  0.00  0.00    +0.000 C 
ATOM      9  O3  UNL     1      -0.030   0.431  -1.771  0.00  0.00    +0.000 OA
ATOM     10  N3  UNL     1      -0.567   0.116   0.433  0.00  0.00    +0.000 N 
ATOM     11  H14 UNL     1      -0.096  -0.035   1.329  0.00  0.00    +0.000 HD
BRANCH  10  12
ATOM     12  C19 UNL     1      -1.695   1.035   0.432  0.00  0.00    +0.000 C 
BRANCH  12  13
ATOM     13  C20 UNL     1      -2.889   0.612  -0.466  0.00  0.00    +0.000 C 
BRANCH  13  14
ATOM     14  C21 UNL     1      -3.954   1.709  -0.423  0.00  0.00    +0.000 A 
ATOM     15  C22 UNL     1      -4.828   1.847   0.667  0.00  0.00    +0.000 A 
ATOM     16  C23 UNL     1      -5.776   2.872   0.693  0.00  0.00    +0.000 A 
ATOM     17  C24 UNL     1      -5.859   3.774  -0.366  0.00  0.00    +0.000 A 
ATOM     18  C25 UNL     1      -4.995   3.653  -1.452  0.00  0.00    +0.000 A 
ATOM     19  C26 UNL     1      -4.047   2.629  -1.481  0.00  0.00    +0.000 A 
ENDBRANCH  13  14
BRANCH  13  20
ATOM     20  C27 UNL     1      -3.472  -0.780  -0.212  0.00  0.00    +0.000 A 
ATOM     21  C28 UNL     1      -3.319  -1.471   0.999  0.00  0.00    +0.000 A 
ATOM     22  C29 UNL     1      -3.855  -2.751   1.165  0.00  0.00    +0.000 A 
ATOM     23  C30 UNL     1      -4.569  -3.353   0.131  0.00  0.00    +0.000 A 
ATOM     24  C31 UNL     1      -4.749  -2.676  -1.071  0.00  0.00    +0.000 A 
ATOM     25  C32 UNL     1      -4.205  -1.401  -1.241  0.00  0.00    +0.000 A 
ENDBRANCH  13  20
ENDBRANCH  12  13
ENDBRANCH  10  12
ENDBRANCH   1   8
BRANCH   1  26
ATOM     26  N1  UNL     1       2.576  -0.049  -0.112  0.00  0.00    +0.000 N 
ATOM     27  C7  UNL     1       2.494   0.621   1.129  0.00  0.00    +0.000 C 
ATOM     28  O1  UNL     1       1.671   0.262   1.977  0.00  0.00    +0.000 OA
BRANCH  26  34
ATOM     29  C1  UNL     1       3.618  -0.036  -2.341  0.00  0.00    +0.000 A 
ATOM     30  C2  UNL     1       4.753  -0.051  -3.157  0.00  0.00    +0.000 A 
ATOM     31  C3  UNL     1       6.023  -0.089  -2.588  0.00  0.00    +0.000 A 
ATOM     32  C4  UNL     1       6.160  -0.111  -1.203  0.00  0.00    +0.000 A 
ATOM     33  C5  UNL     1       5.026  -0.094  -0.386  0.00  0.00    +0.000 A 
ATOM     34  C6  UNL     1       3.740  -0.051  -0.945  0.00  0.00    +0.000 A 
ENDBRANCH  26  34
BRANCH  27  35
ATOM     35  C8  UNL     1       3.311   1.808   1.342  0.00  0.00    +0.000 A 
ATOM     36  C9  UNL     1       3.797   2.794   0.498  0.00  0.00    +0.000 A 
ATOM     37  C10 UNL     1       4.502   3.720   1.304  0.00  0.00    +0.000 A 
ATOM     38  C11 UNL     1       4.391   3.261   2.594  0.00  0.00    +0.000 A 
ATOM     39  O2  UNL     1       3.669   2.113   2.631  0.00  0.00    +0.000 OA
ENDBRANCH  27  35
ENDBRANCH   1  26
TORSDOF 9
