REMARK  Name = /home/anacleto/Desktop/manuscript_Mpro/naturecomm/supplementary_file_S2/6-chemical-library/molecular_docking/3D_ligand_structure/480.pdb
REMARK  5 active torsions:
REMARK  status: ('A' for Active; 'I' for Inactive)
REMARK    1  A    between atoms: C5_7  and  C6_8
REMARK    2  A    between atoms: C6_8  and  N2_9
REMARK    3  A    between atoms: N3_12  and  C8_13
REMARK    4  A    between atoms: C8_13  and  C9_14
REMARK    5  A    between atoms: C9_14  and  C10_15
REMARK                            x       y       z     vdW  Elec       q    Type
REMARK                         _______ _______ _______ _____ _____    ______ ____
ROOT
ATOM      1  N2  UNL     1      -1.747   0.107  -0.657  0.00  0.00    +0.000 N 
ATOM      2  C7  UNL     1      -0.424  -0.229  -0.800  0.00  0.00    +0.000 C 
ATOM      3  O2  UNL     1      -0.011  -1.363  -0.993  0.00  0.00    +0.000 OA
ATOM      4  N3  UNL     1       0.376   0.880  -0.692  0.00  0.00    +0.000 N 
ATOM      5  H7  UNL     1      -1.964   1.012  -1.047  0.00  0.00    +0.000 HD
ATOM      6  H8  UNL     1      -0.003   1.635  -0.140  0.00  0.00    +0.000 HD
ENDROOT
BRANCH   1   7
ATOM      7  C6  UNL     1      -2.758  -0.915  -0.865  0.00  0.00    +0.000 C 
BRANCH   7  14
ATOM      8  C1  UNL     1      -4.303   0.468   0.620  0.00  0.00    +0.000 A 
ATOM      9  C2  UNL     1      -5.634   0.781   1.086  0.00  0.00    +0.000 A 
ATOM     10  C3  UNL     1      -6.683   0.108   0.602  0.00  0.00    +0.000 A 
ATOM     11  N1  UNL     1      -6.495  -0.873  -0.333  0.00  0.00    +0.000 N 
ATOM     12  C4  UNL     1      -5.267  -1.240  -0.834  0.00  0.00    +0.000 A 
ATOM     13  O1  UNL     1      -5.155  -2.130  -1.670  0.00  0.00    +0.000 OA
ATOM     14  C5  UNL     1      -4.082  -0.490  -0.302  0.00  0.00    +0.000 A 
ATOM     15  H4  UNL     1      -7.286  -1.389  -0.699  0.00  0.00    +0.000 HD
ENDBRANCH   7  14
ENDBRANCH   1   7
BRANCH   4  16
ATOM     16  C8  UNL     1       1.822   0.756  -0.741  0.00  0.00    +0.000 C 
BRANCH  16  17
ATOM     17  C9  UNL     1       2.408   0.208   0.563  0.00  0.00    +0.000 C 
BRANCH  17  18
ATOM     18  C10 UNL     1       3.914   0.141   0.513  0.00  0.00    +0.000 A 
ATOM     19  C11 UNL     1       4.551  -0.967  -0.063  0.00  0.00    +0.000 A 
ATOM     20  C12 UNL     1       5.943  -1.026  -0.130  0.00  0.00    +0.000 A 
ATOM     21  C13 UNL     1       6.711   0.023   0.373  0.00  0.00    +0.000 A 
ATOM     22  C14 UNL     1       6.087   1.131   0.943  0.00  0.00    +0.000 A 
ATOM     23  C15 UNL     1       4.694   1.192   1.012  0.00  0.00    +0.000 A 
ENDBRANCH  17  18
ENDBRANCH  16  17
ENDBRANCH   4  16
TORSDOF 5
