REMARK  Name = /home/anacleto/Desktop/manuscript_Mpro/naturecomm/supplementary_file_S2/6-chemical-library/molecular_docking/3D_ligand_structure/4812.pdb
REMARK  10 active torsions:
REMARK  status: ('A' for Active; 'I' for Inactive)
REMARK    1  A    between atoms: C6_6  and  C7_7
REMARK    2  A    between atoms: C7_7  and  C8_8
REMARK    3  A    between atoms: C8_8  and  N1_9
REMARK    4  A    between atoms: C9_10  and  C10_12
REMARK    5  A    between atoms: C10_12  and  C11_13
REMARK    6  A    between atoms: C10_12  and  N3_19
REMARK    7  A    between atoms: N3_19  and  C20_27
REMARK    8  A    between atoms: C16_20  and  C17_22
REMARK    9  A    between atoms: C23_30  and  O4_33
REMARK   10  A    between atoms: O4_33  and  C26_34
REMARK                            x       y       z     vdW  Elec       q    Type
REMARK                         _______ _______ _______ _____ _____    ______ ____
ROOT
ATOM      1  N3  UNL     1      -0.422   1.620   0.625  0.00  0.00    +0.000 N 
ATOM      2  C16 UNL     1      -0.095   2.328   1.801  0.00  0.00    +0.000 C 
ATOM      3  O2  UNL     1       1.068   2.454   2.182  0.00  0.00    +0.000 OA
ENDROOT
BRANCH   1   4
ATOM      4  C20 UNL     1      -1.612   0.828   0.519  0.00  0.00    +0.000 A 
ATOM      5  C21 UNL     1      -2.236   0.655  -0.723  0.00  0.00    +0.000 A 
ATOM      6  C22 UNL     1      -3.399  -0.118  -0.844  0.00  0.00    +0.000 A 
ATOM      7  C23 UNL     1      -3.949  -0.739   0.275  0.00  0.00    +0.000 A 
ATOM      8  C24 UNL     1      -3.333  -0.567   1.514  0.00  0.00    +0.000 A 
ATOM      9  C25 UNL     1      -2.173   0.203   1.638  0.00  0.00    +0.000 A 
BRANCH   7  10
ATOM     10  O4  UNL     1      -5.075  -1.511   0.299  0.00  0.00    +0.000 OA
BRANCH  10  11
ATOM     11  C26 UNL     1      -5.639  -1.935  -0.947  0.00  0.00    +0.000 C 
ATOM     12  C27 UNL     1      -6.663  -0.931  -1.433  0.00  0.00    +0.000 C 
ATOM     13  C28 UNL     1      -7.872  -1.282  -0.594  0.00  0.00    +0.000 C 
ATOM     14  O5  UNL     1      -7.853  -2.705  -0.436  0.00  0.00    +0.000 OA
ATOM     15  C29 UNL     1      -6.511  -3.163  -0.688  0.00  0.00    +0.000 C 
ENDBRANCH  10  11
ENDBRANCH   7  10
ENDBRANCH   1   4
BRANCH   2  16
ATOM     16  C17 UNL     1      -1.182   3.022   2.505  0.00  0.00    +0.000 A 
ATOM     17  C18 UNL     1      -2.351   3.528   1.973  0.00  0.00    +0.000 A 
ATOM     18  O3  UNL     1      -3.057   4.132   2.969  0.00  0.00    +0.000 OA
ATOM     19  C19 UNL     1      -2.270   3.974   4.067  0.00  0.00    +0.000 A 
ATOM     20  N4  UNL     1      -1.144   3.333   3.856  0.00  0.00    +0.000 NA
ENDBRANCH   2  16
BRANCH   1  21
ATOM     21  C10 UNL     1       0.703   1.242  -0.265  0.00  0.00    +0.000 C 
BRANCH  21  22
ATOM     22  C11 UNL     1       1.395   2.451  -0.882  0.00  0.00    +0.000 A 
ATOM     23  C12 UNL     1       0.898   3.024  -2.062  0.00  0.00    +0.000 A 
ATOM     24  C13 UNL     1       1.541   4.117  -2.635  0.00  0.00    +0.000 A 
ATOM     25  C14 UNL     1       2.672   4.610  -2.011  0.00  0.00    +0.000 A 
ATOM     26  N2  UNL     1       3.180   4.094  -0.874  0.00  0.00    +0.000 NA
ATOM     27  C15 UNL     1       2.523   3.048  -0.322  0.00  0.00    +0.000 A 
ENDBRANCH  21  22
BRANCH  21  29
ATOM     28  N1  UNL     1       2.769  -0.147  -0.380  0.00  0.00    +0.000 N 
ATOM     29  C9  UNL     1       1.630   0.154   0.357  0.00  0.00    +0.000 C 
ATOM     30  O1  UNL     1       1.321  -0.494   1.357  0.00  0.00    +0.000 OA
ATOM     31  H10 UNL     1       3.105   0.545  -1.040  0.00  0.00    +0.000 HD
BRANCH  28  32
ATOM     32  C8  UNL     1       3.746  -1.093   0.135  0.00  0.00    +0.000 C 
BRANCH  32  33
ATOM     33  C7  UNL     1       4.727  -1.533  -0.951  0.00  0.00    +0.000 C 
BRANCH  33  39
ATOM     34  C1  UNL     1       6.935  -2.078   0.146  0.00  0.00    +0.000 A 
ATOM     35  C2  UNL     1       7.864  -2.996   0.639  0.00  0.00    +0.000 A 
ATOM     36  C3  UNL     1       7.605  -4.363   0.561  0.00  0.00    +0.000 A 
ATOM     37  C4  UNL     1       6.416  -4.814  -0.008  0.00  0.00    +0.000 A 
ATOM     38  C5  UNL     1       5.485  -3.899  -0.502  0.00  0.00    +0.000 A 
ATOM     39  C6  UNL     1       5.739  -2.522  -0.434  0.00  0.00    +0.000 A 
ENDBRANCH  33  39
ENDBRANCH  32  33
ENDBRANCH  28  32
ENDBRANCH  21  29
ENDBRANCH   1  21
TORSDOF 10
