REMARK  Name = /home/anacleto/Desktop/manuscript_Mpro/naturecomm/supplementary_file_S2/6-chemical-library/molecular_docking/3D_ligand_structure/4813.pdb
REMARK  8 active torsions:
REMARK  status: ('A' for Active; 'I' for Inactive)
REMARK    1  A    between atoms: C6_6  and  C7_7
REMARK    2  A    between atoms: C7_7  and  C8_8
REMARK    3  A    between atoms: C8_8  and  N1_9
REMARK    4  A    between atoms: C9_10  and  C10_12
REMARK    5  A    between atoms: C10_12  and  N2_13
REMARK    6  A    between atoms: C10_12  and  C21_27
REMARK    7  A    between atoms: N2_13  and  C15_21
REMARK    8  A    between atoms: C11_14  and  C12_16
REMARK                            x       y       z     vdW  Elec       q    Type
REMARK                         _______ _______ _______ _____ _____    ______ ____
ROOT
ATOM      1  C10 UNL     1       0.301   1.329   0.466  0.00  0.00    +0.000 C 
ENDROOT
BRANCH   1   2
ATOM      2  C21 UNL     1      -0.810   0.306   0.527  0.00  0.00    +0.000 A 
ATOM      3  C22 UNL     1      -1.651   0.225   1.615  0.00  0.00    +0.000 A 
ATOM      4  N4  UNL     1      -2.638  -0.683   1.744  0.00  0.00    +0.000 NA
ATOM      5  C23 UNL     1      -2.821  -1.563   0.746  0.00  0.00    +0.000 A 
ATOM      6  N5  UNL     1      -2.055  -1.551  -0.357  0.00  0.00    +0.000 NA
ATOM      7  C24 UNL     1      -1.090  -0.614  -0.457  0.00  0.00    +0.000 A 
ATOM      8  N6  UNL     1      -3.810  -2.539   0.874  0.00  0.00    +0.000 N 
ATOM      9  C25 UNL     1      -4.235  -3.127  -0.405  0.00  0.00    +0.000 C 
ATOM     10  C26 UNL     1      -5.280  -4.242  -0.179  0.00  0.00    +0.000 C 
ATOM     11  N7  UNL     1      -6.432  -3.818   0.643  0.00  0.00    +0.000 NA
ATOM     12  C27 UNL     1      -5.915  -3.323   1.935  0.00  0.00    +0.000 C 
ATOM     13  C28 UNL     1      -4.894  -2.172   1.795  0.00  0.00    +0.000 C 
ATOM     14  H25 UNL     1      -6.889  -3.040   0.166  0.00  0.00    +0.000 HD
ENDBRANCH   1   2
BRANCH   1  16
ATOM     15  N1  UNL     1       2.050  -0.425   0.178  0.00  0.00    +0.000 N 
ATOM     16  C9  UNL     1       1.632   0.848  -0.190  0.00  0.00    +0.000 C 
ATOM     17  O1  UNL     1       2.331   1.577  -0.894  0.00  0.00    +0.000 OA
ATOM     18  H10 UNL     1       1.370  -1.061   0.577  0.00  0.00    +0.000 HD
BRANCH  15  19
ATOM     19  C8  UNL     1       3.212  -1.026  -0.460  0.00  0.00    +0.000 C 
BRANCH  19  20
ATOM     20  C7  UNL     1       3.698  -2.257   0.303  0.00  0.00    +0.000 C 
BRANCH  20  26
ATOM     21  C1  UNL     1       6.176  -2.544  -0.086  0.00  0.00    +0.000 A 
ATOM     22  C2  UNL     1       7.252  -3.156  -0.732  0.00  0.00    +0.000 A 
ATOM     23  C3  UNL     1       7.023  -4.151  -1.680  0.00  0.00    +0.000 A 
ATOM     24  C4  UNL     1       5.719  -4.534  -1.985  0.00  0.00    +0.000 A 
ATOM     25  C5  UNL     1       4.642  -3.924  -1.341  0.00  0.00    +0.000 A 
ATOM     26  C6  UNL     1       4.861  -2.927  -0.381  0.00  0.00    +0.000 A 
ENDBRANCH  20  26
ENDBRANCH  19  20
ENDBRANCH  15  19
ENDBRANCH   1  16
BRANCH   1  27
ATOM     27  N2  UNL     1      -0.153   2.639  -0.060  0.00  0.00    +0.000 N 
ATOM     28  C11 UNL     1      -0.583   2.677  -1.405  0.00  0.00    +0.000 C 
ATOM     29  O2  UNL     1      -0.454   1.707  -2.151  0.00  0.00    +0.000 OA
BRANCH  27  30
ATOM     30  C15 UNL     1       0.355   3.797   0.614  0.00  0.00    +0.000 A 
ATOM     31  C16 UNL     1       0.147   3.955   1.991  0.00  0.00    +0.000 A 
ATOM     32  C17 UNL     1       0.633   5.082   2.659  0.00  0.00    +0.000 A 
ATOM     33  C18 UNL     1       1.338   6.058   1.959  0.00  0.00    +0.000 A 
ATOM     34  C19 UNL     1       1.562   5.907   0.594  0.00  0.00    +0.000 A 
ATOM     35  C20 UNL     1       1.075   4.782  -0.076  0.00  0.00    +0.000 A 
ENDBRANCH  27  30
BRANCH  28  36
ATOM     36  C12 UNL     1      -1.302   3.871  -1.869  0.00  0.00    +0.000 A 
ATOM     37  C13 UNL     1      -2.076   4.743  -1.130  0.00  0.00    +0.000 A 
ATOM     38  O3  UNL     1      -2.589   5.687  -1.968  0.00  0.00    +0.000 OA
ATOM     39  C14 UNL     1      -2.113   5.330  -3.191  0.00  0.00    +0.000 A 
ATOM     40  N3  UNL     1      -1.354   4.260  -3.200  0.00  0.00    +0.000 NA
ENDBRANCH  28  36
ENDBRANCH   1  27
TORSDOF 8
