REMARK  Name = /home/anacleto/Desktop/manuscript_Mpro/naturecomm/supplementary_file_S2/6-chemical-library/molecular_docking/3D_ligand_structure/4823.pdb
REMARK  10 active torsions:
REMARK  status: ('A' for Active; 'I' for Inactive)
REMARK    1  A    between atoms: C6_6  and  C7_7
REMARK    2  A    between atoms: C7_7  and  C8_8
REMARK    3  A    between atoms: C8_8  and  N1_9
REMARK    4  A    between atoms: C9_10  and  C10_12
REMARK    5  A    between atoms: C10_12  and  C11_13
REMARK    6  A    between atoms: C10_12  and  N3_19
REMARK    7  A    between atoms: N3_19  and  C20_27
REMARK    8  A    between atoms: C16_20  and  C17_22
REMARK    9  A    between atoms: C25_32  and  C26_33
REMARK   10  A    between atoms: C26_33  and  N6_34
REMARK                            x       y       z     vdW  Elec       q    Type
REMARK                         _______ _______ _______ _____ _____    ______ ____
ROOT
ATOM      1  N3  UNL     1      -0.668  -1.292   0.530  0.00  0.00    +0.000 N 
ATOM      2  C16 UNL     1      -0.555  -1.904   1.797  0.00  0.00    +0.000 C 
ATOM      3  O2  UNL     1       0.425  -1.717   2.516  0.00  0.00    +0.000 OA
ENDROOT
BRANCH   2   4
ATOM      4  C17 UNL     1      -1.578  -2.853   2.192  0.00  0.00    +0.000 A 
ATOM      5  C18 UNL     1      -1.810  -3.385   3.447  0.00  0.00    +0.000 A 
ATOM      6  N4  UNL     1      -2.854  -4.274   3.433  0.00  0.00    +0.000 NA
ATOM      7  C19 UNL     1      -3.251  -4.314   2.184  0.00  0.00    +0.000 A 
ATOM      8  N5  UNL     1      -2.500  -3.492   1.395  0.00  0.00    +0.000 N 
ATOM      9  H18 UNL     1      -2.611  -3.368   0.399  0.00  0.00    +0.000 HD
ENDBRANCH   2   4
BRANCH   1  10
ATOM     10  C20 UNL     1      -1.920  -0.838   0.000  0.00  0.00    +0.000 A 
ATOM     11  C21 UNL     1      -2.948  -0.389   0.838  0.00  0.00    +0.000 A 
ATOM     12  C22 UNL     1      -4.170   0.033   0.307  0.00  0.00    +0.000 A 
ATOM     13  C23 UNL     1      -2.139  -0.840  -1.384  0.00  0.00    +0.000 A 
ATOM     14  C24 UNL     1      -3.360  -0.414  -1.917  0.00  0.00    +0.000 A 
ATOM     15  C25 UNL     1      -4.388   0.033  -1.077  0.00  0.00    +0.000 A 
BRANCH  15  16
ATOM     16  C26 UNL     1      -5.711   0.480  -1.652  0.00  0.00    +0.000 C 
BRANCH  16  17
ATOM     17  N6  UNL     1      -6.043   1.850  -1.279  0.00  0.00    +0.000 N 
ATOM     18  C27 UNL     1      -5.458   2.994  -1.749  0.00  0.00    +0.000 A 
ATOM     19  C28 UNL     1      -6.110   4.035  -1.133  0.00  0.00    +0.000 A 
ATOM     20  C29 UNL     1      -7.082   3.419  -0.324  0.00  0.00    +0.000 A 
ATOM     21  N7  UNL     1      -7.054   2.088  -0.418  0.00  0.00    +0.000 NA
ENDBRANCH  16  17
ENDBRANCH  15  16
ENDBRANCH   1  10
BRANCH   1  22
ATOM     22  C10 UNL     1       0.546  -0.613   0.009  0.00  0.00    +0.000 C 
BRANCH  22  23
ATOM     23  C11 UNL     1       1.680  -1.587  -0.296  0.00  0.00    +0.000 A 
ATOM     24  C12 UNL     1       1.740  -2.241  -1.535  0.00  0.00    +0.000 A 
ATOM     25  C13 UNL     1       2.791  -3.109  -1.818  0.00  0.00    +0.000 A 
ATOM     26  C14 UNL     1       3.760  -3.302  -0.850  0.00  0.00    +0.000 A 
ATOM     27  N2  UNL     1       3.738  -2.700   0.356  0.00  0.00    +0.000 NA
ATOM     28  C15 UNL     1       2.694  -1.877   0.614  0.00  0.00    +0.000 A 
ENDBRANCH  22  23
BRANCH  22  30
ATOM     29  N1  UNL     1       2.162   1.202   0.524  0.00  0.00    +0.000 N 
ATOM     30  C9  UNL     1       0.927   0.657   0.829  0.00  0.00    +0.000 C 
ATOM     31  O1  UNL     1       0.153   1.207   1.611  0.00  0.00    +0.000 OA
ATOM     32  H10 UNL     1       2.702   0.823  -0.246  0.00  0.00    +0.000 HD
BRANCH  29  33
ATOM     33  C8  UNL     1       2.662   2.421   1.136  0.00  0.00    +0.000 C 
BRANCH  33  34
ATOM     34  C7  UNL     1       4.138   2.304   1.528  0.00  0.00    +0.000 C 
BRANCH  34  40
ATOM     35  C1  UNL     1       5.364   3.061  -0.552  0.00  0.00    +0.000 A 
ATOM     36  C2  UNL     1       6.173   2.802  -1.660  0.00  0.00    +0.000 A 
ATOM     37  C3  UNL     1       6.665   1.517  -1.881  0.00  0.00    +0.000 A 
ATOM     38  C4  UNL     1       6.352   0.490  -0.993  0.00  0.00    +0.000 A 
ATOM     39  C5  UNL     1       5.546   0.748   0.117  0.00  0.00    +0.000 A 
ATOM     40  C6  UNL     1       5.042   2.036   0.347  0.00  0.00    +0.000 A 
ENDBRANCH  34  40
ENDBRANCH  33  34
ENDBRANCH  29  33
ENDBRANCH  22  30
ENDBRANCH   1  22
TORSDOF 10
