REMARK  Name = /home/anacleto/Desktop/manuscript_Mpro/naturecomm/supplementary_file_S2/6-chemical-library/molecular_docking/3D_ligand_structure/483.pdb
REMARK  5 active torsions:
REMARK  status: ('A' for Active; 'I' for Inactive)
REMARK    1  A    between atoms: C5_6  and  C6_7
REMARK    2  A    between atoms: C6_7  and  C7_8
REMARK    3  A    between atoms: N2_10  and  C8_11
REMARK    4  A    between atoms: C8_11  and  C9_12
REMARK    5  A    between atoms: N3_14  and  C10_15
REMARK                            x       y       z     vdW  Elec       q    Type
REMARK                         _______ _______ _______ _____ _____    ______ ____
ROOT
ATOM      1  C7  UNL     1      -1.578   2.093  -0.789  0.00  0.00    +0.000 C 
ATOM      2  O1  UNL     1      -1.294   1.763  -1.937  0.00  0.00    +0.000 OA
ATOM      3  N2  UNL     1      -0.649   2.604   0.094  0.00  0.00    +0.000 N 
ATOM      4  H7  UNL     1      -0.870   2.542   1.082  0.00  0.00    +0.000 HD
ENDROOT
BRANCH   1   5
ATOM      5  C6  UNL     1      -2.982   1.979  -0.221  0.00  0.00    +0.000 C 
BRANCH   5  11
ATOM      6  C1  UNL     1      -2.873  -0.365   0.710  0.00  0.00    +0.000 A 
ATOM      7  N1  UNL     1      -3.272  -1.651   0.832  0.00  0.00    +0.000 NA
ATOM      8  C2  UNL     1      -4.297  -2.047   0.049  0.00  0.00    +0.000 A 
ATOM      9  C3  UNL     1      -4.946  -1.215  -0.847  0.00  0.00    +0.000 A 
ATOM     10  C4  UNL     1      -4.522   0.107  -0.945  0.00  0.00    +0.000 A 
ATOM     11  C5  UNL     1      -3.463   0.556  -0.152  0.00  0.00    +0.000 A 
ENDBRANCH   5  11
ENDBRANCH   1   5
BRANCH   3  12
ATOM     12  C8  UNL     1       0.767   2.493  -0.212  0.00  0.00    +0.000 C 
BRANCH  12  13
ATOM     13  C9  UNL     1       1.312   1.226   0.461  0.00  0.00    +0.000 C 
ATOM     14  O2  UNL     1       0.828   0.835   1.522  0.00  0.00    +0.000 OA
ATOM     15  N3  UNL     1       2.377   0.668  -0.223  0.00  0.00    +0.000 N 
ATOM     16  H10 UNL     1       2.611   1.079  -1.119  0.00  0.00    +0.000 HD
BRANCH  15  17
ATOM     17  C10 UNL     1       3.131  -0.467   0.140  0.00  0.00    +0.000 A 
ATOM     18  C11 UNL     1       2.937  -1.193   1.316  0.00  0.00    +0.000 A 
ATOM     19  C12 UNL     1       3.734  -2.306   1.602  0.00  0.00    +0.000 A 
ATOM     20  C13 UNL     1       4.732  -2.703   0.716  0.00  0.00    +0.000 A 
ATOM     21  C14 UNL     1       4.935  -1.986  -0.459  0.00  0.00    +0.000 A 
ATOM     22  C15 UNL     1       4.139  -0.874  -0.745  0.00  0.00    +0.000 A 
ENDBRANCH  15  17
ENDBRANCH  12  13
ENDBRANCH   3  12
TORSDOF 5
