REMARK  Name = /home/anacleto/Desktop/manuscript_Mpro/naturecomm/supplementary_file_S2/6-chemical-library/molecular_docking/3D_ligand_structure/4838.pdb
REMARK  10 active torsions:
REMARK  status: ('A' for Active; 'I' for Inactive)
REMARK    1  A    between atoms: C6_6  and  C7_7
REMARK    2  A    between atoms: C7_7  and  C8_8
REMARK    3  A    between atoms: C8_8  and  N1_9
REMARK    4  A    between atoms: C9_10  and  C10_12
REMARK    5  A    between atoms: C10_12  and  C11_13
REMARK    6  A    between atoms: C10_12  and  N3_19
REMARK    7  A    between atoms: N3_19  and  C21_27
REMARK    8  A    between atoms: C16_20  and  C17_22
REMARK    9  A    between atoms: C21_27  and  C22_28
REMARK   10  A    between atoms: C23_29  and  C24_30
REMARK                            x       y       z     vdW  Elec       q    Type
REMARK                         _______ _______ _______ _____ _____    ______ ____
ROOT
ATOM      1  C10 UNL     1      -0.102   1.195   0.097  0.00  0.00    +0.000 C 
ENDROOT
BRANCH   1   2
ATOM      2  C11 UNL     1      -0.509   1.204  -1.365  0.00  0.00    +0.000 A 
ATOM      3  C12 UNL     1      -1.158   2.323  -1.904  0.00  0.00    +0.000 A 
ATOM      4  C13 UNL     1      -1.542   2.329  -3.242  0.00  0.00    +0.000 A 
ATOM      5  C14 UNL     1      -1.254   1.215  -4.010  0.00  0.00    +0.000 A 
ATOM      6  N2  UNL     1      -0.621   0.122  -3.535  0.00  0.00    +0.000 NA
ATOM      7  C15 UNL     1      -0.279   0.134  -2.227  0.00  0.00    +0.000 A 
ENDBRANCH   1   2
BRANCH   1   9
ATOM      8  N1  UNL     1       2.264   0.516  -0.167  0.00  0.00    +0.000 N 
ATOM      9  C9  UNL     1       1.051   0.198   0.424  0.00  0.00    +0.000 C 
ATOM     10  O1  UNL     1       0.913  -0.794   1.136  0.00  0.00    +0.000 OA
ATOM     11  H10 UNL     1       2.332   1.322  -0.777  0.00  0.00    +0.000 HD
BRANCH   8  12
ATOM     12  C8  UNL     1       3.438  -0.321   0.003  0.00  0.00    +0.000 C 
BRANCH  12  13
ATOM     13  C7  UNL     1       4.120  -0.097   1.354  0.00  0.00    +0.000 C 
BRANCH  13  19
ATOM     14  C1  UNL     1       6.621  -0.434   1.192  0.00  0.00    +0.000 A 
ATOM     15  C2  UNL     1       7.757  -1.235   1.309  0.00  0.00    +0.000 A 
ATOM     16  C3  UNL     1       7.639  -2.558   1.731  0.00  0.00    +0.000 A 
ATOM     17  C4  UNL     1       6.383  -3.082   2.035  0.00  0.00    +0.000 A 
ATOM     18  C5  UNL     1       5.246  -2.282   1.920  0.00  0.00    +0.000 A 
ATOM     19  C6  UNL     1       5.355  -0.949   1.500  0.00  0.00    +0.000 A 
ENDBRANCH  13  19
ENDBRANCH  12  13
ENDBRANCH   8  12
ENDBRANCH   1   9
BRANCH   1  20
ATOM     20  N3  UNL     1      -1.246   1.015   1.022  0.00  0.00    +0.000 N 
ATOM     21  C16 UNL     1      -1.314   1.658   2.270  0.00  0.00    +0.000 C 
ATOM     22  O2  UNL     1      -1.978   1.185   3.193  0.00  0.00    +0.000 OA
BRANCH  21  23
ATOM     23  C17 UNL     1      -0.621   2.923   2.459  0.00  0.00    +0.000 A 
ATOM     24  C18 UNL     1      -0.100   3.489   3.610  0.00  0.00    +0.000 A 
ATOM     25  C19 UNL     1       0.392   4.768   3.256  0.00  0.00    +0.000 A 
ATOM     26  C20 UNL     1       0.117   4.923   1.919  0.00  0.00    +0.000 A 
ATOM     27  O3  UNL     1      -0.506   3.821   1.429  0.00  0.00    +0.000 OA
ENDBRANCH  21  23
BRANCH  20  28
ATOM     28  C21 UNL     1      -2.092  -0.175   0.840  0.00  0.00    +0.000 C 
BRANCH  28  29
ATOM     29  C22 UNL     1      -3.357   0.072   0.023  0.00  0.00    +0.000 A 
ATOM     30  C23 UNL     1      -3.962  -1.007  -0.688  0.00  0.00    +0.000 A 
ATOM     31  C28 UNL     1      -5.128  -0.696  -1.424  0.00  0.00    +0.000 A 
ATOM     32  C29 UNL     1      -5.696   0.579  -1.440  0.00  0.00    +0.000 A 
ATOM     33  C30 UNL     1      -5.119   1.599  -0.703  0.00  0.00    +0.000 A 
ATOM     34  C31 UNL     1      -3.965   1.345   0.030  0.00  0.00    +0.000 A 
BRANCH  30  35
ATOM     35  C24 UNL     1      -3.376  -2.497  -0.643  0.00  0.00    +0.000 C 
ATOM     36  C25 UNL     1      -2.276  -2.889  -1.672  0.00  0.00    +0.000 C 
ATOM     37  C26 UNL     1      -2.830  -4.326  -1.611  0.00  0.00    +0.000 C 
ATOM     38  C27 UNL     1      -4.183  -3.703  -1.215  0.00  0.00    +0.000 C 
ENDBRANCH  30  35
ENDBRANCH  28  29
ENDBRANCH  20  28
ENDBRANCH   1  20
TORSDOF 10
