REMARK  Name = /home/anacleto/Desktop/manuscript_Mpro/naturecomm/supplementary_file_S2/6-chemical-library/molecular_docking/3D_ligand_structure/4839.pdb
REMARK  8 active torsions:
REMARK  status: ('A' for Active; 'I' for Inactive)
REMARK    1  A    between atoms: C6_6  and  C7_7
REMARK    2  A    between atoms: C7_7  and  C8_8
REMARK    3  A    between atoms: C8_8  and  N1_9
REMARK    4  A    between atoms: C9_10  and  C10_12
REMARK    5  A    between atoms: C10_12  and  C11_13
REMARK    6  A    between atoms: C10_12  and  N3_19
REMARK    7  A    between atoms: N3_19  and  C16_20
REMARK    8  A    between atoms: C22_26  and  C23_28
REMARK                            x       y       z     vdW  Elec       q    Type
REMARK                         _______ _______ _______ _____ _____    ______ ____
ROOT
ATOM      1  N3  UNL     1       1.384  -0.404   0.595  0.00  0.00    +0.000 N 
ATOM      2  C22 UNL     1       2.007   0.862   0.653  0.00  0.00    +0.000 C 
ATOM      3  O2  UNL     1       1.544   1.761   1.361  0.00  0.00    +0.000 OA
ENDROOT
BRANCH   2   4
ATOM      4  C23 UNL     1       3.185   1.111  -0.215  0.00  0.00    +0.000 A 
ATOM      5  N4  UNL     1       3.307   0.624  -1.505  0.00  0.00    +0.000 NA
ATOM      6  C24 UNL     1       4.457   1.110  -1.906  0.00  0.00    +0.000 A 
ATOM      7  N5  UNL     1       5.024   1.862  -0.916  0.00  0.00    +0.000 N 
ATOM      8  N6  UNL     1       4.225   1.875   0.169  0.00  0.00    +0.000 NA
ATOM      9  C25 UNL     1       6.229   2.546  -0.903  0.00  0.00    +0.000 A 
ATOM     10  N7  UNL     1       6.723   3.226   0.108  0.00  0.00    +0.000 NA
ATOM     11  N8  UNL     1       7.936   3.745  -0.289  0.00  0.00    +0.000 NA
ATOM     12  C26 UNL     1       8.146   3.369  -1.527  0.00  0.00    +0.000 A 
ATOM     13  N9  UNL     1       7.099   2.610  -1.956  0.00  0.00    +0.000 N 
ATOM     14  H23 UNL     1       7.000   2.196  -2.871  0.00  0.00    +0.000 HD
ENDBRANCH   2   4
BRANCH   1  15
ATOM     15  C16 UNL     1       2.037  -1.577   0.110  0.00  0.00    +0.000 A 
ATOM     16  C17 UNL     1       3.349  -1.868   0.518  0.00  0.00    +0.000 A 
ATOM     17  C18 UNL     1       3.992  -3.031   0.084  0.00  0.00    +0.000 A 
ATOM     18  C19 UNL     1       3.332  -3.918  -0.762  0.00  0.00    +0.000 A 
ATOM     19  C20 UNL     1       2.030  -3.643  -1.172  0.00  0.00    +0.000 A 
ATOM     20  C21 UNL     1       1.385  -2.482  -0.735  0.00  0.00    +0.000 A 
ENDBRANCH   1  15
BRANCH   1  21
ATOM     21  C10 UNL     1       0.015  -0.474   1.144  0.00  0.00    +0.000 C 
BRANCH  21  22
ATOM     22  C11 UNL     1      -0.338  -1.761   1.877  0.00  0.00    +0.000 A 
ATOM     23  C12 UNL     1      -1.242  -2.716   1.396  0.00  0.00    +0.000 A 
ATOM     24  C13 UNL     1      -1.508  -3.860   2.144  0.00  0.00    +0.000 A 
ATOM     25  C14 UNL     1      -0.865  -4.016   3.359  0.00  0.00    +0.000 A 
ATOM     26  N2  UNL     1       0.010  -3.121   3.862  0.00  0.00    +0.000 NA
ATOM     27  C15 UNL     1       0.260  -2.025   3.110  0.00  0.00    +0.000 A 
ENDBRANCH  21  22
BRANCH  21  29
ATOM     28  N1  UNL     1      -2.229   0.436   0.640  0.00  0.00    +0.000 N 
ATOM     29  C9  UNL     1      -1.036  -0.022   0.093  0.00  0.00    +0.000 C 
ATOM     30  O1  UNL     1      -0.862  -0.098  -1.122  0.00  0.00    +0.000 OA
ATOM     31  H10 UNL     1      -2.215   0.714   1.614  0.00  0.00    +0.000 HD
BRANCH  28  32
ATOM     32  C8  UNL     1      -3.257   1.023  -0.204  0.00  0.00    +0.000 C 
BRANCH  32  33
ATOM     33  C7  UNL     1      -4.632   0.950   0.457  0.00  0.00    +0.000 C 
BRANCH  33  39
ATOM     34  C1  UNL     1      -6.298   0.909  -1.440  0.00  0.00    +0.000 A 
ATOM     35  C2  UNL     1      -7.273   1.522  -2.230  0.00  0.00    +0.000 A 
ATOM     36  C3  UNL     1      -7.655   2.836  -1.972  0.00  0.00    +0.000 A 
ATOM     37  C4  UNL     1      -7.062   3.540  -0.925  0.00  0.00    +0.000 A 
ATOM     38  C5  UNL     1      -6.086   2.930  -0.135  0.00  0.00    +0.000 A 
ATOM     39  C6  UNL     1      -5.699   1.606  -0.383  0.00  0.00    +0.000 A 
ENDBRANCH  33  39
ENDBRANCH  32  33
ENDBRANCH  28  32
ENDBRANCH  21  29
ENDBRANCH   1  21
TORSDOF 8
