REMARK  Name = /home/anacleto/Desktop/manuscript_Mpro/naturecomm/supplementary_file_S2/6-chemical-library/molecular_docking/3D_ligand_structure/4840.pdb
REMARK  9 active torsions:
REMARK  status: ('A' for Active; 'I' for Inactive)
REMARK    1  A    between atoms: C6_6  and  C7_7
REMARK    2  A    between atoms: C7_7  and  C8_8
REMARK    3  A    between atoms: C8_8  and  N1_9
REMARK    4  A    between atoms: C9_10  and  C10_12
REMARK    5  A    between atoms: C10_12  and  C11_13
REMARK    6  A    between atoms: C10_12  and  N3_19
REMARK    7  A    between atoms: N3_19  and  C20_27
REMARK    8  A    between atoms: C16_20  and  C17_22
REMARK    9  A    between atoms: C23_30  and  N5_33
REMARK                            x       y       z     vdW  Elec       q    Type
REMARK                         _______ _______ _______ _____ _____    ______ ____
ROOT
ATOM      1  C10 UNL     1      -0.079  -2.018   0.260  0.00  0.00    +0.000 C 
ENDROOT
BRANCH   1   2
ATOM      2  C11 UNL     1       0.070  -2.260  -1.233  0.00  0.00    +0.000 A 
ATOM      3  C12 UNL     1       0.431  -1.258  -2.143  0.00  0.00    +0.000 A 
ATOM      4  C13 UNL     1       0.536  -1.557  -3.498  0.00  0.00    +0.000 A 
ATOM      5  C14 UNL     1       0.274  -2.853  -3.906  0.00  0.00    +0.000 A 
ATOM      6  N2  UNL     1      -0.080  -3.845  -3.063  0.00  0.00    +0.000 NA
ATOM      7  C15 UNL     1      -0.178  -3.529  -1.753  0.00  0.00    +0.000 A 
ENDBRANCH   1   2
BRANCH   1   9
ATOM      8  N1  UNL     1       2.262  -1.415   0.801  0.00  0.00    +0.000 N 
ATOM      9  C9  UNL     1       0.948  -0.970   0.790  0.00  0.00    +0.000 C 
ATOM     10  O1  UNL     1       0.650   0.174   1.128  0.00  0.00    +0.000 OA
ATOM     11  H10 UNL     1       2.482  -2.346   0.469  0.00  0.00    +0.000 HD
BRANCH   8  12
ATOM     12  C8  UNL     1       3.354  -0.557   1.220  0.00  0.00    +0.000 C 
BRANCH  12  13
ATOM     13  C7  UNL     1       3.777   0.414   0.114  0.00  0.00    +0.000 C 
BRANCH  13  19
ATOM     14  C1  UNL     1       6.251   0.920   0.212  0.00  0.00    +0.000 A 
ATOM     15  C2  UNL     1       7.322   1.714   0.625  0.00  0.00    +0.000 A 
ATOM     16  C3  UNL     1       7.089   2.868   1.373  0.00  0.00    +0.000 A 
ATOM     17  C4  UNL     1       5.786   3.228   1.708  0.00  0.00    +0.000 A 
ATOM     18  C5  UNL     1       4.714   2.436   1.296  0.00  0.00    +0.000 A 
ATOM     19  C6  UNL     1       4.937   1.277   0.540  0.00  0.00    +0.000 A 
ENDBRANCH  13  19
ENDBRANCH  12  13
ENDBRANCH   8  12
ENDBRANCH   1   9
BRANCH   1  20
ATOM     20  N3  UNL     1      -1.466  -1.753   0.722  0.00  0.00    +0.000 N 
ATOM     21  C16 UNL     1      -1.700  -2.115   2.071  0.00  0.00    +0.000 C 
ATOM     22  O2  UNL     1      -0.802  -2.593   2.767  0.00  0.00    +0.000 OA
BRANCH  20  23
ATOM     23  C20 UNL     1      -2.178  -0.668   0.119  0.00  0.00    +0.000 A 
ATOM     24  C21 UNL     1      -2.715  -0.811  -1.163  0.00  0.00    +0.000 A 
ATOM     25  C22 UNL     1      -3.432   0.235  -1.755  0.00  0.00    +0.000 A 
ATOM     26  C23 UNL     1      -3.626   1.440  -1.065  0.00  0.00    +0.000 A 
ATOM     27  C24 UNL     1      -3.102   1.583   0.225  0.00  0.00    +0.000 A 
ATOM     28  C25 UNL     1      -2.389   0.531   0.812  0.00  0.00    +0.000 A 
BRANCH  26  29
ATOM     29  N5  UNL     1      -4.348   2.493  -1.683  0.00  0.00    +0.000 N 
ATOM     30  C26 UNL     1      -4.648   3.744  -1.192  0.00  0.00    +0.000 A 
ATOM     31  C27 UNL     1      -5.357   4.354  -2.198  0.00  0.00    +0.000 A 
ATOM     32  N6  UNL     1      -5.479   3.501  -3.250  0.00  0.00    +0.000 NA
ATOM     33  N7  UNL     1      -4.863   2.370  -2.932  0.00  0.00    +0.000 NA
ENDBRANCH  26  29
ENDBRANCH  20  23
BRANCH  21  34
ATOM     34  C17 UNL     1      -3.065  -1.999   2.601  0.00  0.00    +0.000 A 
ATOM     35  C18 UNL     1      -4.259  -2.117   1.921  0.00  0.00    +0.000 A 
ATOM     36  O3  UNL     1      -5.282  -1.982   2.811  0.00  0.00    +0.000 OA
ATOM     37  C19 UNL     1      -4.654  -1.805   4.004  0.00  0.00    +0.000 A 
ATOM     38  N4  UNL     1      -3.343  -1.811   3.948  0.00  0.00    +0.000 NA
ENDBRANCH  21  34
ENDBRANCH   1  20
TORSDOF 9
