REMARK  Name = /home/anacleto/Desktop/manuscript_Mpro/naturecomm/supplementary_file_S2/6-chemical-library/molecular_docking/3D_ligand_structure/4847.pdb
REMARK  8 active torsions:
REMARK  status: ('A' for Active; 'I' for Inactive)
REMARK    1  A    between atoms: C6_6  and  C7_7
REMARK    2  A    between atoms: C7_7  and  N1_8
REMARK    3  A    between atoms: C8_9  and  C9_11
REMARK    4  A    between atoms: C9_11  and  C10_12
REMARK    5  A    between atoms: C9_11  and  N3_18
REMARK    6  A    between atoms: N3_18  and  C19_26
REMARK    7  A    between atoms: C15_19  and  C16_21
REMARK    8  A    between atoms: C24_31  and  C25_32
REMARK                            x       y       z     vdW  Elec       q    Type
REMARK                         _______ _______ _______ _____ _____    ______ ____
ROOT
ATOM      1  N3  UNL     1       0.577  -0.977   0.006  0.00  0.00    +0.000 N 
ATOM      2  C15 UNL     1       0.412  -2.342   0.356  0.00  0.00    +0.000 C 
ATOM      3  O2  UNL     1       1.335  -3.026   0.803  0.00  0.00    +0.000 OA
ENDROOT
BRANCH   1   4
ATOM      4  C19 UNL     1       1.897  -0.391   0.065  0.00  0.00    +0.000 A 
ATOM      5  C20 UNL     1       3.019  -1.114  -0.360  0.00  0.00    +0.000 A 
ATOM      6  C21 UNL     1       4.301  -0.546  -0.342  0.00  0.00    +0.000 A 
ATOM      7  C22 UNL     1       2.103   0.920   0.515  0.00  0.00    +0.000 A 
ATOM      8  C23 UNL     1       3.385   1.486   0.537  0.00  0.00    +0.000 A 
ATOM      9  C24 UNL     1       4.506   0.765   0.107  0.00  0.00    +0.000 A 
BRANCH   9  10
ATOM     10  C25 UNL     1       5.851   1.359   0.132  0.00  0.00    +0.000 A 
ATOM     11  C26 UNL     1       6.648   1.396  -1.025  0.00  0.00    +0.000 A 
ATOM     12  C27 UNL     1       7.926   1.963  -1.002  0.00  0.00    +0.000 A 
ATOM     13  C28 UNL     1       8.429   2.500   0.180  0.00  0.00    +0.000 A 
ATOM     14  C29 UNL     1       7.657   2.471   1.339  0.00  0.00    +0.000 A 
ATOM     15  C30 UNL     1       6.379   1.907   1.314  0.00  0.00    +0.000 A 
ENDBRANCH   9  10
ENDBRANCH   1   4
BRANCH   2  16
ATOM     16  C16 UNL     1      -0.886  -2.947   0.204  0.00  0.00    +0.000 A 
ATOM     17  C17 UNL     1      -1.916  -3.185   1.086  0.00  0.00    +0.000 A 
ATOM     18  C18 UNL     1      -2.855  -3.907   0.331  0.00  0.00    +0.000 A 
ATOM     19  N4  UNL     1      -2.432  -4.130  -0.915  0.00  0.00    +0.000 NA
ATOM     20  O3  UNL     1      -1.180  -3.538  -0.989  0.00  0.00    +0.000 OA
ENDBRANCH   2  16
BRANCH   1  21
ATOM     21  C9  UNL     1      -0.560  -0.060  -0.289  0.00  0.00    +0.000 C 
BRANCH  21  22
ATOM     22  C10 UNL     1      -1.393  -0.447  -1.502  0.00  0.00    +0.000 A 
ATOM     23  C11 UNL     1      -0.766  -0.615  -2.748  0.00  0.00    +0.000 A 
ATOM     24  C12 UNL     1      -1.520  -0.927  -3.875  0.00  0.00    +0.000 A 
ATOM     25  C13 UNL     1      -2.890  -1.042  -3.733  0.00  0.00    +0.000 A 
ATOM     26  N2  UNL     1      -3.536  -0.870  -2.562  0.00  0.00    +0.000 NA
ATOM     27  C14 UNL     1      -2.777  -0.603  -1.474  0.00  0.00    +0.000 A 
ENDBRANCH  21  22
BRANCH  21  29
ATOM     28  N1  UNL     1      -2.108   1.466   0.886  0.00  0.00    +0.000 N 
ATOM     29  C8  UNL     1      -1.335   0.321   0.997  0.00  0.00    +0.000 C 
ATOM     30  O1  UNL     1      -1.260  -0.318   2.044  0.00  0.00    +0.000 OA
ATOM     31  H8  UNL     1      -2.293   1.847  -0.033  0.00  0.00    +0.000 HD
BRANCH  28  32
ATOM     32  C7  UNL     1      -3.009   1.865   1.947  0.00  0.00    +0.000 C 
BRANCH  32  38
ATOM     33  C1  UNL     1      -5.317   1.701   0.929  0.00  0.00    +0.000 A 
ATOM     34  C2  UNL     1      -6.531   1.035   0.752  0.00  0.00    +0.000 A 
ATOM     35  C3  UNL     1      -6.782  -0.155   1.432  0.00  0.00    +0.000 A 
ATOM     36  C4  UNL     1      -5.819  -0.683   2.289  0.00  0.00    +0.000 A 
ATOM     37  C5  UNL     1      -4.604  -0.021   2.467  0.00  0.00    +0.000 A 
ATOM     38  C6  UNL     1      -4.343   1.182   1.793  0.00  0.00    +0.000 A 
ENDBRANCH  32  38
ENDBRANCH  28  32
ENDBRANCH  21  29
ENDBRANCH   1  21
TORSDOF 8
