REMARK  Name = /home/anacleto/Desktop/manuscript_Mpro/naturecomm/supplementary_file_S2/6-chemical-library/molecular_docking/3D_ligand_structure/4856.pdb
REMARK  9 active torsions:
REMARK  status: ('A' for Active; 'I' for Inactive)
REMARK    1  A    between atoms: C6_6  and  C7_7
REMARK    2  A    between atoms: C7_7  and  C8_8
REMARK    3  A    between atoms: C8_8  and  N1_9
REMARK    4  A    between atoms: C9_10  and  C10_12
REMARK    5  A    between atoms: C10_12  and  C11_13
REMARK    6  A    between atoms: C10_12  and  N3_19
REMARK    7  A    between atoms: N3_19  and  C20_27
REMARK    8  A    between atoms: C16_20  and  C17_22
REMARK    9  A    between atoms: C23_32  and  C24_33
REMARK                            x       y       z     vdW  Elec       q    Type
REMARK                         _______ _______ _______ _____ _____    ______ ____
ROOT
ATOM      1  C10 UNL     1      -0.148  -2.321   0.211  0.00  0.00    +0.000 C 
ENDROOT
BRANCH   1   2
ATOM      2  C11 UNL     1       0.098  -2.739   1.647  0.00  0.00    +0.000 A 
ATOM      3  C12 UNL     1      -0.562  -2.184   2.755  0.00  0.00    +0.000 A 
ATOM      4  C13 UNL     1      -0.269  -2.635   4.041  0.00  0.00    +0.000 A 
ATOM      5  C14 UNL     1       0.675  -3.634   4.189  0.00  0.00    +0.000 A 
ATOM      6  N2  UNL     1       1.330  -4.198   3.154  0.00  0.00    +0.000 NA
ATOM      7  C15 UNL     1       1.020  -3.752   1.917  0.00  0.00    +0.000 A 
ENDBRANCH   1   2
BRANCH   1   9
ATOM      8  N1  UNL     1      -1.517  -0.213   0.308  0.00  0.00    +0.000 N 
ATOM      9  C9  UNL     1      -1.485  -1.552  -0.027  0.00  0.00    +0.000 C 
ATOM     10  O1  UNL     1      -2.476  -2.129  -0.480  0.00  0.00    +0.000 OA
ATOM     11  H10 UNL     1      -0.693   0.250   0.671  0.00  0.00    +0.000 HD
BRANCH   8  12
ATOM     12  C8  UNL     1      -2.670   0.621   0.015  0.00  0.00    +0.000 C 
BRANCH  12  13
ATOM     13  C7  UNL     1      -2.667   1.097  -1.440  0.00  0.00    +0.000 C 
BRANCH  13  19
ATOM     14  C1  UNL     1      -5.074   1.459  -2.110  0.00  0.00    +0.000 A 
ATOM     15  C2  UNL     1      -6.161   2.294  -2.368  0.00  0.00    +0.000 A 
ATOM     16  C3  UNL     1      -6.025   3.677  -2.247  0.00  0.00    +0.000 A 
ATOM     17  C4  UNL     1      -4.800   4.226  -1.870  0.00  0.00    +0.000 A 
ATOM     18  C5  UNL     1      -3.711   3.392  -1.611  0.00  0.00    +0.000 A 
ATOM     19  C6  UNL     1      -3.837   2.001  -1.735  0.00  0.00    +0.000 A 
ENDBRANCH  13  19
ENDBRANCH  12  13
ENDBRANCH   8  12
ENDBRANCH   1   9
BRANCH   1  20
ATOM     20  N3  UNL     1       0.970  -1.651  -0.539  0.00  0.00    +0.000 N 
ATOM     21  C16 UNL     1       0.853  -1.804  -1.942  0.00  0.00    +0.000 C 
ATOM     22  O2  UNL     1       0.701  -0.870  -2.724  0.00  0.00    +0.000 OA
BRANCH  21  23
ATOM     23  C17 UNL     1       0.915  -3.153  -2.452  0.00  0.00    +0.000 A 
ATOM     24  C18 UNL     1       1.533  -4.298  -1.997  0.00  0.00    +0.000 A 
ATOM     25  N4  UNL     1       1.302  -5.356  -2.836  0.00  0.00    +0.000 NA
ATOM     26  C19 UNL     1       0.598  -4.863  -3.829  0.00  0.00    +0.000 A 
ATOM     27  N5  UNL     1       0.361  -3.532  -3.656  0.00  0.00    +0.000 N 
ATOM     28  H18 UNL     1      -0.137  -2.920  -4.290  0.00  0.00    +0.000 HD
ENDBRANCH  21  23
BRANCH  20  29
ATOM     29  C20 UNL     1       1.576  -0.454   0.011  0.00  0.00    +0.000 A 
ATOM     30  C21 UNL     1       2.050  -0.380   1.313  0.00  0.00    +0.000 A 
ATOM     31  N6  UNL     1       2.589   0.721   1.890  0.00  0.00    +0.000 NA
ATOM     32  C22 UNL     1       1.800   0.723  -0.692  0.00  0.00    +0.000 A 
ATOM     33  N7  UNL     1       2.330   1.856  -0.169  0.00  0.00    +0.000 NA
ATOM     34  C23 UNL     1       2.715   1.807   1.114  0.00  0.00    +0.000 A 
BRANCH  34  35
ATOM     35  C24 UNL     1       3.330   3.100   1.735  0.00  0.00    +0.000 C 
ATOM     36  C25 UNL     1       4.360   2.969   2.899  0.00  0.00    +0.000 C 
ATOM     37  C26 UNL     1       5.475   3.053   1.841  0.00  0.00    +0.000 C 
ATOM     38  C27 UNL     1       4.474   3.814   0.952  0.00  0.00    +0.000 C 
ENDBRANCH  34  35
ENDBRANCH  20  29
ENDBRANCH   1  20
TORSDOF 9
