REMARK  Name = /home/anacleto/Desktop/manuscript_Mpro/naturecomm/supplementary_file_S2/6-chemical-library/molecular_docking/3D_ligand_structure/4860.pdb
REMARK  9 active torsions:
REMARK  status: ('A' for Active; 'I' for Inactive)
REMARK    1  A    between atoms: C6_6  and  C7_7
REMARK    2  A    between atoms: C7_7  and  C8_8
REMARK    3  A    between atoms: C8_8  and  N1_9
REMARK    4  A    between atoms: C9_10  and  C10_12
REMARK    5  A    between atoms: C10_12  and  C11_13
REMARK    6  A    between atoms: C10_12  and  N3_19
REMARK    7  A    between atoms: N3_19  and  C21_27
REMARK    8  A    between atoms: C16_20  and  C17_22
REMARK    9  A    between atoms: C24_30  and  C25_31
REMARK                            x       y       z     vdW  Elec       q    Type
REMARK                         _______ _______ _______ _____ _____    ______ ____
ROOT
ATOM      1  C10 UNL     1       0.057   1.546  -1.314  0.00  0.00    +0.000 C 
ENDROOT
BRANCH   1   2
ATOM      2  C11 UNL     1      -0.230   2.135  -2.693  0.00  0.00    +0.000 A 
ATOM      3  C12 UNL     1       0.749   2.723  -3.502  0.00  0.00    +0.000 A 
ATOM      4  C13 UNL     1       0.410   3.292  -4.729  0.00  0.00    +0.000 A 
ATOM      5  C14 UNL     1      -0.915   3.283  -5.114  0.00  0.00    +0.000 A 
ATOM      6  N2  UNL     1      -1.902   2.768  -4.359  0.00  0.00    +0.000 NA
ATOM      7  C15 UNL     1      -1.539   2.219  -3.174  0.00  0.00    +0.000 A 
ENDBRANCH   1   2
BRANCH   1   9
ATOM      8  N1  UNL     1       1.536   0.095   0.045  0.00  0.00    +0.000 N 
ATOM      9  C9  UNL     1       1.496   1.042  -0.968  0.00  0.00    +0.000 C 
ATOM     10  O1  UNL     1       2.532   1.514  -1.432  0.00  0.00    +0.000 OA
ATOM     11  H10 UNL     1       0.664  -0.338   0.323  0.00  0.00    +0.000 HD
BRANCH   8  12
ATOM     12  C8  UNL     1       2.772  -0.537   0.468  0.00  0.00    +0.000 C 
BRANCH  12  13
ATOM     13  C7  UNL     1       3.587   0.348   1.411  0.00  0.00    +0.000 C 
BRANCH  13  19
ATOM     14  C1  UNL     1       4.759  -1.029   3.178  0.00  0.00    +0.000 A 
ATOM     15  C2  UNL     1       5.879  -1.716   3.650  0.00  0.00    +0.000 A 
ATOM     16  C3  UNL     1       7.043  -1.765   2.887  0.00  0.00    +0.000 A 
ATOM     17  C4  UNL     1       7.092  -1.122   1.651  0.00  0.00    +0.000 A 
ATOM     18  C5  UNL     1       5.976  -0.431   1.179  0.00  0.00    +0.000 A 
ATOM     19  C6  UNL     1       4.801  -0.375   1.939  0.00  0.00    +0.000 A 
ENDBRANCH  13  19
ENDBRANCH  12  13
ENDBRANCH   8  12
ENDBRANCH   1   9
BRANCH   1  20
ATOM     20  N3  UNL     1      -0.980   0.576  -0.822  0.00  0.00    +0.000 N 
ATOM     21  C16 UNL     1      -1.290  -0.652  -1.460  0.00  0.00    +0.000 C 
ATOM     22  O2  UNL     1      -2.215  -1.343  -1.027  0.00  0.00    +0.000 OA
BRANCH  21  23
ATOM     23  C17 UNL     1      -0.544  -1.130  -2.616  0.00  0.00    +0.000 A 
ATOM     24  C18 UNL     1      -0.847  -2.173  -3.477  0.00  0.00    +0.000 A 
ATOM     25  C19 UNL     1       0.192  -2.241  -4.434  0.00  0.00    +0.000 A 
ATOM     26  C20 UNL     1       1.079  -1.249  -4.097  0.00  0.00    +0.000 A 
ATOM     27  O3  UNL     1       0.651  -0.590  -2.992  0.00  0.00    +0.000 OA
ENDBRANCH  21  23
BRANCH  20  28
ATOM     28  C21 UNL     1      -1.726   1.031   0.411  0.00  0.00    +0.000 C 
ATOM     29  C22 UNL     1      -3.269   1.046   0.365  0.00  0.00    +0.000 C 
ATOM     30  C23 UNL     1      -1.828   0.039   1.589  0.00  0.00    +0.000 C 
ATOM     31  C24 UNL     1      -3.245   0.628   1.867  0.00  0.00    +0.000 C 
BRANCH  31  32
ATOM     32  C25 UNL     1      -4.336  -0.346   2.479  0.00  0.00    +0.000 A 
ATOM     33  C26 UNL     1      -4.295  -0.691   3.846  0.00  0.00    +0.000 A 
ATOM     34  C27 UNL     1      -5.236  -1.544   4.432  0.00  0.00    +0.000 A 
ATOM     35  C28 UNL     1      -6.256  -2.083   3.660  0.00  0.00    +0.000 A 
ATOM     36  C29 UNL     1      -6.330  -1.769   2.308  0.00  0.00    +0.000 A 
ATOM     37  C30 UNL     1      -5.384  -0.915   1.731  0.00  0.00    +0.000 A 
ENDBRANCH  31  32
ENDBRANCH  20  28
ENDBRANCH   1  20
TORSDOF 9
