REMARK  Name = /home/anacleto/Desktop/manuscript_Mpro/naturecomm/supplementary_file_S2/6-chemical-library/molecular_docking/3D_ligand_structure/4882.pdb
REMARK  5 active torsions:
REMARK  status: ('A' for Active; 'I' for Inactive)
REMARK    1  A    between atoms: C3_3  and  S1_4
REMARK    2  A    between atoms: S1_4  and  N1_7
REMARK    3  A    between atoms: C4_8  and  C5_10
REMARK    4  A    between atoms: C19_28  and  O6_30
REMARK    5  A    between atoms: O6_30  and  C21_31
REMARK                            x       y       z     vdW  Elec       q    Type
REMARK                         _______ _______ _______ _____ _____    ______ ____
ROOT
ATOM      1  C5  UNL     1       2.894  -0.536   1.052  0.00  0.00    +0.000 C 
ATOM      2  C6  UNL     1       3.076  -1.763   1.981  0.00  0.00    +0.000 C 
ATOM      3  C7  UNL     1       3.734  -1.745   0.637  0.00  0.00    +0.000 C 
ATOM      4  C8  UNL     1       1.894  -2.588   2.278  0.00  0.00    +0.000 C 
ATOM      5  C9  UNL     1       1.627  -3.873   1.993  0.00  0.00    +0.000 C 
ATOM      6  C10 UNL     1       2.492  -4.865   1.277  0.00  0.00    +0.000 C 
ATOM      7  C11 UNL     1       1.802  -5.573   0.099  0.00  0.00    +0.000 C 
ATOM      8  C12 UNL     1       1.457  -4.669  -1.092  0.00  0.00    +0.000 C 
ATOM      9  C13 UNL     1       0.071  -4.028  -1.011  0.00  0.00    +0.000 C 
ATOM     10  N2  UNL     1       0.110  -2.591  -1.229  0.00  0.00    +0.000 N 
ATOM     11  C14 UNL     1      -1.066  -1.860  -1.160  0.00  0.00    +0.000 C 
ATOM     12  O4  UNL     1      -2.153  -2.344  -0.868  0.00  0.00    +0.000 OA
ATOM     13  C15 UNL     1      -0.842  -0.364  -1.302  0.00  0.00    +0.000 C 
ATOM     14  C16 UNL     1      -0.732   0.212   0.129  0.00  0.00    +0.000 C 
ATOM     15  C17 UNL     1       0.692   0.593   0.500  0.00  0.00    +0.000 C 
ATOM     16  O5  UNL     1       1.010   1.702   0.912  0.00  0.00    +0.000 OA
ATOM     17  N3  UNL     1       1.595  -0.437   0.354  0.00  0.00    +0.000 N 
ATOM     18  C18 UNL     1      -1.697   1.394   0.154  0.00  0.00    +0.000 C 
ATOM     19  C19 UNL     1      -2.810   0.984  -0.809  0.00  0.00    +0.000 C 
ATOM     20  C20 UNL     1      -2.027   0.350  -1.955  0.00  0.00    +0.000 C 
ATOM     21  H20 UNL     1       0.822  -2.250  -1.862  0.00  0.00    +0.000 HD
ATOM     22  H23 UNL     1       1.168  -1.349   0.204  0.00  0.00    +0.000 HD
ENDROOT
BRANCH   1  24
ATOM     23  N1  UNL     1       3.586   1.800   0.494  0.00  0.00    +0.000 N 
ATOM     24  C4  UNL     1       3.740   0.714   1.368  0.00  0.00    +0.000 C 
ATOM     25  O3  UNL     1       4.583   0.681   2.253  0.00  0.00    +0.000 OA
ATOM     26  H6  UNL     1       2.624   1.934   0.173  0.00  0.00    +0.000 HD
BRANCH  23  27
ATOM     27  S1  UNL     1       4.250   3.300   0.791  0.00  0.00    +0.000 S 
ATOM     28  O1  UNL     1       4.000   3.650   2.169  0.00  0.00    +0.000 OA
ATOM     29  O2  UNL     1       3.754   4.154  -0.273  0.00  0.00    +0.000 OA
BRANCH  27  32
ATOM     30  C1  UNL     1       6.700   1.974   0.127  0.00  0.00    +0.000 C 
ATOM     31  C2  UNL     1       6.462   3.074  -0.867  0.00  0.00    +0.000 C 
ATOM     32  C3  UNL     1       6.052   3.260   0.579  0.00  0.00    +0.000 C 
ENDBRANCH  27  32
ENDBRANCH  23  27
ENDBRANCH   1  24
BRANCH  19  33
ATOM     33  O6  UNL     1      -3.488   2.161  -1.252  0.00  0.00    +0.000 OA
BRANCH  33  34
ATOM     34  C21 UNL     1      -4.849   1.996  -1.314  0.00  0.00    +0.000 A 
ATOM     35  C22 UNL     1      -5.402   1.246  -2.345  0.00  0.00    +0.000 A 
ATOM     36  C23 UNL     1      -6.779   1.184  -2.419  0.00  0.00    +0.000 A 
ATOM     37  N4  UNL     1      -7.611   1.809  -1.558  0.00  0.00    +0.000 NA
ATOM     38  C24 UNL     1      -7.069   2.549  -0.573  0.00  0.00    +0.000 A 
ATOM     39  C25 UNL     1      -5.674   2.680  -0.403  0.00  0.00    +0.000 A 
ATOM     40  C26 UNL     1      -7.908   3.220   0.308  0.00  0.00    +0.000 A 
ATOM     41  C27 UNL     1      -7.411   3.999   1.357  0.00  0.00    +0.000 A 
ATOM     42  C28 UNL     1      -6.038   4.125   1.532  0.00  0.00    +0.000 A 
ATOM     43  C29 UNL     1      -5.173   3.469   0.659  0.00  0.00    +0.000 A 
ENDBRANCH  33  34
ENDBRANCH  19  33
TORSDOF 5
