REMARK  Name = /home/anacleto/Desktop/manuscript_Mpro/naturecomm/supplementary_file_S2/6-chemical-library/molecular_docking/3D_ligand_structure/4886.pdb
REMARK  6 active torsions:
REMARK  status: ('A' for Active; 'I' for Inactive)
REMARK    1  A    between atoms: C9_10  and  N2_11
REMARK    2  A    between atoms: C10_12  and  C11_14
REMARK    3  A    between atoms: C11_14  and  C20_24
REMARK    4  A    between atoms: C20_24  and  N3_25
REMARK    5  A    between atoms: N3_25  and  C21_26
REMARK    6  A    between atoms: C21_26  and  C22_27
REMARK                            x       y       z     vdW  Elec       q    Type
REMARK                         _______ _______ _______ _____ _____    ______ ____
ROOT
ATOM      1  C11 UNL     1      -0.833   1.979  -0.034  0.00  0.00    +0.000 C 
ATOM      2  C12 UNL     1      -1.100   2.248   1.468  0.00  0.00    +0.000 C 
ATOM      3  C13 UNL     1      -0.611   3.617   1.902  0.00  0.00    +0.000 C 
ATOM      4  O2  UNL     1      -1.281   4.642   1.182  0.00  0.00    +0.000 OA
ATOM      5  C14 UNL     1      -1.133   4.520  -0.172  0.00  0.00    +0.000 A 
ATOM      6  C15 UNL     1      -0.906   3.299  -0.820  0.00  0.00    +0.000 A 
ATOM      7  C16 UNL     1      -1.251   5.712  -0.893  0.00  0.00    +0.000 A 
ATOM      8  C17 UNL     1      -1.105   5.713  -2.277  0.00  0.00    +0.000 A 
ATOM      9  C18 UNL     1      -0.850   4.519  -2.941  0.00  0.00    +0.000 A 
ATOM     10  C19 UNL     1      -0.754   3.325  -2.220  0.00  0.00    +0.000 A 
ENDROOT
BRANCH   1  12
ATOM     11  N2  UNL     1      -1.991  -0.208   0.224  0.00  0.00    +0.000 N 
ATOM     12  C10 UNL     1      -1.919   0.960  -0.530  0.00  0.00    +0.000 C 
ATOM     13  O1  UNL     1      -2.610   1.167  -1.523  0.00  0.00    +0.000 OA
ATOM     14  H7  UNL     1      -1.395  -0.263   1.034  0.00  0.00    +0.000 HD
BRANCH  11  24
ATOM     15  C1  UNL     1      -1.870  -2.567   2.001  0.00  0.00    +0.000 A 
ATOM     16  C2  UNL     1      -1.822  -3.711   2.802  0.00  0.00    +0.000 A 
ATOM     17  C3  UNL     1      -2.617  -4.806   2.496  0.00  0.00    +0.000 A 
ATOM     18  C4  UNL     1      -3.462  -4.754   1.391  0.00  0.00    +0.000 A 
ATOM     19  C5  UNL     1      -3.520  -3.607   0.581  0.00  0.00    +0.000 A 
ATOM     20  C6  UNL     1      -2.715  -2.476   0.861  0.00  0.00    +0.000 A 
ATOM     21  C7  UNL     1      -4.371  -3.560  -0.519  0.00  0.00    +0.000 A 
ATOM     22  N1  UNL     1      -4.489  -2.507  -1.347  0.00  0.00    +0.000 NA
ATOM     23  C8  UNL     1      -3.711  -1.432  -1.076  0.00  0.00    +0.000 A 
ATOM     24  C9  UNL     1      -2.811  -1.348  -0.010  0.00  0.00    +0.000 A 
ENDBRANCH  11  24
ENDBRANCH   1  12
BRANCH   1  25
ATOM     25  C20 UNL     1       0.554   1.288  -0.263  0.00  0.00    +0.000 C 
BRANCH  25  26
ATOM     26  N3  UNL     1       1.714   2.034   0.251  0.00  0.00    +0.000 NA
ATOM     27  H18 UNL     1       1.877   1.777   1.229  0.00  0.00    +0.000 HD
BRANCH  26  28
ATOM     28  C21 UNL     1       2.951   1.716  -0.472  0.00  0.00    +0.000 C 
BRANCH  28  29
ATOM     29  C22 UNL     1       3.386   0.298  -0.261  0.00  0.00    +0.000 A 
ATOM     30  N4  UNL     1       3.828  -0.493  -1.307  0.00  0.00    +0.000 N 
ATOM     31  N5  UNL     1       3.395  -0.373   0.886  0.00  0.00    +0.000 NA
ATOM     32  C23 UNL     1       3.869  -1.598   0.552  0.00  0.00    +0.000 A 
ATOM     33  C24 UNL     1       4.137  -1.709  -0.777  0.00  0.00    +0.000 A 
ATOM     34  N6  UNL     1       4.077  -2.650   1.393  0.00  0.00    +0.000 N 
ATOM     35  C25 UNL     1       4.564  -3.841   0.910  0.00  0.00    +0.000 A 
ATOM     36  O3  UNL     1       4.762  -4.806   1.644  0.00  0.00    +0.000 OA
ATOM     37  N7  UNL     1       4.823  -3.910  -0.445  0.00  0.00    +0.000 N 
ATOM     38  C26 UNL     1       4.640  -2.898  -1.370  0.00  0.00    +0.000 A 
ATOM     39  O4  UNL     1       4.889  -3.025  -2.562  0.00  0.00    +0.000 OA
ATOM     40  H21 UNL     1       3.913  -0.223  -2.281  0.00  0.00    +0.000 HD
ATOM     41  H22 UNL     1       3.885  -2.545   2.379  0.00  0.00    +0.000 HD
ATOM     42  H23 UNL     1       5.178  -4.787  -0.794  0.00  0.00    +0.000 HD
ENDBRANCH  28  29
ENDBRANCH  26  28
ENDBRANCH  25  26
ENDBRANCH   1  25
TORSDOF 6
