REMARK  Name = /home/anacleto/Desktop/manuscript_Mpro/naturecomm/supplementary_file_S2/6-chemical-library/molecular_docking/3D_ligand_structure/4890.pdb
REMARK  9 active torsions:
REMARK  status: ('A' for Active; 'I' for Inactive)
REMARK    1  A    between atoms: C15_15  and  C18_18
REMARK    2  A    between atoms: C18_18  and  C19_19
REMARK    3  A    between atoms: C19_19  and  C20_20
REMARK    4  A    between atoms: C20_20  and  C21_21
REMARK    5  A    between atoms: C21_21  and  O1_22
REMARK    6  A    between atoms: O1_22  and  C22_23
REMARK    7  A    between atoms: C26_28  and  C27_29
REMARK    8  A    between atoms: C27_29  and  O3_30
REMARK    9  A    between atoms: O3_30  and  C28_31
REMARK                            x       y       z     vdW  Elec       q    Type
REMARK                         _______ _______ _______ _____ _____    ______ ____
ROOT
ATOM      1  C18 UNL     1      -0.971  -0.876   1.371  0.00  0.00    +0.000 C 
ENDROOT
BRANCH   1  16
ATOM      2  C1  UNL     1      -9.653   0.702  -1.000  0.00  0.00    +0.000 C 
ATOM      3  C2  UNL     1     -10.421   1.027   0.284  0.00  0.00    +0.000 C 
ATOM      4  C3  UNL     1      -9.752   0.491   1.542  0.00  0.00    +0.000 C 
ATOM      5  C4  UNL     1      -8.294   0.936   1.617  0.00  0.00    +0.000 C 
ATOM      6  C5  UNL     1      -7.468   0.612   0.349  0.00  0.00    +0.000 C 
ATOM      7  C6  UNL     1      -8.322   0.034  -0.762  0.00  0.00    +0.000 C 
ATOM      8  C7  UNL     1      -7.926  -1.012  -1.504  0.00  0.00    +0.000 C 
ATOM      9  C8  UNL     1      -6.599  -1.689  -1.358  0.00  0.00    +0.000 C 
ATOM     10  C9  UNL     1      -5.576  -0.887  -0.532  0.00  0.00    +0.000 C 
ATOM     11  C10 UNL     1      -6.234  -0.270   0.716  0.00  0.00    +0.000 C 
ATOM     12  C11 UNL     1      -5.220   0.539   1.560  0.00  0.00    +0.000 C 
ATOM     13  C12 UNL     1      -3.756   0.250   1.233  0.00  0.00    +0.000 C 
ATOM     14  C13 UNL     1      -3.515  -1.243   1.017  0.00  0.00    +0.000 C 
ATOM     15  C14 UNL     1      -4.383  -1.790  -0.141  0.00  0.00    +0.000 C 
ATOM     16  C15 UNL     1      -2.074  -1.641   0.630  0.00  0.00    +0.000 C 
ATOM     17  C16 UNL     1      -2.070  -1.481  -0.886  0.00  0.00    +0.000 C 
ATOM     18  C17 UNL     1      -3.420  -2.043  -1.315  0.00  0.00    +0.000 C 
ENDBRANCH   1  16
BRANCH   1  19
ATOM     19  C19 UNL     1       0.445  -1.415   1.127  0.00  0.00    +0.000 C 
BRANCH  19  20
ATOM     20  C20 UNL     1       1.175  -0.703  -0.013  0.00  0.00    +0.000 C 
BRANCH  20  21
ATOM     21  C21 UNL     1       2.603  -1.226  -0.178  0.00  0.00    +0.000 C 
BRANCH  21  22
ATOM     22  O1  UNL     1       3.229  -0.633  -1.314  0.00  0.00    +0.000 OA
BRANCH  22  23
ATOM     23  C22 UNL     1       3.821   0.638  -1.044  0.00  0.00    +0.000 C 
ATOM     24  O2  UNL     1       4.956   0.486  -0.196  0.00  0.00    +0.000 OA
ATOM     25  C23 UNL     1       4.208   1.240  -2.393  0.00  0.00    +0.000 C 
ATOM     26  C24 UNL     1       4.851   2.613  -2.236  0.00  0.00    +0.000 C 
ATOM     27  C25 UNL     1       5.319   2.860  -0.806  0.00  0.00    +0.000 C 
ATOM     28  C26 UNL     1       5.873   1.589  -0.154  0.00  0.00    +0.000 C 
BRANCH  28  29
ATOM     29  C27 UNL     1       7.218   1.166  -0.785  0.00  0.00    +0.000 C 
BRANCH  29  30
ATOM     30  O3  UNL     1       7.904   0.164  -0.025  0.00  0.00    +0.000 OA
BRANCH  30  31
ATOM     31  C28 UNL     1       8.631   0.684   1.086  0.00  0.00    +0.000 C 
ATOM     32  C29 UNL     1       9.117  -0.477   1.964  0.00  0.00    +0.000 C 
ATOM     33  C30 UNL     1      10.560  -0.880   1.673  0.00  0.00    +0.000 C 
ATOM     34  C31 UNL     1      10.900  -0.636   0.216  0.00  0.00    +0.000 C 
ATOM     35  C32 UNL     1      10.660   0.820  -0.167  0.00  0.00    +0.000 C 
ATOM     36  O4  UNL     1       9.729   1.497   0.680  0.00  0.00    +0.000 OA
ENDBRANCH  30  31
ENDBRANCH  29  30
ENDBRANCH  28  29
ENDBRANCH  22  23
ENDBRANCH  21  22
ENDBRANCH  20  21
ENDBRANCH  19  20
ENDBRANCH   1  19
TORSDOF 9
