REMARK  Name = /home/anacleto/Desktop/manuscript_Mpro/naturecomm/supplementary_file_S2/6-chemical-library/molecular_docking/3D_ligand_structure/4904.pdb
REMARK  4 active torsions:
REMARK  status: ('A' for Active; 'I' for Inactive)
REMARK    1  A    between atoms: C3_3  and  C4_4
REMARK    2  A    between atoms: C4_4  and  S1_5
REMARK    3  A    between atoms: S1_5  and  N1_8
REMARK    4  A    between atoms: N2_20  and  C18_24
REMARK                            x       y       z     vdW  Elec       q    Type
REMARK                         _______ _______ _______ _____ _____    ______ ____
ROOT
ATOM      1  N1  UNL     1       2.470   0.496   0.826  0.00  0.00    +0.000 NA
ATOM      2  C5  UNL     1       1.145   0.479   0.175  0.00  0.00    +0.000 C 
ATOM      3  C6  UNL     1       3.067  -0.821   1.093  0.00  0.00    +0.000 C 
ATOM      4  C7  UNL     1       2.067  -1.957   1.217  0.00  0.00    +0.000 A 
ATOM      5  C8  UNL     1       2.565  -3.263   1.374  0.00  0.00    +0.000 A 
ATOM      6  C9  UNL     1       1.698  -4.347   1.488  0.00  0.00    +0.000 A 
ATOM      7  C10 UNL     1       0.324  -4.140   1.449  0.00  0.00    +0.000 A 
ATOM      8  C11 UNL     1      -0.188  -2.851   1.300  0.00  0.00    +0.000 A 
ATOM      9  C12 UNL     1       0.669  -1.741   1.185  0.00  0.00    +0.000 A 
ATOM     10  C13 UNL     1       0.131  -0.305   1.047  0.00  0.00    +0.000 C 
ATOM     11  C14 UNL     1      -1.203  -0.251   0.265  0.00  0.00    +0.000 C 
ATOM     12  O3  UNL     1      -1.198  -0.367  -0.965  0.00  0.00    +0.000 OA
ATOM     13  N2  UNL     1      -2.386  -0.197   1.008  0.00  0.00    +0.000 N 
ATOM     14  C15 UNL     1      -2.437   0.259   2.399  0.00  0.00    +0.000 C 
ATOM     15  C16 UNL     1      -1.202  -0.106   3.196  0.00  0.00    +0.000 C 
ATOM     16  C17 UNL     1       0.028   0.360   2.438  0.00  0.00    +0.000 C 
ENDROOT
BRANCH  13  17
ATOM     17  C18 UNL     1      -3.648  -0.166   0.331  0.00  0.00    +0.000 A 
ATOM     18  C19 UNL     1      -4.570  -1.170   0.635  0.00  0.00    +0.000 A 
ATOM     19  N3  UNL     1      -5.799  -1.276   0.090  0.00  0.00    +0.000 NA
ATOM     20  C20 UNL     1      -6.127  -0.330  -0.817  0.00  0.00    +0.000 A 
ATOM     21  C21 UNL     1      -5.306   0.736  -1.193  0.00  0.00    +0.000 A 
ATOM     22  C22 UNL     1      -4.027   0.839  -0.599  0.00  0.00    +0.000 A 
ATOM     23  C23 UNL     1      -5.741   1.696  -2.125  0.00  0.00    +0.000 A 
ATOM     24  C24 UNL     1      -4.929   2.776  -2.467  0.00  0.00    +0.000 A 
ATOM     25  C25 UNL     1      -3.680   2.912  -1.876  0.00  0.00    +0.000 A 
ATOM     26  C26 UNL     1      -3.238   1.963  -0.952  0.00  0.00    +0.000 A 
ENDBRANCH  13  17
BRANCH   1  27
ATOM     27  S1  UNL     1       3.473   1.817   0.620  0.00  0.00    +0.000 S 
ATOM     28  O1  UNL     1       4.727   1.537   1.286  0.00  0.00    +0.000 OA
ATOM     29  O2  UNL     1       2.691   2.979   1.003  0.00  0.00    +0.000 OA
BRANCH  27  30
ATOM     30  C4  UNL     1       3.751   1.957  -1.157  0.00  0.00    +0.000 C 
BRANCH  30  33
ATOM     31  C1  UNL     1       5.260   0.743  -2.877  0.00  0.00    +0.000 C 
ATOM     32  C2  UNL     1       5.803   0.363  -1.530  0.00  0.00    +0.000 C 
ATOM     33  C3  UNL     1       4.337   0.685  -1.682  0.00  0.00    +0.000 C 
ENDBRANCH  30  33
ENDBRANCH  27  30
ENDBRANCH   1  27
TORSDOF 4
