REMARK  Name = /home/anacleto/Desktop/manuscript_Mpro/naturecomm/supplementary_file_S2/6-chemical-library/molecular_docking/3D_ligand_structure/4918.pdb
REMARK  3 active torsions:
REMARK  status: ('A' for Active; 'I' for Inactive)
REMARK    1  A    between atoms: C2_5  and  C3_6
REMARK    2  A    between atoms: C3_6  and  N3_7
REMARK    3  A    between atoms: N4_19  and  C16_22
REMARK                            x       y       z     vdW  Elec       q    Type
REMARK                         _______ _______ _______ _____ _____    ______ ____
ROOT
ATOM      1  N3  UNL     1       3.509   0.393  -1.057  0.00  0.00    +0.000 NA
ATOM      2  C4  UNL     1       2.089   0.528  -1.428  0.00  0.00    +0.000 C 
ATOM      3  C5  UNL     1       3.899  -1.015  -1.192  0.00  0.00    +0.000 C 
ATOM      4  C6  UNL     1       2.963  -1.998  -0.519  0.00  0.00    +0.000 A 
ATOM      5  C7  UNL     1       3.455  -3.280  -0.217  0.00  0.00    +0.000 A 
ATOM      6  C8  UNL     1       2.617  -4.259   0.311  0.00  0.00    +0.000 A 
ATOM      7  C9  UNL     1       1.274  -3.975   0.523  0.00  0.00    +0.000 A 
ATOM      8  C10 UNL     1       0.769  -2.709   0.221  0.00  0.00    +0.000 A 
ATOM      9  C11 UNL     1       1.601  -1.695  -0.290  0.00  0.00    +0.000 A 
ATOM     10  C12 UNL     1       1.073  -0.282  -0.575  0.00  0.00    +0.000 C 
ATOM     11  C13 UNL     1      -0.266  -0.291  -1.326  0.00  0.00    +0.000 C 
ATOM     12  O1  UNL     1      -0.392  -0.575  -2.509  0.00  0.00    +0.000 OA
ATOM     13  N4  UNL     1      -1.299   0.030  -0.423  0.00  0.00    +0.000 N 
ATOM     14  C14 UNL     1      -0.782   0.217   0.907  0.00  0.00    +0.000 C 
ATOM     15  C15 UNL     1       0.699   0.476   0.714  0.00  0.00    +0.000 C 
ENDROOT
BRANCH  13  16
ATOM     16  C16 UNL     1      -2.647   0.341  -0.800  0.00  0.00    +0.000 A 
ATOM     17  C17 UNL     1      -2.893   0.822  -2.095  0.00  0.00    +0.000 A 
ATOM     18  N5  UNL     1      -4.082   1.274  -2.555  0.00  0.00    +0.000 NA
ATOM     19  C18 UNL     1      -5.107   1.241  -1.687  0.00  0.00    +0.000 A 
ATOM     20  C19 UNL     1      -5.024   0.756  -0.385  0.00  0.00    +0.000 A 
ATOM     21  C20 UNL     1      -3.776   0.266   0.083  0.00  0.00    +0.000 A 
ATOM     22  C21 UNL     1      -6.172   0.743   0.429  0.00  0.00    +0.000 A 
ATOM     23  C22 UNL     1      -6.130   0.216   1.714  0.00  0.00    +0.000 A 
ATOM     24  C23 UNL     1      -4.945  -0.321   2.187  0.00  0.00    +0.000 A 
ATOM     25  C24 UNL     1      -3.797  -0.305   1.384  0.00  0.00    +0.000 A 
ENDBRANCH  13  16
BRANCH   1  26
ATOM     26  C3  UNL     1       3.910   0.941   0.248  0.00  0.00    +0.000 C 
BRANCH  26  31
ATOM     27  S1  UNL     1       3.575   3.086   2.019  0.00  0.00    +0.000 S 
ATOM     28  C1  UNL     1       3.347   4.614   1.280  0.00  0.00    +0.000 A 
ATOM     29  N1  UNL     1       3.350   4.594  -0.033  0.00  0.00    +0.000 NA
ATOM     30  N2  UNL     1       3.554   3.321  -0.527  0.00  0.00    +0.000 NA
ATOM     31  C2  UNL     1       3.678   2.420   0.429  0.00  0.00    +0.000 A 
ENDBRANCH  26  31
ENDBRANCH   1  26
TORSDOF 3
