REMARK  Name = /home/anacleto/Desktop/manuscript_Mpro/naturecomm/supplementary_file_S2/6-chemical-library/molecular_docking/3D_ligand_structure/4929.pdb
REMARK  7 active torsions:
REMARK  status: ('A' for Active; 'I' for Inactive)
REMARK    1  A    between atoms: C9_10  and  N2_11
REMARK    2  A    between atoms: C10_12  and  C11_14
REMARK    3  A    between atoms: C11_14  and  C20_24
REMARK    4  A    between atoms: C20_24  and  N3_25
REMARK    5  A    between atoms: N3_25  and  C21_26
REMARK    6  A    between atoms: C21_26  and  C22_27
REMARK    7  A    between atoms: C25_30  and  N4_33
REMARK                            x       y       z     vdW  Elec       q    Type
REMARK                         _______ _______ _______ _____ _____    ______ ____
ROOT
ATOM      1  C11 UNL     1       1.829  -1.935   0.038  0.00  0.00    +0.000 C 
ATOM      2  C12 UNL     1       1.546  -3.420  -0.314  0.00  0.00    +0.000 C 
ATOM      3  C13 UNL     1       0.230  -3.903   0.271  0.00  0.00    +0.000 C 
ATOM      4  O2  UNL     1       0.045  -3.626   1.656  0.00  0.00    +0.000 OA
ATOM      5  C14 UNL     1       0.859  -2.703   2.246  0.00  0.00    +0.000 A 
ATOM      6  C15 UNL     1       1.764  -1.877   1.563  0.00  0.00    +0.000 A 
ATOM      7  C16 UNL     1       0.740  -2.636   3.638  0.00  0.00    +0.000 A 
ATOM      8  C17 UNL     1       1.535  -1.765   4.375  0.00  0.00    +0.000 A 
ATOM      9  C18 UNL     1       2.456  -0.957   3.719  0.00  0.00    +0.000 A 
ATOM     10  C19 UNL     1       2.571  -1.012   2.328  0.00  0.00    +0.000 A 
ENDROOT
BRANCH   1  12
ATOM     11  N2  UNL     1       3.510  -0.261  -0.674  0.00  0.00    +0.000 N 
ATOM     12  C10 UNL     1       3.243  -1.614  -0.539  0.00  0.00    +0.000 C 
ATOM     13  O1  UNL     1       4.047  -2.505  -0.805  0.00  0.00    +0.000 OA
ATOM     14  H7  UNL     1       2.725   0.347  -0.443  0.00  0.00    +0.000 HD
BRANCH  11  24
ATOM     15  C1  UNL     1       3.810   2.681  -0.665  0.00  0.00    +0.000 A 
ATOM     16  C2  UNL     1       3.984   4.069  -0.694  0.00  0.00    +0.000 A 
ATOM     17  C3  UNL     1       5.162   4.611  -1.189  0.00  0.00    +0.000 A 
ATOM     18  C4  UNL     1       6.167   3.765  -1.647  0.00  0.00    +0.000 A 
ATOM     19  C5  UNL     1       6.001   2.368  -1.619  0.00  0.00    +0.000 A 
ATOM     20  C6  UNL     1       4.807   1.784  -1.131  0.00  0.00    +0.000 A 
ATOM     21  C7  UNL     1       7.015   1.524  -2.066  0.00  0.00    +0.000 A 
ATOM     22  N1  UNL     1       6.946   0.179  -2.067  0.00  0.00    +0.000 NA
ATOM     23  C8  UNL     1       5.798  -0.367  -1.599  0.00  0.00    +0.000 A 
ATOM     24  C9  UNL     1       4.702   0.360  -1.131  0.00  0.00    +0.000 A 
ENDBRANCH  11  24
ENDBRANCH   1  12
BRANCH   1  25
ATOM     25  C20 UNL     1       0.740  -1.043  -0.653  0.00  0.00    +0.000 C 
BRANCH  25  26
ATOM     26  N3  UNL     1       0.825   0.425  -0.452  0.00  0.00    +0.000 NA
ATOM     27  H18 UNL     1       0.427   0.867  -1.286  0.00  0.00    +0.000 HD
BRANCH  26  28
ATOM     28  C21 UNL     1       0.022   0.910   0.687  0.00  0.00    +0.000 C 
BRANCH  28  29
ATOM     29  C22 UNL     1      -1.468   0.816   0.468  0.00  0.00    +0.000 A 
ATOM     30  C23 UNL     1      -2.230  -0.120   1.172  0.00  0.00    +0.000 A 
ATOM     31  C24 UNL     1      -3.609  -0.226   0.952  0.00  0.00    +0.000 A 
ATOM     32  C25 UNL     1      -4.278   0.588   0.023  0.00  0.00    +0.000 A 
ATOM     33  C26 UNL     1      -3.502   1.539  -0.656  0.00  0.00    +0.000 A 
ATOM     34  C27 UNL     1      -2.120   1.651  -0.444  0.00  0.00    +0.000 A 
BRANCH  32  35
ATOM     35  N4  UNL     1      -5.663   0.443  -0.166  0.00  0.00    +0.000 N 
ATOM     36  C28 UNL     1      -6.074  -0.950  -0.515  0.00  0.00    +0.000 C 
ATOM     37  C29 UNL     1      -7.569  -1.128  -0.842  0.00  0.00    +0.000 C 
ATOM     38  O3  UNL     1      -8.085  -2.242  -0.946  0.00  0.00    +0.000 OA
ATOM     39  C30 UNL     1      -6.383   1.491  -0.904  0.00  0.00    +0.000 C 
ATOM     40  C31 UNL     1      -7.888   1.303  -0.694  0.00  0.00    +0.000 C 
ATOM     41  N5  UNL     1      -8.328  -0.014  -1.096  0.00  0.00    +0.000 N 
ATOM     42  H31 UNL     1      -9.316  -0.205  -1.208  0.00  0.00    +0.000 HD
ENDBRANCH  32  35
ENDBRANCH  28  29
ENDBRANCH  26  28
ENDBRANCH  25  26
ENDBRANCH   1  25
TORSDOF 7
