REMARK  Name = /home/anacleto/Desktop/manuscript_Mpro/naturecomm/supplementary_file_S2/6-chemical-library/molecular_docking/3D_ligand_structure/4930.pdb
REMARK  7 active torsions:
REMARK  status: ('A' for Active; 'I' for Inactive)
REMARK    1  A    between atoms: C9_10  and  N2_11
REMARK    2  A    between atoms: C10_12  and  C11_14
REMARK    3  A    between atoms: C11_14  and  C20_24
REMARK    4  A    between atoms: C20_24  and  N3_25
REMARK    5  A    between atoms: N3_25  and  C21_26
REMARK    6  A    between atoms: C21_26  and  C22_27
REMARK    7  A    between atoms: N5_30  and  C25_32
REMARK                            x       y       z     vdW  Elec       q    Type
REMARK                         _______ _______ _______ _____ _____    ______ ____
ROOT
ATOM      1  C11 UNL     1      -1.254  -1.294   0.097  0.00  0.00    +0.000 C 
ATOM      2  C12 UNL     1      -1.200  -0.890  -1.395  0.00  0.00    +0.000 C 
ATOM      3  C13 UNL     1      -1.244  -2.128  -2.270  0.00  0.00    +0.000 C 
ATOM      4  O2  UNL     1      -2.502  -2.790  -2.132  0.00  0.00    +0.000 OA
ATOM      5  C14 UNL     1      -2.870  -3.044  -0.839  0.00  0.00    +0.000 A 
ATOM      6  C15 UNL     1      -2.326  -2.386   0.272  0.00  0.00    +0.000 A 
ATOM      7  C16 UNL     1      -3.874  -3.999  -0.677  0.00  0.00    +0.000 A 
ATOM      8  C17 UNL     1      -4.326  -4.336   0.597  0.00  0.00    +0.000 A 
ATOM      9  C18 UNL     1      -3.774  -3.716   1.714  0.00  0.00    +0.000 A 
ATOM     10  C19 UNL     1      -2.779  -2.750   1.555  0.00  0.00    +0.000 A 
ENDROOT
BRANCH   1  12
ATOM     11  N2  UNL     1      -2.905   0.469   0.636  0.00  0.00    +0.000 N 
ATOM     12  C10 UNL     1      -1.651  -0.045   0.943  0.00  0.00    +0.000 C 
ATOM     13  O1  UNL     1      -0.906   0.416   1.803  0.00  0.00    +0.000 OA
ATOM     14  H7  UNL     1      -3.457  -0.077  -0.011  0.00  0.00    +0.000 HD
BRANCH  11  24
ATOM     15  C1  UNL     1      -5.640   1.241  -0.176  0.00  0.00    +0.000 A 
ATOM     16  C2  UNL     1      -6.933   1.641  -0.530  0.00  0.00    +0.000 A 
ATOM     17  C3  UNL     1      -7.513   2.742   0.082  0.00  0.00    +0.000 A 
ATOM     18  C4  UNL     1      -6.801   3.446   1.047  0.00  0.00    +0.000 A 
ATOM     19  C5  UNL     1      -5.496   3.058   1.403  0.00  0.00    +0.000 A 
ATOM     20  C6  UNL     1      -4.877   1.936   0.801  0.00  0.00    +0.000 A 
ATOM     21  C7  UNL     1      -4.781   3.773   2.361  0.00  0.00    +0.000 A 
ATOM     22  N1  UNL     1      -3.529   3.478   2.759  0.00  0.00    +0.000 NA
ATOM     23  C8  UNL     1      -2.948   2.403   2.177  0.00  0.00    +0.000 A 
ATOM     24  C9  UNL     1      -3.552   1.595   1.212  0.00  0.00    +0.000 A 
ENDBRANCH  11  24
ENDBRANCH   1  12
BRANCH   1  25
ATOM     25  C20 UNL     1       0.107  -1.911   0.593  0.00  0.00    +0.000 C 
BRANCH  25  26
ATOM     26  N3  UNL     1       1.387  -1.403   0.081  0.00  0.00    +0.000 NA
ATOM     27  H18 UNL     1       1.431  -1.420  -0.934  0.00  0.00    +0.000 HD
BRANCH  26  28
ATOM     28  C21 UNL     1       1.743  -0.080   0.580  0.00  0.00    +0.000 C 
BRANCH  28  29
ATOM     29  C22 UNL     1       3.113   0.232   0.090  0.00  0.00    +0.000 A 
ATOM     30  C23 UNL     1       3.481   1.129  -0.938  0.00  0.00    +0.000 A 
ATOM     31  N4  UNL     1       4.801   1.183  -1.125  0.00  0.00    +0.000 NA
ATOM     32  N5  UNL     1       5.290   0.332  -0.210  0.00  0.00    +0.000 N 
ATOM     33  C24 UNL     1       4.322  -0.266   0.540  0.00  0.00    +0.000 A 
BRANCH  32  34
ATOM     34  C25 UNL     1       6.727   0.150  -0.078  0.00  0.00    +0.000 C 
ATOM     35  C26 UNL     1       7.386  -0.362  -1.369  0.00  0.00    +0.000 C 
ATOM     36  C27 UNL     1       7.642   0.844  -2.263  0.00  0.00    +0.000 C 
ATOM     37  C28 UNL     1       7.429   1.439   0.344  0.00  0.00    +0.000 C 
ATOM     38  S1  UNL     1       8.131   2.136  -1.139  0.00  0.00    +0.000 S 
ATOM     39  O3  UNL     1       7.453   3.368  -1.476  0.00  0.00    +0.000 OA
ATOM     40  O4  UNL     1       9.575   2.079  -1.004  0.00  0.00    +0.000 OA
ENDBRANCH  32  34
ENDBRANCH  28  29
ENDBRANCH  26  28
ENDBRANCH  25  26
ENDBRANCH   1  25
TORSDOF 7
