REMARK  Name = /home/anacleto/Desktop/manuscript_Mpro/naturecomm/supplementary_file_S2/6-chemical-library/molecular_docking/3D_ligand_structure/4939.pdb
REMARK  7 active torsions:
REMARK  status: ('A' for Active; 'I' for Inactive)
REMARK    1  A    between atoms: C9_10  and  N2_11
REMARK    2  A    between atoms: C10_12  and  C11_14
REMARK    3  A    between atoms: C11_14  and  C20_24
REMARK    4  A    between atoms: C20_24  and  N3_25
REMARK    5  A    between atoms: N3_25  and  C21_26
REMARK    6  A    between atoms: C21_26  and  C22_27
REMARK    7  A    between atoms: C23_28  and  N6_32
REMARK                            x       y       z     vdW  Elec       q    Type
REMARK                         _______ _______ _______ _____ _____    ______ ____
ROOT
ATOM      1  C11 UNL     1      -1.110  -1.864   0.336  0.00  0.00    +0.000 C 
ATOM      2  C12 UNL     1      -1.200  -2.432   1.771  0.00  0.00    +0.000 C 
ATOM      3  C13 UNL     1      -2.484  -3.202   1.992  0.00  0.00    +0.000 C 
ATOM      4  O2  UNL     1      -2.603  -4.306   1.100  0.00  0.00    +0.000 OA
ATOM      5  C14 UNL     1      -2.334  -4.034  -0.212  0.00  0.00    +0.000 A 
ATOM      6  C15 UNL     1      -1.644  -2.899  -0.659  0.00  0.00    +0.000 A 
ATOM      7  C16 UNL     1      -2.794  -4.991  -1.119  0.00  0.00    +0.000 A 
ATOM      8  C17 UNL     1      -2.607  -4.814  -2.487  0.00  0.00    +0.000 A 
ATOM      9  C18 UNL     1      -1.959  -3.675  -2.952  0.00  0.00    +0.000 A 
ATOM     10  C19 UNL     1      -1.483  -2.723  -2.047  0.00  0.00    +0.000 A 
ENDROOT
BRANCH   1  12
ATOM     11  N2  UNL     1      -3.252  -0.655  -0.067  0.00  0.00    +0.000 N 
ATOM     12  C10 UNL     1      -1.913  -0.530   0.271  0.00  0.00    +0.000 C 
ATOM     13  O1  UNL     1      -1.390   0.531   0.613  0.00  0.00    +0.000 OA
ATOM     14  H7  UNL     1      -3.637  -1.591  -0.014  0.00  0.00    +0.000 HD
BRANCH  11  24
ATOM     15  C1  UNL     1      -2.831   2.189  -1.236  0.00  0.00    +0.000 A 
ATOM     16  C2  UNL     1      -2.700   3.514  -1.664  0.00  0.00    +0.000 A 
ATOM     17  C3  UNL     1      -3.742   4.409  -1.481  0.00  0.00    +0.000 A 
ATOM     18  C4  UNL     1      -4.926   3.971  -0.894  0.00  0.00    +0.000 A 
ATOM     19  C5  UNL     1      -5.069   2.637  -0.469  0.00  0.00    +0.000 A 
ATOM     20  C6  UNL     1      -4.000   1.714  -0.588  0.00  0.00    +0.000 A 
ATOM     21  C7  UNL     1      -6.281   2.186   0.055  0.00  0.00    +0.000 A 
ATOM     22  N1  UNL     1      -6.530   0.917   0.439  0.00  0.00    +0.000 NA
ATOM     23  C8  UNL     1      -5.495   0.059   0.338  0.00  0.00    +0.000 A 
ATOM     24  C9  UNL     1      -4.213   0.390  -0.112  0.00  0.00    +0.000 A 
ENDBRANCH  11  24
ENDBRANCH   1  12
BRANCH   1  25
ATOM     25  C20 UNL     1       0.396  -1.552   0.022  0.00  0.00    +0.000 C 
BRANCH  25  26
ATOM     26  N3  UNL     1       1.091  -0.782   1.069  0.00  0.00    +0.000 NA
ATOM     27  H18 UNL     1       0.576   0.100   1.197  0.00  0.00    +0.000 HD
BRANCH  26  28
ATOM     28  C21 UNL     1       2.461  -0.458   0.665  0.00  0.00    +0.000 C 
BRANCH  28  29
ATOM     29  C22 UNL     1       3.143   0.340   1.723  0.00  0.00    +0.000 A 
ATOM     30  C23 UNL     1       4.265   1.147   1.613  0.00  0.00    +0.000 A 
ATOM     31  N4  UNL     1       4.469   1.668   2.867  0.00  0.00    +0.000 N 
ATOM     32  N5  UNL     1       3.578   1.268   3.785  0.00  0.00    +0.000 NA
ATOM     33  C24 UNL     1       2.781   0.453   3.093  0.00  0.00    +0.000 A 
ATOM     34  H21 UNL     1       5.223   2.279   3.153  0.00  0.00    +0.000 HD
BRANCH  30  35
ATOM     35  N6  UNL     1       5.142   1.461   0.610  0.00  0.00    +0.000 N 
ATOM     36  C25 UNL     1       5.084   2.853   0.098  0.00  0.00    +0.000 C 
ATOM     37  C26 UNL     1       6.323   3.154  -0.763  0.00  0.00    +0.000 C 
ATOM     38  O3  UNL     1       6.473   2.205  -1.831  0.00  0.00    +0.000 OA
ATOM     39  C27 UNL     1       6.599   0.878  -1.295  0.00  0.00    +0.000 C 
ATOM     40  C28 UNL     1       5.353   0.489  -0.484  0.00  0.00    +0.000 C 
ENDBRANCH  30  35
ENDBRANCH  28  29
ENDBRANCH  26  28
ENDBRANCH  25  26
ENDBRANCH   1  25
TORSDOF 7
