REMARK  Name = /home/anacleto/Desktop/manuscript_Mpro/naturecomm/supplementary_file_S2/6-chemical-library/molecular_docking/3D_ligand_structure/4944.pdb
REMARK  5 active torsions:
REMARK  status: ('A' for Active; 'I' for Inactive)
REMARK    1  A    between atoms: C1_5  and  C2_6
REMARK    2  A    between atoms: C7_12  and  C8_14
REMARK    3  A    between atoms: C8_14  and  C9_15
REMARK    4  A    between atoms: C9_15  and  C18_25
REMARK    5  A    between atoms: N6_27  and  C19_28
REMARK                            x       y       z     vdW  Elec       q    Type
REMARK                         _______ _______ _______ _____ _____    ______ ____
ROOT
ATOM      1  C9  UNL     1      -0.562  -1.112   1.818  0.00  0.00    +0.000 C 
ATOM      2  C10 UNL     1      -0.194  -1.289   3.313  0.00  0.00    +0.000 C 
ATOM      3  C11 UNL     1      -1.377  -1.841   4.093  0.00  0.00    +0.000 C 
ATOM      4  O2  UNL     1      -1.784  -3.125   3.638  0.00  0.00    +0.000 OA
ATOM      5  C12 UNL     1      -1.755  -3.326   2.287  0.00  0.00    +0.000 A 
ATOM      6  C13 UNL     1      -1.172  -2.454   1.354  0.00  0.00    +0.000 A 
ATOM      7  C14 UNL     1      -2.314  -4.543   1.883  0.00  0.00    +0.000 A 
ATOM      8  C15 UNL     1      -2.299  -4.924   0.544  0.00  0.00    +0.000 A 
ATOM      9  C16 UNL     1      -1.712  -4.089  -0.395  0.00  0.00    +0.000 A 
ATOM     10  C17 UNL     1      -1.151  -2.872   0.004  0.00  0.00    +0.000 A 
ENDROOT
BRANCH   1  11
ATOM     11  C18 UNL     1      -1.587   0.058   1.664  0.00  0.00    +0.000 C 
ATOM     12  O3  UNL     1      -1.933   0.747   2.622  0.00  0.00    +0.000 OA
ATOM     13  N6  UNL     1      -2.063   0.249   0.376  0.00  0.00    +0.000 N 
ATOM     14  H19 UNL     1      -1.970  -0.526  -0.257  0.00  0.00    +0.000 HD
BRANCH  13  15
ATOM     15  C19 UNL     1      -2.855   1.336  -0.082  0.00  0.00    +0.000 A 
ATOM     16  C20 UNL     1      -2.953   2.536   0.627  0.00  0.00    +0.000 A 
ATOM     17  N7  UNL     1      -3.646   3.622   0.210  0.00  0.00    +0.000 NA
ATOM     18  C21 UNL     1      -4.273   3.514  -0.978  0.00  0.00    +0.000 A 
ATOM     19  C22 UNL     1      -4.248   2.380  -1.788  0.00  0.00    +0.000 A 
ATOM     20  C23 UNL     1      -3.531   1.247  -1.337  0.00  0.00    +0.000 A 
ATOM     21  C24 UNL     1      -4.920   2.364  -3.024  0.00  0.00    +0.000 A 
ATOM     22  C25 UNL     1      -4.907   1.228  -3.829  0.00  0.00    +0.000 A 
ATOM     23  C26 UNL     1      -4.230   0.094  -3.402  0.00  0.00    +0.000 A 
ATOM     24  C27 UNL     1      -3.557   0.101  -2.175  0.00  0.00    +0.000 A 
ENDBRANCH  13  15
ENDBRANCH   1  11
BRANCH   1  25
ATOM     25  C8  UNL     1       0.727  -0.791   1.003  0.00  0.00    +0.000 C 
BRANCH  25  32
ATOM     26  C2  UNL     1       5.029   1.540  -0.733  0.00  0.00    +0.000 C 
ATOM     27  C3  UNL     1       4.693   2.128   0.433  0.00  0.00    +0.000 C 
ATOM     28  C4  UNL     1       3.508   1.789   1.287  0.00  0.00    +0.000 C 
ATOM     29  N5  UNL     1       2.697   0.708   0.735  0.00  0.00    +0.000 N 
ATOM     30  C5  UNL     1       3.387  -0.273  -0.099  0.00  0.00    +0.000 C 
ATOM     31  C6  UNL     1       4.170   0.398  -1.227  0.00  0.00    +0.000 C 
ATOM     32  C7  UNL     1       1.493   0.464   1.401  0.00  0.00    +0.000 C 
ATOM     33  O1  UNL     1       1.063   1.245   2.245  0.00  0.00    +0.000 OA
BRANCH  26  38
ATOM     34  N1  UNL     1       6.388   1.814  -2.726  0.00  0.00    +0.000 N 
ATOM     35  N2  UNL     1       7.535   2.370  -3.132  0.00  0.00    +0.000 NA
ATOM     36  N3  UNL     1       8.035   2.950  -2.050  0.00  0.00    +0.000 NA
ATOM     37  N4  UNL     1       7.213   2.760  -0.965  0.00  0.00    +0.000 NA
ATOM     38  C1  UNL     1       6.191   2.042  -1.390  0.00  0.00    +0.000 A 
ATOM     39  H1  UNL     1       5.810   1.327  -3.397  0.00  0.00    +0.000 HD
ENDBRANCH  26  38
ENDBRANCH  25  32
ENDBRANCH   1  25
TORSDOF 5
