REMARK  Name = /home/anacleto/Desktop/manuscript_Mpro/naturecomm/supplementary_file_S2/6-chemical-library/molecular_docking/3D_ligand_structure/4946.pdb
REMARK  5 active torsions:
REMARK  status: ('A' for Active; 'I' for Inactive)
REMARK    1  A    between atoms: C1_5  and  C2_6
REMARK    2  A    between atoms: C6_11  and  C7_13
REMARK    3  A    between atoms: C7_13  and  C8_14
REMARK    4  A    between atoms: C8_14  and  C17_24
REMARK    5  A    between atoms: N6_26  and  C18_27
REMARK                            x       y       z     vdW  Elec       q    Type
REMARK                         _______ _______ _______ _____ _____    ______ ____
ROOT
ATOM      1  C8  UNL     1       0.190  -1.651  -0.450  0.00  0.00    +0.000 C 
ATOM      2  C9  UNL     1       0.343  -1.603  -1.990  0.00  0.00    +0.000 C 
ATOM      3  C10 UNL     1      -0.793  -2.336  -2.672  0.00  0.00    +0.000 C 
ATOM      4  O2  UNL     1      -0.750  -3.732  -2.386  0.00  0.00    +0.000 OA
ATOM      5  C11 UNL     1      -0.603  -4.028  -1.056  0.00  0.00    +0.000 A 
ATOM      6  C12 UNL     1      -0.162  -3.118  -0.078  0.00  0.00    +0.000 A 
ATOM      7  C13 UNL     1      -0.929  -5.344  -0.717  0.00  0.00    +0.000 A 
ATOM      8  C14 UNL     1      -0.867  -5.766   0.610  0.00  0.00    +0.000 A 
ATOM      9  C15 UNL     1      -0.477  -4.869   1.602  0.00  0.00    +0.000 A 
ATOM     10  C16 UNL     1      -0.129  -3.560   1.262  0.00  0.00    +0.000 A 
ENDROOT
BRANCH   1  11
ATOM     11  C17 UNL     1       1.567  -1.206   0.156  0.00  0.00    +0.000 C 
ATOM     12  O3  UNL     1       2.234  -1.950   0.877  0.00  0.00    +0.000 OA
ATOM     13  N6  UNL     1       1.983   0.070  -0.198  0.00  0.00    +0.000 N 
ATOM     14  H19 UNL     1       1.298   0.662  -0.674  0.00  0.00    +0.000 HD
BRANCH  13  15
ATOM     15  C18 UNL     1       3.281   0.635  -0.005  0.00  0.00    +0.000 A 
ATOM     16  C19 UNL     1       4.365  -0.116   0.468  0.00  0.00    +0.000 A 
ATOM     17  N7  UNL     1       5.630   0.350   0.620  0.00  0.00    +0.000 NA
ATOM     18  C20 UNL     1       5.836   1.634   0.276  0.00  0.00    +0.000 A 
ATOM     19  C21 UNL     1       4.848   2.499  -0.194  0.00  0.00    +0.000 A 
ATOM     20  C22 UNL     1       3.529   2.002  -0.344  0.00  0.00    +0.000 A 
ATOM     21  C23 UNL     1       5.160   3.836  -0.504  0.00  0.00    +0.000 A 
ATOM     22  C24 UNL     1       4.174   4.715  -0.949  0.00  0.00    +0.000 A 
ATOM     23  C25 UNL     1       2.876   4.259  -1.108  0.00  0.00    +0.000 A 
ATOM     24  C26 UNL     1       2.560   2.928  -0.815  0.00  0.00    +0.000 A 
ENDBRANCH  13  15
ENDBRANCH   1  11
BRANCH   1  25
ATOM     25  C7  UNL     1      -0.985  -0.811   0.136  0.00  0.00    +0.000 C 
BRANCH  25  31
ATOM     26  C2  UNL     1      -3.526   0.704   0.659  0.00  0.00    +0.000 C 
ATOM     27  C3  UNL     1      -4.635   1.761   0.477  0.00  0.00    +0.000 C 
ATOM     28  C4  UNL     1      -4.216   2.525  -0.775  0.00  0.00    +0.000 C 
ATOM     29  C5  UNL     1      -2.701   2.522  -0.686  0.00  0.00    +0.000 C 
ATOM     30  N5  UNL     1      -2.387   1.221  -0.123  0.00  0.00    +0.000 N 
ATOM     31  C6  UNL     1      -1.195   0.588  -0.413  0.00  0.00    +0.000 C 
ATOM     32  O1  UNL     1      -0.316   1.146  -1.074  0.00  0.00    +0.000 OA
BRANCH  26  37
ATOM     33  N1  UNL     1      -2.510   1.398   2.869  0.00  0.00    +0.000 NA
ATOM     34  N2  UNL     1      -2.422   0.700   4.017  0.00  0.00    +0.000 N 
ATOM     35  N3  UNL     1      -2.969  -0.521   4.000  0.00  0.00    +0.000 NA
ATOM     36  N4  UNL     1      -3.462  -0.657   2.769  0.00  0.00    +0.000 NA
ATOM     37  C1  UNL     1      -3.173   0.504   2.103  0.00  0.00    +0.000 A 
ATOM     38  H1  UNL     1      -1.970   1.071   4.853  0.00  0.00    +0.000 HD
ENDBRANCH  26  37
ENDBRANCH  25  31
ENDBRANCH   1  25
TORSDOF 5
