REMARK  Name = /home/anacleto/Desktop/manuscript_Mpro/naturecomm/supplementary_file_S2/6-chemical-library/molecular_docking/3D_ligand_structure/4948.pdb
REMARK  5 active torsions:
REMARK  status: ('A' for Active; 'I' for Inactive)
REMARK    1  A    between atoms: C9_9  and  N1_11
REMARK    2  A    between atoms: N2_12  and  C11_13
REMARK    3  A    between atoms: C16_18  and  C17_19
REMARK    4  A    between atoms: C20_22  and  N3_25
REMARK    5  A    between atoms: N4_26  and  C23_27
REMARK                            x       y       z     vdW  Elec       q    Type
REMARK                         _______ _______ _______ _____ _____    ______ ____
ROOT
ATOM      1  C11 UNL     1       2.116   0.061  -0.164  0.00  0.00    +0.000 A 
ATOM      2  C12 UNL     1       1.879   1.390  -0.527  0.00  0.00    +0.000 A 
ATOM      3  C13 UNL     1       0.642   1.989  -0.265  0.00  0.00    +0.000 A 
ATOM      4  C14 UNL     1       1.091  -0.666   0.446  0.00  0.00    +0.000 A 
ATOM      5  C15 UNL     1      -0.146  -0.068   0.709  0.00  0.00    +0.000 A 
ATOM      6  C16 UNL     1      -0.391   1.270   0.359  0.00  0.00    +0.000 A 
ENDROOT
BRANCH   6   7
ATOM      7  C17 UNL     1      -1.693   1.897   0.636  0.00  0.00    +0.000 A 
ATOM      8  C18 UNL     1      -2.432   2.512  -0.388  0.00  0.00    +0.000 A 
ATOM      9  C19 UNL     1      -3.674   3.099  -0.126  0.00  0.00    +0.000 A 
ATOM     10  C20 UNL     1      -4.218   3.068   1.161  0.00  0.00    +0.000 A 
ATOM     11  C21 UNL     1      -3.475   2.490   2.193  0.00  0.00    +0.000 A 
ATOM     12  C22 UNL     1      -2.233   1.902   1.932  0.00  0.00    +0.000 A 
BRANCH  10  13
ATOM     13  N3  UNL     1      -5.458   3.682   1.427  0.00  0.00    +0.000 NA
ATOM     14  N4  UNL     1      -6.526   3.017   1.369  0.00  0.00    +0.000 NA
BRANCH  14  15
ATOM     15  C23 UNL     1      -6.501   1.649   1.033  0.00  0.00    +0.000 A 
ATOM     16  C24 UNL     1      -6.604   1.244  -0.303  0.00  0.00    +0.000 A 
ATOM     17  C25 UNL     1      -6.453   0.678   2.036  0.00  0.00    +0.000 A 
ATOM     18  C26 UNL     1      -6.456  -0.680   1.709  0.00  0.00    +0.000 A 
ATOM     19  C27 UNL     1      -6.526  -1.092   0.370  0.00  0.00    +0.000 A 
ATOM     20  C28 UNL     1      -6.605  -0.117  -0.651  0.00  0.00    +0.000 A 
ATOM     21  C29 UNL     1      -6.525  -2.452   0.022  0.00  0.00    +0.000 A 
ATOM     22  C30 UNL     1      -6.601  -2.846  -1.315  0.00  0.00    +0.000 A 
ATOM     23  C31 UNL     1      -6.681  -1.886  -2.320  0.00  0.00    +0.000 A 
ATOM     24  C32 UNL     1      -6.684  -0.530  -1.991  0.00  0.00    +0.000 A 
ENDBRANCH  14  15
ENDBRANCH  10  13
ENDBRANCH   6   7
BRANCH   1  26
ATOM     25  N1  UNL     1       4.174  -0.289   0.449  0.00  0.00    +0.000 NA
ATOM     26  N2  UNL     1       3.346  -0.553  -0.451  0.00  0.00    +0.000 NA
BRANCH  25  35
ATOM     27  C1  UNL     1       8.901   0.151  -0.652  0.00  0.00    +0.000 A 
ATOM     28  C2  UNL     1      10.146  -0.424  -0.908  0.00  0.00    +0.000 A 
ATOM     29  C3  UNL     1      10.293  -1.808  -0.880  0.00  0.00    +0.000 A 
ATOM     30  C4  UNL     1       9.194  -2.620  -0.597  0.00  0.00    +0.000 A 
ATOM     31  C5  UNL     1       7.934  -2.058  -0.338  0.00  0.00    +0.000 A 
ATOM     32  C6  UNL     1       7.784  -0.652  -0.367  0.00  0.00    +0.000 A 
ATOM     33  C7  UNL     1       6.820  -2.860  -0.049  0.00  0.00    +0.000 A 
ATOM     34  C8  UNL     1       5.574  -2.282   0.206  0.00  0.00    +0.000 A 
ATOM     35  C9  UNL     1       5.413  -0.893   0.167  0.00  0.00    +0.000 A 
ATOM     36  C10 UNL     1       6.524  -0.088  -0.108  0.00  0.00    +0.000 A 
ENDBRANCH  25  35
ENDBRANCH   1  26
TORSDOF 5
