REMARK  Name = /home/anacleto/Desktop/manuscript_Mpro/naturecomm/supplementary_file_S2/6-chemical-library/molecular_docking/3D_ligand_structure/495.pdb
REMARK  6 active torsions:
REMARK  status: ('A' for Active; 'I' for Inactive)
REMARK    1  A    between atoms: C3_5  and  C4_6
REMARK    2  A    between atoms: C4_6  and  C5_7
REMARK    3  A    between atoms: C5_7  and  N3_8
REMARK    4  A    between atoms: C6_9  and  C7_11
REMARK    5  A    between atoms: C7_11  and  N4_12
REMARK    6  A    between atoms: C8_13  and  C9_15
REMARK                            x       y       z     vdW  Elec       q    Type
REMARK                         _______ _______ _______ _____ _____    ______ ____
ROOT
ATOM      1  N3  UNL     1      -0.994   0.942   0.311  0.00  0.00    +0.000 N 
ATOM      2  C6  UNL     1       0.017   0.029   0.135  0.00  0.00    +0.000 C 
ATOM      3  O1  UNL     1       0.188  -0.942   0.871  0.00  0.00    +0.000 OA
ATOM      4  H8  UNL     1      -1.084   1.723  -0.329  0.00  0.00    +0.000 HD
ENDROOT
BRANCH   1   5
ATOM      5  C5  UNL     1      -1.898   0.892   1.446  0.00  0.00    +0.000 C 
BRANCH   5   6
ATOM      6  C4  UNL     1      -2.940  -0.229   1.355  0.00  0.00    +0.000 C 
BRANCH   6  11
ATOM      7  N1  UNL     1      -3.752  -1.038  -0.885  0.00  0.00    +0.000 N 
ATOM      8  C1  UNL     1      -4.639  -0.632  -1.840  0.00  0.00    +0.000 A 
ATOM      9  N2  UNL     1      -5.244   0.480  -1.492  0.00  0.00    +0.000 NA
ATOM     10  C2  UNL     1      -4.736   0.801  -0.261  0.00  0.00    +0.000 A 
ATOM     11  C3  UNL     1      -3.792  -0.121   0.136  0.00  0.00    +0.000 A 
ATOM     12  H1  UNL     1      -3.173  -1.866  -0.926  0.00  0.00    +0.000 HD
ENDBRANCH   6  11
ENDBRANCH   5   6
ENDBRANCH   1   5
BRANCH   2  13
ATOM     13  C7  UNL     1       0.888   0.270  -1.100  0.00  0.00    +0.000 C 
BRANCH  13  14
ATOM     14  N4  UNL     1       2.228  -0.214  -0.826  0.00  0.00    +0.000 N 
ATOM     15  C8  UNL     1       3.187   0.663  -0.346  0.00  0.00    +0.000 C 
ATOM     16  O2  UNL     1       3.001   1.877  -0.333  0.00  0.00    +0.000 OA
ATOM     17  H11 UNL     1       2.280  -1.173  -0.509  0.00  0.00    +0.000 HD
BRANCH  15  18
ATOM     18  C9  UNL     1       4.418   0.048   0.151  0.00  0.00    +0.000 A 
ATOM     19  C10 UNL     1       4.808  -1.273   0.067  0.00  0.00    +0.000 A 
ATOM     20  O3  UNL     1       6.031  -1.406   0.654  0.00  0.00    +0.000 OA
ATOM     21  C11 UNL     1       6.331  -0.146   1.067  0.00  0.00    +0.000 A 
ATOM     22  N5  UNL     1       5.420   0.758   0.797  0.00  0.00    +0.000 NA
ENDBRANCH  15  18
ENDBRANCH  13  14
ENDBRANCH   2  13
TORSDOF 6
