REMARK  Name = /home/anacleto/Desktop/manuscript_Mpro/naturecomm/supplementary_file_S2/6-chemical-library/molecular_docking/3D_ligand_structure/4952.pdb
REMARK  9 active torsions:
REMARK  status: ('A' for Active; 'I' for Inactive)
REMARK    1  A    between atoms: N1_6  and  C5_7
REMARK    2  A    between atoms: C6_9  and  C13_18
REMARK    3  A    between atoms: C13_18  and  N4_19
REMARK    4  A    between atoms: C13_18  and  C24_33
REMARK    5  A    between atoms: N4_19  and  C18_27
REMARK    6  A    between atoms: C14_20  and  C15_22
REMARK    7  A    between atoms: N6_35  and  C25_36
REMARK    8  A    between atoms: C25_36  and  C26_37
REMARK    9  A    between atoms: C26_37  and  C27_38
REMARK                            x       y       z     vdW  Elec       q    Type
REMARK                         _______ _______ _______ _____ _____    ______ ____
ROOT
ATOM      1  C13 UNL     1      -0.168  -0.385   1.214  0.00  0.00    +0.000 C 
ENDROOT
BRANCH   1   4
ATOM      2  C5  UNL     1      -1.633   1.569   0.351  0.00  0.00    +0.000 A 
ATOM      3  N2  UNL     1      -2.625   2.489   0.582  0.00  0.00    +0.000 NA
ATOM      4  C6  UNL     1      -1.257   0.667   1.285  0.00  0.00    +0.000 A 
ATOM      5  C7  UNL     1      -1.908   0.748   2.626  0.00  0.00    +0.000 A 
ATOM      6  O2  UNL     1      -1.503   0.040   3.550  0.00  0.00    +0.000 OA
ATOM      7  N3  UNL     1      -2.945   1.651   2.763  0.00  0.00    +0.000 N 
ATOM      8  C8  UNL     1      -3.241   2.498   1.717  0.00  0.00    +0.000 A 
ATOM      9  C9  UNL     1      -3.637   1.728   3.967  0.00  0.00    +0.000 A 
ATOM     10  C10 UNL     1      -4.623   2.613   4.157  0.00  0.00    +0.000 A 
ATOM     11  C11 UNL     1      -4.985   3.519   3.100  0.00  0.00    +0.000 A 
ATOM     12  C12 UNL     1      -4.338   3.484   1.929  0.00  0.00    +0.000 A 
BRANCH   2  18
ATOM     13  C1  UNL     1      -1.580   0.763  -1.984  0.00  0.00    +0.000 C 
ATOM     14  C2  UNL     1      -1.005   1.144  -3.354  0.00  0.00    +0.000 C 
ATOM     15  O1  UNL     1      -1.324   2.491  -3.740  0.00  0.00    +0.000 OA
ATOM     16  C3  UNL     1      -1.435   3.376  -2.612  0.00  0.00    +0.000 C 
ATOM     17  C4  UNL     1      -0.577   2.942  -1.418  0.00  0.00    +0.000 C 
ATOM     18  N1  UNL     1      -1.008   1.614  -0.899  0.00  0.00    +0.000 N 
ENDBRANCH   2  18
ENDBRANCH   1   4
BRANCH   1  19
ATOM     19  C24 UNL     1       0.937  -0.173   0.126  0.00  0.00    +0.000 C 
ATOM     20  O5  UNL     1       1.036  -0.846  -0.901  0.00  0.00    +0.000 OA
ATOM     21  N6  UNL     1       1.846   0.835   0.429  0.00  0.00    +0.000 N 
ATOM     22  H21 UNL     1       1.820   1.258   1.347  0.00  0.00    +0.000 HD
BRANCH  21  23
ATOM     23  C25 UNL     1       2.997   1.089  -0.414  0.00  0.00    +0.000 C 
BRANCH  23  24
ATOM     24  C26 UNL     1       4.120   0.077  -0.172  0.00  0.00    +0.000 C 
BRANCH  24  25
ATOM     25  C27 UNL     1       5.337   0.386  -1.007  0.00  0.00    +0.000 A 
ATOM     26  C28 UNL     1       5.405  -0.040  -2.340  0.00  0.00    +0.000 A 
ATOM     27  C29 UNL     1       6.522   0.257  -3.122  0.00  0.00    +0.000 A 
ATOM     28  C30 UNL     1       7.579   0.985  -2.579  0.00  0.00    +0.000 A 
ATOM     29  C31 UNL     1       7.520   1.417  -1.255  0.00  0.00    +0.000 A 
ATOM     30  C32 UNL     1       6.403   1.121  -0.471  0.00  0.00    +0.000 A 
ENDBRANCH  24  25
ENDBRANCH  23  24
ENDBRANCH  21  23
ENDBRANCH   1  19
BRANCH   1  31
ATOM     31  N4  UNL     1      -0.671  -1.784   1.224  0.00  0.00    +0.000 N 
ATOM     32  C14 UNL     1       0.225  -2.722   1.783  0.00  0.00    +0.000 C 
ATOM     33  O3  UNL     1       1.364  -2.406   2.135  0.00  0.00    +0.000 OA
BRANCH  31  34
ATOM     34  C18 UNL     1      -1.623  -2.186   0.237  0.00  0.00    +0.000 A 
ATOM     35  C19 UNL     1      -1.240  -2.998  -0.841  0.00  0.00    +0.000 A 
ATOM     36  C20 UNL     1      -2.175  -3.391  -1.802  0.00  0.00    +0.000 A 
ATOM     37  C21 UNL     1      -3.503  -2.985  -1.689  0.00  0.00    +0.000 A 
ATOM     38  C22 UNL     1      -3.898  -2.193  -0.613  0.00  0.00    +0.000 A 
ATOM     39  C23 UNL     1      -2.963  -1.799   0.349  0.00  0.00    +0.000 A 
ENDBRANCH  31  34
BRANCH  32  40
ATOM     40  C15 UNL     1      -0.251  -4.092   2.002  0.00  0.00    +0.000 A 
ATOM     41  C16 UNL     1       0.561  -5.175   2.267  0.00  0.00    +0.000 A 
ATOM     42  O4  UNL     1      -0.223  -6.274   2.437  0.00  0.00    +0.000 OA
ATOM     43  C17 UNL     1      -1.487  -5.797   2.284  0.00  0.00    +0.000 A 
ATOM     44  N5  UNL     1      -1.573  -4.510   2.039  0.00  0.00    +0.000 NA
ENDBRANCH  32  40
ENDBRANCH   1  31
TORSDOF 9
