REMARK  Name = /home/anacleto/Desktop/manuscript_Mpro/naturecomm/supplementary_file_S2/6-chemical-library/molecular_docking/3D_ligand_structure/4953.pdb
REMARK  9 active torsions:
REMARK  status: ('A' for Active; 'I' for Inactive)
REMARK    1  A    between atoms: C6_6  and  C7_7
REMARK    2  A    between atoms: C7_7  and  C8_8
REMARK    3  A    between atoms: C8_8  and  N1_9
REMARK    4  A    between atoms: C9_10  and  C10_12
REMARK    5  A    between atoms: C10_12  and  C11_13
REMARK    6  A    between atoms: C10_12  and  N3_19
REMARK    7  A    between atoms: N3_19  and  C21_27
REMARK    8  A    between atoms: C16_20  and  C17_22
REMARK    9  A    between atoms: C26_32  and  C27_33
REMARK                            x       y       z     vdW  Elec       q    Type
REMARK                         _______ _______ _______ _____ _____    ______ ____
ROOT
ATOM      1  N3  UNL     1      -0.511  -1.882  -0.447  0.00  0.00    +0.000 N 
ATOM      2  C16 UNL     1      -0.587  -3.223  -0.893  0.00  0.00    +0.000 C 
ATOM      3  O2  UNL     1      -1.483  -3.581  -1.660  0.00  0.00    +0.000 OA
ENDROOT
BRANCH   1   4
ATOM      4  C21 UNL     1       0.725  -1.225  -0.126  0.00  0.00    +0.000 A 
ATOM      5  C22 UNL     1       0.784  -0.189   0.816  0.00  0.00    +0.000 A 
ATOM      6  C23 UNL     1       1.998   0.441   1.119  0.00  0.00    +0.000 A 
ATOM      7  C24 UNL     1       1.916  -1.589  -0.774  0.00  0.00    +0.000 A 
ATOM      8  C25 UNL     1       3.130  -0.959  -0.473  0.00  0.00    +0.000 A 
ATOM      9  C26 UNL     1       3.179   0.066   0.473  0.00  0.00    +0.000 A 
BRANCH   9  10
ATOM     10  C27 UNL     1       4.434   0.739   0.794  0.00  0.00    +0.000 A 
ATOM     11  N4  UNL     1       4.777   0.988   2.073  0.00  0.00    +0.000 NA
ATOM     12  N5  UNL     1       5.973   1.601   2.000  0.00  0.00    +0.000 N 
ATOM     13  C28 UNL     1       6.382   1.794   0.724  0.00  0.00    +0.000 A 
ATOM     14  C29 UNL     1       5.423   1.241  -0.092  0.00  0.00    +0.000 A 
ATOM     15  C30 UNL     1       7.615   2.450   0.237  0.00  0.00    +0.000 C 
ATOM     16  C31 UNL     1       7.399   2.802  -1.253  0.00  0.00    +0.000 C 
ATOM     17  O4  UNL     1       6.874   1.682  -1.995  0.00  0.00    +0.000 OA
ATOM     18  C32 UNL     1       5.536   1.308  -1.572  0.00  0.00    +0.000 C 
ATOM     19  H23 UNL     1       6.435   1.862   2.864  0.00  0.00    +0.000 HD
ENDBRANCH   9  10
ENDBRANCH   1   4
BRANCH   2  20
ATOM     20  C17 UNL     1       0.350  -4.190  -0.329  0.00  0.00    +0.000 A 
ATOM     21  C18 UNL     1       1.040  -4.258   0.870  0.00  0.00    +0.000 A 
ATOM     22  C19 UNL     1       1.782  -5.464   0.854  0.00  0.00    +0.000 A 
ATOM     23  C20 UNL     1       1.491  -6.073  -0.342  0.00  0.00    +0.000 A 
ATOM     24  O3  UNL     1       0.622  -5.319  -1.060  0.00  0.00    +0.000 OA
ENDBRANCH   2  20
BRANCH   1  25
ATOM     25  C10 UNL     1      -1.761  -1.093  -0.572  0.00  0.00    +0.000 C 
BRANCH  25  26
ATOM     26  C11 UNL     1      -2.741  -1.370   0.566  0.00  0.00    +0.000 A 
ATOM     27  C12 UNL     1      -2.352  -1.643   1.882  0.00  0.00    +0.000 A 
ATOM     28  C13 UNL     1      -3.315  -1.855   2.866  0.00  0.00    +0.000 A 
ATOM     29  C14 UNL     1      -4.648  -1.786   2.506  0.00  0.00    +0.000 A 
ATOM     30  N2  UNL     1      -5.068  -1.527   1.252  0.00  0.00    +0.000 NA
ATOM     31  C15 UNL     1      -4.114  -1.340   0.312  0.00  0.00    +0.000 A 
ENDBRANCH  25  26
BRANCH  25  33
ATOM     32  N1  UNL     1      -2.241   1.349  -0.194  0.00  0.00    +0.000 N 
ATOM     33  C9  UNL     1      -1.586   0.408  -0.966  0.00  0.00    +0.000 C 
ATOM     34  O1  UNL     1      -0.889   0.746  -1.926  0.00  0.00    +0.000 OA
ATOM     35  H10 UNL     1      -2.982   1.050   0.430  0.00  0.00    +0.000 HD
BRANCH  32  36
ATOM     36  C8  UNL     1      -2.245   2.756  -0.556  0.00  0.00    +0.000 C 
BRANCH  36  37
ATOM     37  C7  UNL     1      -3.127   3.071  -1.772  0.00  0.00    +0.000 C 
BRANCH  37  43
ATOM     38  C1  UNL     1      -5.411   3.119  -0.677  0.00  0.00    +0.000 A 
ATOM     39  C2  UNL     1      -6.704   2.618  -0.525  0.00  0.00    +0.000 A 
ATOM     40  C3  UNL     1      -7.144   1.564  -1.324  0.00  0.00    +0.000 A 
ATOM     41  C4  UNL     1      -6.294   1.014  -2.281  0.00  0.00    +0.000 A 
ATOM     42  C5  UNL     1      -5.000   1.511  -2.432  0.00  0.00    +0.000 A 
ATOM     43  C6  UNL     1      -4.544   2.565  -1.627  0.00  0.00    +0.000 A 
ENDBRANCH  37  43
ENDBRANCH  36  37
ENDBRANCH  32  36
ENDBRANCH  25  33
ENDBRANCH   1  25
TORSDOF 9
