REMARK  Name = /home/anacleto/Desktop/manuscript_Mpro/naturecomm/supplementary_file_S2/6-chemical-library/molecular_docking/3D_ligand_structure/4966.pdb
REMARK  2 active torsions:
REMARK  status: ('A' for Active; 'I' for Inactive)
REMARK    1  A    between atoms: C10_12  and  C11_13
REMARK    2  A    between atoms: C26_30  and  C27_31
REMARK                            x       y       z     vdW  Elec       q    Type
REMARK                         _______ _______ _______ _____ _____    ______ ____
ROOT
ATOM      1  C1  UNL     1       3.021   1.341   0.171  0.00  0.00    +0.000 C 
ATOM      2  C2  UNL     1       3.649   2.650   0.201  0.00  0.00    +0.000 C 
ATOM      3  C3  UNL     1       2.699   3.572   0.081  0.00  0.00    +0.000 C 
ATOM      4  C4  UNL     1       1.432   2.891  -0.028  0.00  0.00    +0.000 C 
ATOM      5  N1  UNL     1       1.677   1.555   0.030  0.00  0.00    +0.000 NA
ATOM      6  C5  UNL     1       0.298   3.604  -0.158  0.00  0.00    +0.000 C 
ATOM      7  C6  UNL     1      -1.114   2.949  -0.274  0.00  0.00    +0.000 A 
ATOM      8  C7  UNL     1      -2.296   3.636  -0.438  0.00  0.00    +0.000 A 
ATOM      9  C8  UNL     1      -3.337   2.674  -0.484  0.00  0.00    +0.000 A 
ATOM     10  C9  UNL     1      -2.758   1.429  -0.345  0.00  0.00    +0.000 A 
ATOM     11  N2  UNL     1      -1.400   1.608  -0.227  0.00  0.00    +0.000 N 
ATOM     12  C10 UNL     1      -3.510   0.034  -0.314  0.00  0.00    +0.000 C 
ATOM     13  C17 UNL     1      -2.811  -1.134  -0.284  0.00  0.00    +0.000 C 
ATOM     14  N3  UNL     1      -1.466  -1.360  -0.264  0.00  0.00    +0.000 NA
ATOM     15  C18 UNL     1      -1.197  -2.685  -0.347  0.00  0.00    +0.000 C 
ATOM     16  C19 UNL     1      -2.463  -3.454  -0.603  0.00  0.00    +0.000 C 
ATOM     17  C20 UNL     1      -3.534  -2.463  -0.230  0.00  0.00    +0.000 C 
ATOM     18  C21 UNL     1      -0.045  -3.381  -0.261  0.00  0.00    +0.000 C 
ATOM     19  C22 UNL     1       1.349  -2.731  -0.017  0.00  0.00    +0.000 A 
ATOM     20  C23 UNL     1       2.516  -3.422   0.220  0.00  0.00    +0.000 A 
ATOM     21  C24 UNL     1       3.551  -2.462   0.364  0.00  0.00    +0.000 A 
ATOM     22  C25 UNL     1       2.981  -1.214   0.210  0.00  0.00    +0.000 A 
ATOM     23  N4  UNL     1       1.635  -1.390  -0.008  0.00  0.00    +0.000 N 
ATOM     24  C26 UNL     1       3.731   0.185   0.268  0.00  0.00    +0.000 C 
ATOM     25  H6  UNL     1      -0.723   0.855  -0.124  0.00  0.00    +0.000 HD
ATOM     26  H19 UNL     1       0.961  -0.638  -0.135  0.00  0.00    +0.000 HD
ENDROOT
BRANCH  12  27
ATOM     27  C11 UNL     1      -4.990   0.041  -0.294  0.00  0.00    +0.000 A 
ATOM     28  C12 UNL     1      -5.712   0.077  -1.493  0.00  0.00    +0.000 A 
ATOM     29  C13 UNL     1      -7.108   0.093  -1.474  0.00  0.00    +0.000 A 
ATOM     30  C14 UNL     1      -7.789   0.075  -0.256  0.00  0.00    +0.000 A 
ATOM     31  C15 UNL     1      -7.075   0.040   0.943  0.00  0.00    +0.000 A 
ATOM     32  C16 UNL     1      -5.679   0.025   0.924  0.00  0.00    +0.000 A 
ENDBRANCH  12  27
BRANCH  24  33
ATOM     33  C27 UNL     1       5.204   0.181   0.415  0.00  0.00    +0.000 A 
ATOM     34  C28 UNL     1       6.026   0.104  -0.716  0.00  0.00    +0.000 A 
ATOM     35  C29 UNL     1       7.415   0.092  -0.578  0.00  0.00    +0.000 A 
ATOM     36  C30 UNL     1       7.990   0.155   0.692  0.00  0.00    +0.000 A 
ATOM     37  C31 UNL     1       7.177   0.232   1.824  0.00  0.00    +0.000 A 
ATOM     38  C32 UNL     1       5.788   0.244   1.685  0.00  0.00    +0.000 A 
ENDBRANCH  24  33
TORSDOF 2
