REMARK  Name = /home/anacleto/Desktop/manuscript_Mpro/naturecomm/supplementary_file_S2/6-chemical-library/molecular_docking/3D_ligand_structure/4979.pdb
REMARK  0 active torsions:
REMARK  status: ('A' for Active; 'I' for Inactive)
REMARK                            x       y       z     vdW  Elec       q    Type
REMARK                         _______ _______ _______ _____ _____    ______ ____
ROOT
ATOM      1  C1  UNL     1      -0.631   0.319  -0.013  0.00  0.00    +0.000 A 
ATOM      2  C2  UNL     1       0.631  -0.319   0.013  0.00  0.00    +0.000 A 
ATOM      3  C3  UNL     1       0.700  -1.737   0.092  0.00  0.00    +0.000 A 
ATOM      4  C4  UNL     1      -0.479  -2.525   0.147  0.00  0.00    +0.000 A 
ATOM      5  C5  UNL     1      -1.754  -1.881   0.121  0.00  0.00    +0.000 A 
ATOM      6  C6  UNL     1      -1.816  -0.465   0.042  0.00  0.00    +0.000 A 
ATOM      7  C7  UNL     1      -3.090   0.145   0.019  0.00  0.00    +0.000 A 
ATOM      8  C8  UNL     1      -4.280  -0.588   0.070  0.00  0.00    +0.000 A 
ATOM      9  C9  UNL     1      -4.226  -1.964   0.148  0.00  0.00    +0.000 A 
ATOM     10  C10 UNL     1      -2.984  -2.595   0.172  0.00  0.00    +0.000 A 
ATOM     11  C11 UNL     1      -3.193   1.614  -0.063  0.00  0.00    +0.000 C 
ATOM     12  O1  UNL     1      -4.287   2.167  -0.085  0.00  0.00    +0.000 OA
ATOM     13  C12 UNL     1      -1.946   2.401  -0.119  0.00  0.00    +0.000 A 
ATOM     14  C13 UNL     1      -0.700   1.737  -0.092  0.00  0.00    +0.000 A 
ATOM     15  C14 UNL     1       0.479   2.525  -0.147  0.00  0.00    +0.000 A 
ATOM     16  C15 UNL     1       0.326   3.938  -0.225  0.00  0.00    +0.000 A 
ATOM     17  C16 UNL     1      -0.918   4.564  -0.250  0.00  0.00    +0.000 A 
ATOM     18  C17 UNL     1      -2.060   3.793  -0.196  0.00  0.00    +0.000 A 
ATOM     19  C18 UNL     1       1.754   1.881  -0.121  0.00  0.00    +0.000 A 
ATOM     20  C19 UNL     1       1.816   0.465  -0.042  0.00  0.00    +0.000 A 
ATOM     21  C20 UNL     1       3.090  -0.145  -0.019  0.00  0.00    +0.000 A 
ATOM     22  C21 UNL     1       4.280   0.588  -0.070  0.00  0.00    +0.000 A 
ATOM     23  C22 UNL     1       4.226   1.964  -0.148  0.00  0.00    +0.000 A 
ATOM     24  C23 UNL     1       2.984   2.595  -0.172  0.00  0.00    +0.000 A 
ATOM     25  C24 UNL     1       3.193  -1.614   0.063  0.00  0.00    +0.000 C 
ATOM     26  O2  UNL     1       4.287  -2.167   0.085  0.00  0.00    +0.000 OA
ATOM     27  C25 UNL     1       1.946  -2.401   0.119  0.00  0.00    +0.000 A 
ATOM     28  C26 UNL     1       2.060  -3.793   0.196  0.00  0.00    +0.000 A 
ATOM     29  C27 UNL     1       0.918  -4.564   0.250  0.00  0.00    +0.000 A 
ATOM     30  C28 UNL     1      -0.326  -3.938   0.225  0.00  0.00    +0.000 A 
ENDROOT
TORSDOF 0
