REMARK  Name = /home/anacleto/Desktop/manuscript_Mpro/naturecomm/supplementary_file_S2/6-chemical-library/molecular_docking/3D_ligand_structure/4983.pdb
REMARK  5 active torsions:
REMARK  status: ('A' for Active; 'I' for Inactive)
REMARK    1  A    between atoms: C5_6  and  O2_7
REMARK    2  A    between atoms: O2_7  and  C6_8
REMARK    3  A    between atoms: C12_14  and  C20_23
REMARK    4  A    between atoms: C33_37  and  O5_38
REMARK    5  A    between atoms: O5_38  and  C34_39
REMARK                            x       y       z     vdW  Elec       q    Type
REMARK                         _______ _______ _______ _____ _____    ______ ____
ROOT
ATOM      1  C6  UNL     1      -3.782  -0.404   0.050  0.00  0.00    +0.000 A 
ATOM      2  C7  UNL     1      -4.761   0.147  -0.782  0.00  0.00    +0.000 A 
ATOM      3  C8  UNL     1      -4.486   0.397  -2.122  0.00  0.00    +0.000 A 
ATOM      4  C9  UNL     1      -3.236   0.086  -2.650  0.00  0.00    +0.000 A 
ATOM      5  C10 UNL     1      -2.234  -0.466  -1.836  0.00  0.00    +0.000 A 
ATOM      6  C11 UNL     1      -2.513  -0.706  -0.477  0.00  0.00    +0.000 A 
ATOM      7  C12 UNL     1      -0.868  -0.768  -2.446  0.00  0.00    +0.000 C 
ATOM      8  C13 UNL     1      -0.084  -1.802  -1.653  0.00  0.00    +0.000 A 
ATOM      9  C14 UNL     1      -0.319  -1.984  -0.284  0.00  0.00    +0.000 A 
ATOM     10  C15 UNL     1      -1.436  -1.274   0.382  0.00  0.00    +0.000 C 
ATOM     11  O3  UNL     1      -1.454  -1.190   1.606  0.00  0.00    +0.000 OA
ATOM     12  C16 UNL     1       0.464  -2.872   0.465  0.00  0.00    +0.000 A 
ATOM     13  C17 UNL     1       1.473  -3.608  -0.152  0.00  0.00    +0.000 A 
ATOM     14  C18 UNL     1       1.691  -3.467  -1.518  0.00  0.00    +0.000 A 
ATOM     15  C19 UNL     1       0.917  -2.576  -2.266  0.00  0.00    +0.000 A 
ENDROOT
BRANCH   7  16
ATOM     16  C20 UNL     1      -0.073   0.565  -2.752  0.00  0.00    +0.000 C 
ATOM     17  C21 UNL     1       0.857   0.400  -3.945  0.00  0.00    +0.000 A 
ATOM     18  C22 UNL     1       2.236   0.249  -3.757  0.00  0.00    +0.000 A 
ATOM     19  C23 UNL     1       2.807   0.319  -2.393  0.00  0.00    +0.000 C 
ATOM     20  O4  UNL     1       3.890  -0.206  -2.170  0.00  0.00    +0.000 OA
ATOM     21  C24 UNL     1       3.086   0.033  -4.845  0.00  0.00    +0.000 A 
ATOM     22  C25 UNL     1       2.566  -0.006  -6.138  0.00  0.00    +0.000 A 
ATOM     23  C26 UNL     1       1.197   0.159  -6.343  0.00  0.00    +0.000 A 
ATOM     24  C27 UNL     1       0.345   0.357  -5.255  0.00  0.00    +0.000 A 
ATOM     25  C28 UNL     1       0.628   1.176  -1.543  0.00  0.00    +0.000 A 
ATOM     26  C29 UNL     1       2.015   1.024  -1.351  0.00  0.00    +0.000 A 
ATOM     27  C30 UNL     1      -0.115   1.893  -0.589  0.00  0.00    +0.000 A 
ATOM     28  C31 UNL     1       0.503   2.433   0.537  0.00  0.00    +0.000 A 
ATOM     29  C32 UNL     1       1.873   2.275   0.723  0.00  0.00    +0.000 A 
ATOM     30  C33 UNL     1       2.629   1.563  -0.212  0.00  0.00    +0.000 A 
BRANCH  30  31
ATOM     31  O5  UNL     1       3.987   1.499  -0.064  0.00  0.00    +0.000 OA
BRANCH  31  32
ATOM     32  C34 UNL     1       4.382   0.752   1.097  0.00  0.00    +0.000 C 
ATOM     33  C35 UNL     1       5.598  -0.093   0.707  0.00  0.00    +0.000 C 
ATOM     34  C36 UNL     1       6.186  -0.806   1.917  0.00  0.00    +0.000 C 
ATOM     35  C37 UNL     1       6.437   0.184   3.049  0.00  0.00    +0.000 C 
ATOM     36  C38 UNL     1       5.180   0.994   3.328  0.00  0.00    +0.000 C 
ATOM     37  O6  UNL     1       4.734   1.660   2.153  0.00  0.00    +0.000 OA
ENDBRANCH  31  32
ENDBRANCH  30  31
ENDBRANCH   7  16
BRANCH   1  38
ATOM     38  O2  UNL     1      -4.061  -0.772   1.338  0.00  0.00    +0.000 OA
BRANCH  38  44
ATOM     39  O1  UNL     1      -6.223  -0.027   1.944  0.00  0.00    +0.000 OA
ATOM     40  C1  UNL     1      -6.998   0.978   2.600  0.00  0.00    +0.000 C 
ATOM     41  C2  UNL     1      -6.437   1.395   3.961  0.00  0.00    +0.000 C 
ATOM     42  C3  UNL     1      -5.594   0.282   4.558  0.00  0.00    +0.000 C 
ATOM     43  C4  UNL     1      -4.471  -0.116   3.597  0.00  0.00    +0.000 C 
ATOM     44  C5  UNL     1      -4.818   0.155   2.125  0.00  0.00    +0.000 C 
ENDBRANCH  38  44
ENDBRANCH   1  38
TORSDOF 5
