REMARK  Name = /home/anacleto/Desktop/manuscript_Mpro/naturecomm/supplementary_file_S2/6-chemical-library/molecular_docking/3D_ligand_structure/4984.pdb
REMARK  3 active torsions:
REMARK  status: ('A' for Active; 'I' for Inactive)
REMARK    1  A    between atoms: C6_6  and  C7_7
REMARK    2  A    between atoms: C21_24  and  C22_25
REMARK    3  A    between atoms: C32_36  and  C33_37
REMARK                            x       y       z     vdW  Elec       q    Type
REMARK                         _______ _______ _______ _____ _____    ______ ____
ROOT
ATOM      1  C7  UNL     1      -3.613  -0.876   0.523  0.00  0.00    +0.000 C 
ATOM      2  C8  UNL     1      -2.941   0.301   0.408  0.00  0.00    +0.000 C 
ATOM      3  N1  UNL     1      -1.610   0.576   0.220  0.00  0.00    +0.000 NA
ATOM      4  C9  UNL     1      -3.624   1.577   0.467  0.00  0.00    +0.000 C 
ATOM      5  C10 UNL     1      -2.724   2.541   0.317  0.00  0.00    +0.000 C 
ATOM      6  C11 UNL     1      -1.418   1.930   0.158  0.00  0.00    +0.000 C 
ATOM      7  C12 UNL     1      -2.842  -2.258   0.422  0.00  0.00    +0.000 A 
ATOM      8  C13 UNL     1      -3.373  -3.512   0.648  0.00  0.00    +0.000 A 
ATOM      9  C14 UNL     1      -2.345  -4.459   0.411  0.00  0.00    +0.000 A 
ATOM     10  C15 UNL     1      -1.220  -3.752   0.052  0.00  0.00    +0.000 A 
ATOM     11  N2  UNL     1      -1.520  -2.415   0.086  0.00  0.00    +0.000 N 
ATOM     12  C16 UNL     1       0.151  -4.378  -0.333  0.00  0.00    +0.000 C 
ATOM     13  C17 UNL     1       1.281  -3.657  -0.475  0.00  0.00    +0.000 C 
ATOM     14  N3  UNL     1       1.530  -2.331  -0.347  0.00  0.00    +0.000 NA
ATOM     15  C18 UNL     1       2.865  -2.079  -0.447  0.00  0.00    +0.000 C 
ATOM     16  C19 UNL     1       3.613  -3.395  -0.511  0.00  0.00    +0.000 C 
ATOM     17  C20 UNL     1       2.535  -4.385  -0.867  0.00  0.00    +0.000 C 
ATOM     18  C21 UNL     1       3.541  -0.899  -0.466  0.00  0.00    +0.000 C 
ATOM     19  C28 UNL     1       2.774   0.487  -0.382  0.00  0.00    +0.000 A 
ATOM     20  C29 UNL     1       3.358   1.735  -0.458  0.00  0.00    +0.000 A 
ATOM     21  C30 UNL     1       2.325   2.694  -0.334  0.00  0.00    +0.000 A 
ATOM     22  C31 UNL     1       1.135   2.009  -0.186  0.00  0.00    +0.000 A 
ATOM     23  N4  UNL     1       1.419   0.663  -0.215  0.00  0.00    +0.000 N 
ATOM     24  C32 UNL     1      -0.297   2.679  -0.014  0.00  0.00    +0.000 C 
ATOM     25  H10 UNL     1      -0.867  -1.657  -0.101  0.00  0.00    +0.000 HD
ATOM     26  H23 UNL     1       0.741  -0.090  -0.128  0.00  0.00    +0.000 HD
ENDROOT
BRANCH   1  32
ATOM     27  C1  UNL     1      -5.935  -1.076  -0.379  0.00  0.00    +0.000 A 
ATOM     28  C2  UNL     1      -7.318  -1.133  -0.195  0.00  0.00    +0.000 A 
ATOM     29  C3  UNL     1      -7.854  -1.040   1.090  0.00  0.00    +0.000 A 
ATOM     30  C4  UNL     1      -7.010  -0.888   2.191  0.00  0.00    +0.000 A 
ATOM     31  C5  UNL     1      -5.627  -0.831   2.006  0.00  0.00    +0.000 A 
ATOM     32  C6  UNL     1      -5.081  -0.924   0.720  0.00  0.00    +0.000 A 
ENDBRANCH   1  32
BRANCH  18  33
ATOM     33  C22 UNL     1       5.020  -0.872  -0.549  0.00  0.00    +0.000 A 
ATOM     34  C23 UNL     1       5.795  -0.966   0.612  0.00  0.00    +0.000 A 
ATOM     35  C24 UNL     1       7.189  -0.932   0.534  0.00  0.00    +0.000 A 
ATOM     36  C25 UNL     1       7.814  -0.802  -0.707  0.00  0.00    +0.000 A 
ATOM     37  C26 UNL     1       7.048  -0.707  -1.870  0.00  0.00    +0.000 A 
ATOM     38  C27 UNL     1       5.654  -0.741  -1.791  0.00  0.00    +0.000 A 
ENDBRANCH  18  33
BRANCH  24  39
ATOM     39  C33 UNL     1      -0.359   4.162  -0.052  0.00  0.00    +0.000 A 
ATOM     40  C34 UNL     1      -0.242   4.906   1.128  0.00  0.00    +0.000 A 
ATOM     41  C35 UNL     1      -0.291   6.300   1.090  0.00  0.00    +0.000 A 
ATOM     42  C36 UNL     1      -0.458   6.959  -0.129  0.00  0.00    +0.000 A 
ATOM     43  C37 UNL     1      -0.576   6.224  -1.310  0.00  0.00    +0.000 A 
ATOM     44  C38 UNL     1      -0.527   4.830  -1.272  0.00  0.00    +0.000 A 
ENDBRANCH  24  39
TORSDOF 3
