REMARK  Name = /home/anacleto/Desktop/manuscript_Mpro/naturecomm/supplementary_file_S2/6-chemical-library/molecular_docking/3D_ligand_structure/499.pdb
REMARK  6 active torsions:
REMARK  status: ('A' for Active; 'I' for Inactive)
REMARK    1  A    between atoms: C5_6  and  N2_7
REMARK    2  A    between atoms: N2_7  and  C6_8
REMARK    3  A    between atoms: C6_8  and  C7_9
REMARK    4  A    between atoms: N3_11  and  C8_12
REMARK    5  A    between atoms: C8_12  and  C9_13
REMARK    6  A    between atoms: C9_13  and  C10_14
REMARK                            x       y       z     vdW  Elec       q    Type
REMARK                         _______ _______ _______ _____ _____    ______ ____
ROOT
ATOM      1  C7  UNL     1      -0.159   1.340  -0.521  0.00  0.00    +0.000 C 
ATOM      2  O1  UNL     1      -0.770   2.298  -0.986  0.00  0.00    +0.000 OA
ATOM      3  N3  UNL     1      -0.748   0.142  -0.182  0.00  0.00    +0.000 N 
ATOM      4  H14 UNL     1      -0.098  -0.596   0.081  0.00  0.00    +0.000 HD
ENDROOT
BRANCH   1   5
ATOM      5  C6  UNL     1       1.343   1.392  -0.206  0.00  0.00    +0.000 C 
BRANCH   5   6
ATOM      6  N2  UNL     1       1.927   0.034  -0.289  0.00  0.00    +0.000 NA
ATOM      7  H11 UNL     1       1.928  -0.246  -1.273  0.00  0.00    +0.000 HD
BRANCH   6  13
ATOM      8  C1  UNL     1       4.321   0.814  -0.531  0.00  0.00    +0.000 C 
ATOM      9  C2  UNL     1       5.710   0.698   0.111  0.00  0.00    +0.000 C 
ATOM     10  N1  UNL     1       6.011  -0.605   0.714  0.00  0.00    +0.000 NA
ATOM     11  C3  UNL     1       5.251  -1.681   0.090  0.00  0.00    +0.000 C 
ATOM     12  C4  UNL     1       3.743  -1.506   0.275  0.00  0.00    +0.000 C 
ATOM     13  C5  UNL     1       3.300  -0.029   0.240  0.00  0.00    +0.000 C 
ATOM     14  H5  UNL     1       5.789  -0.574   1.712  0.00  0.00    +0.000 HD
ENDBRANCH   6  13
ENDBRANCH   5   6
ENDBRANCH   1   5
BRANCH   3  15
ATOM     15  C8  UNL     1      -2.131  -0.168  -0.473  0.00  0.00    +0.000 C 
BRANCH  15  16
ATOM     16  C9  UNL     1      -3.111   0.590   0.426  0.00  0.00    +0.000 C 
BRANCH  16  17
ATOM     17  C10 UNL     1      -4.537   0.168   0.175  0.00  0.00    +0.000 A 
ATOM     18  C11 UNL     1      -5.164  -0.769   1.008  0.00  0.00    +0.000 A 
ATOM     19  C12 UNL     1      -6.480  -1.165   0.760  0.00  0.00    +0.000 A 
ATOM     20  C13 UNL     1      -7.177  -0.637  -0.328  0.00  0.00    +0.000 A 
ATOM     21  C14 UNL     1      -6.560   0.290  -1.166  0.00  0.00    +0.000 A 
ATOM     22  C15 UNL     1      -5.246   0.690  -0.917  0.00  0.00    +0.000 A 
ENDBRANCH  16  17
ENDBRANCH  15  16
ENDBRANCH   3  15
TORSDOF 6
