REMARK  Name = /home/anacleto/Desktop/manuscript_Mpro/naturecomm/supplementary_file_S2/6-chemical-library/molecular_docking/3D_ligand_structure/50.pdb
REMARK  0 active torsions:
REMARK  status: ('A' for Active; 'I' for Inactive)
REMARK                            x       y       z     vdW  Elec       q    Type
REMARK                         _______ _______ _______ _____ _____    ______ ____
ROOT
ATOM      1  O1  UNL     1       2.508  -0.815  -0.092  0.00  0.00    +0.000 OA
ATOM      2  C1  UNL     1       1.340  -0.446  -0.050  0.00  0.00    +0.000 A 
ATOM      3  C2  UNL     1       0.988   0.996   0.036  0.00  0.00    +0.000 A 
ATOM      4  C3  UNL     1      -0.302   1.361   0.081  0.00  0.00    +0.000 A 
ATOM      5  C4  UNL     1      -1.351   0.368   0.045  0.00  0.00    +0.000 A 
ATOM      6  C5  UNL     1      -1.036  -0.931  -0.032  0.00  0.00    +0.000 A 
ATOM      7  N1  UNL     1       0.279  -1.320  -0.078  0.00  0.00    +0.000 N 
ATOM      8  H5  UNL     1       0.520  -2.302  -0.137  0.00  0.00    +0.000 HD
ENDROOT
TORSDOF 0
