REMARK  Name = /home/anacleto/Desktop/manuscript_Mpro/naturecomm/supplementary_file_S2/6-chemical-library/molecular_docking/3D_ligand_structure/506.pdb
REMARK  5 active torsions:
REMARK  status: ('A' for Active; 'I' for Inactive)
REMARK    1  A    between atoms: C3_5  and  C4_6
REMARK    2  A    between atoms: N2_8  and  C5_9
REMARK    3  A    between atoms: C5_9  and  C6_10
REMARK    4  A    between atoms: N3_12  and  C7_13
REMARK    5  A    between atoms: C7_13  and  C8_14
REMARK                            x       y       z     vdW  Elec       q    Type
REMARK                         _______ _______ _______ _____ _____    ______ ____
ROOT
ATOM      1  C6  UNL     1      -0.106   2.291   1.354  0.00  0.00    +0.000 C 
ATOM      2  O3  UNL     1      -1.089   2.919   0.971  0.00  0.00    +0.000 OA
ATOM      3  N3  UNL     1      -0.166   1.144   2.122  0.00  0.00    +0.000 N 
ATOM      4  H6  UNL     1       0.682   0.581   2.145  0.00  0.00    +0.000 HD
ENDROOT
BRANCH   1   5
ATOM      5  C5  UNL     1       1.306   2.624   0.879  0.00  0.00    +0.000 C 
BRANCH   5   8
ATOM      6  C4  UNL     1       1.999   0.493  -0.130  0.00  0.00    +0.000 C 
ATOM      7  O2  UNL     1       2.294   0.068   0.987  0.00  0.00    +0.000 OA
ATOM      8  N2  UNL     1       1.580   1.804  -0.292  0.00  0.00    +0.000 N 
ATOM      9  H3  UNL     1       1.068   2.042  -1.131  0.00  0.00    +0.000 HD
BRANCH   6  14
ATOM     10  O1  UNL     1       2.421  -1.612  -1.197  0.00  0.00    +0.000 OA
ATOM     11  N1  UNL     1       2.384  -2.244  -2.430  0.00  0.00    +0.000 NA
ATOM     12  C1  UNL     1       1.960  -1.314  -3.286  0.00  0.00    +0.000 A 
ATOM     13  C2  UNL     1       1.716  -0.082  -2.653  0.00  0.00    +0.000 A 
ATOM     14  C3  UNL     1       2.020  -0.312  -1.327  0.00  0.00    +0.000 A 
ENDBRANCH   6  14
ENDBRANCH   5   8
ENDBRANCH   1   5
BRANCH   3  15
ATOM     15  C7  UNL     1      -1.407   0.417   2.253  0.00  0.00    +0.000 C 
BRANCH  15  16
ATOM     16  C8  UNL     1      -1.622  -0.462   1.044  0.00  0.00    +0.000 A 
ATOM     17  C9  UNL     1      -2.488  -0.061   0.017  0.00  0.00    +0.000 A 
ATOM     18  C10 UNL     1      -2.639  -0.844  -1.129  0.00  0.00    +0.000 A 
ATOM     19  C11 UNL     1      -1.920  -2.030  -1.265  0.00  0.00    +0.000 A 
ATOM     20  C12 UNL     1      -1.049  -2.435  -0.256  0.00  0.00    +0.000 A 
ATOM     21  C13 UNL     1      -0.900  -1.656   0.894  0.00  0.00    +0.000 A 
ENDBRANCH  15  16
ENDBRANCH   3  15
TORSDOF 5
