REMARK  Name = /home/anacleto/Desktop/manuscript_Mpro/naturecomm/supplementary_file_S2/6-chemical-library/molecular_docking/3D_ligand_structure/523.pdb
REMARK  7 active torsions:
REMARK  status: ('A' for Active; 'I' for Inactive)
REMARK    1  A    between atoms: C6_6  and  C7_7
REMARK    2  A    between atoms: C7_7  and  C8_9
REMARK    3  A    between atoms: C8_9  and  C9_10
REMARK    4  A    between atoms: C9_10  and  N1_11
REMARK    5  A    between atoms: N1_11  and  C10_12
REMARK    6  A    between atoms: C10_12  and  C11_13
REMARK    7  A    between atoms: C11_13  and  C12_14
REMARK                            x       y       z     vdW  Elec       q    Type
REMARK                         _______ _______ _______ _____ _____    ______ ____
ROOT
ATOM      1  C9  UNL     1      -0.896   1.489  -0.093  0.00  0.00    +0.000 C 
ENDROOT
BRANCH   1   2
ATOM      2  N1  UNL     1      -0.290   0.797   1.044  0.00  0.00    +0.000 NA
ATOM      3  H10 UNL     1      -0.153   1.458   1.808  0.00  0.00    +0.000 HD
BRANCH   2   4
ATOM      4  C10 UNL     1       0.982   0.118   0.763  0.00  0.00    +0.000 C 
BRANCH   4   5
ATOM      5  C11 UNL     1       2.124   1.057   0.345  0.00  0.00    +0.000 C 
BRANCH   5   6
ATOM      6  C12 UNL     1       3.435   0.321   0.203  0.00  0.00    +0.000 A 
ATOM      7  C13 UNL     1       3.692  -0.455  -0.935  0.00  0.00    +0.000 A 
ATOM      8  C14 UNL     1       4.898  -1.147  -1.062  0.00  0.00    +0.000 A 
ATOM      9  C15 UNL     1       5.856  -1.070  -0.053  0.00  0.00    +0.000 A 
ATOM     10  C16 UNL     1       5.608  -0.304   1.084  0.00  0.00    +0.000 A 
ATOM     11  C17 UNL     1       4.403   0.388   1.214  0.00  0.00    +0.000 A 
ENDBRANCH   5   6
ENDBRANCH   4   5
ENDBRANCH   2   4
ENDBRANCH   1   2
BRANCH   1  12
ATOM     12  C8  UNL     1      -1.195   0.632  -1.325  0.00  0.00    +0.000 C 
BRANCH  12  13
ATOM     13  C7  UNL     1      -1.975  -0.636  -1.036  0.00  0.00    +0.000 C 
ATOM     14  O1  UNL     1      -1.539  -1.738  -1.371  0.00  0.00    +0.000 OA
BRANCH  13  20
ATOM     15  C1  UNL     1      -4.150   0.551  -0.531  0.00  0.00    +0.000 A 
ATOM     16  C2  UNL     1      -5.399   0.570   0.094  0.00  0.00    +0.000 A 
ATOM     17  C3  UNL     1      -5.815  -0.517   0.863  0.00  0.00    +0.000 A 
ATOM     18  C4  UNL     1      -4.987  -1.629   1.005  0.00  0.00    +0.000 A 
ATOM     19  C5  UNL     1      -3.739  -1.653   0.381  0.00  0.00    +0.000 A 
ATOM     20  C6  UNL     1      -3.310  -0.559  -0.380  0.00  0.00    +0.000 A 
ENDBRANCH  13  20
ENDBRANCH  12  13
ENDBRANCH   1  12
TORSDOF 7
