REMARK  Name = /home/anacleto/Desktop/manuscript_Mpro/naturecomm/supplementary_file_S2/6-chemical-library/molecular_docking/3D_ligand_structure/535.pdb
REMARK  3 active torsions:
REMARK  status: ('A' for Active; 'I' for Inactive)
REMARK    1  A    between atoms: N2_5  and  C5_9
REMARK    2  A    between atoms: C5_9  and  C6_10
REMARK    3  A    between atoms: C6_10  and  N3_11
REMARK                            x       y       z     vdW  Elec       q    Type
REMARK                         _______ _______ _______ _____ _____    ______ ____
ROOT
ATOM      1  C5  UNL     1       0.792  -0.156   0.610  0.00  0.00    +0.000 C 
ENDROOT
BRANCH   1   6
ATOM      2  N1  UNL     1       3.188   1.218  -1.213  0.00  0.00    +0.000 N 
ATOM      3  C1  UNL     1       2.354   0.474  -2.009  0.00  0.00    +0.000 C 
ATOM      4  O1  UNL     1       2.013   0.876  -3.118  0.00  0.00    +0.000 OA
ATOM      5  C2  UNL     1       1.933  -0.889  -1.465  0.00  0.00    +0.000 C 
ATOM      6  N2  UNL     1       1.897  -0.933   0.011  0.00  0.00    +0.000 NA
ATOM      7  C3  UNL     1       3.212  -0.511   0.546  0.00  0.00    +0.000 C 
ATOM      8  C4  UNL     1       3.651   0.857   0.028  0.00  0.00    +0.000 C 
ATOM      9  O2  UNL     1       4.417   1.588   0.651  0.00  0.00    +0.000 OA
ATOM     10  H1  UNL     1       3.484   2.114  -1.571  0.00  0.00    +0.000 HD
ENDBRANCH   1   6
BRANCH   1  11
ATOM     11  C6  UNL     1      -0.606  -0.776   0.345  0.00  0.00    +0.000 C 
BRANCH  11  12
ATOM     12  N3  UNL     1      -1.679  -0.166   1.159  0.00  0.00    +0.000 NA
ATOM     13  C7  UNL     1      -2.915  -0.980   1.129  0.00  0.00    +0.000 C 
ATOM     14  C8  UNL     1      -3.641  -0.904  -0.213  0.00  0.00    +0.000 C 
ATOM     15  O3  UNL     1      -4.374  -1.802  -0.622  0.00  0.00    +0.000 OA
ATOM     16  C9  UNL     1      -2.000   1.227   0.784  0.00  0.00    +0.000 C 
ATOM     17  C10 UNL     1      -2.713   1.330  -0.562  0.00  0.00    +0.000 C 
ATOM     18  O4  UNL     1      -2.652   2.334  -1.267  0.00  0.00    +0.000 OA
ATOM     19  N4  UNL     1      -3.481   0.254  -0.931  0.00  0.00    +0.000 N 
ATOM     20  H14 UNL     1      -3.968   0.319  -1.812  0.00  0.00    +0.000 HD
ENDBRANCH  11  12
ENDBRANCH   1  11
TORSDOF 3
