REMARK  Name = /home/anacleto/Desktop/manuscript_Mpro/naturecomm/supplementary_file_S2/6-chemical-library/molecular_docking/3D_ligand_structure/542.pdb
REMARK  4 active torsions:
REMARK  status: ('A' for Active; 'I' for Inactive)
REMARK    1  A    between atoms: C6_6  and  N1_7
REMARK    2  A    between atoms: C7_8  and  C8_10
REMARK    3  A    between atoms: C8_10  and  N2_11
REMARK    4  A    between atoms: C9_12  and  C10_14
REMARK                            x       y       z     vdW  Elec       q    Type
REMARK                         _______ _______ _______ _____ _____    ______ ____
ROOT
ATOM      1  C8  UNL     1       1.532   0.451  -1.479  0.00  0.00    +0.000 C 
ENDROOT
BRANCH   1   3
ATOM      2  N1  UNL     1      -0.808   0.296  -0.789  0.00  0.00    +0.000 N 
ATOM      3  C7  UNL     1       0.433  -0.306  -0.726  0.00  0.00    +0.000 C 
ATOM      4  O1  UNL     1       0.635  -1.377  -0.158  0.00  0.00    +0.000 OA
ATOM      5  H12 UNL     1      -0.924   1.118  -1.369  0.00  0.00    +0.000 HD
BRANCH   2  11
ATOM      6  C1  UNL     1      -2.587  -1.353  -1.191  0.00  0.00    +0.000 C 
ATOM      7  C2  UNL     1      -3.873  -1.969  -0.646  0.00  0.00    +0.000 C 
ATOM      8  C3  UNL     1      -4.897  -0.900  -0.275  0.00  0.00    +0.000 C 
ATOM      9  C4  UNL     1      -4.313   0.126   0.691  0.00  0.00    +0.000 C 
ATOM     10  C5  UNL     1      -3.030   0.746   0.146  0.00  0.00    +0.000 C 
ATOM     11  C6  UNL     1      -1.994  -0.324  -0.219  0.00  0.00    +0.000 C 
ENDBRANCH   2  11
ENDBRANCH   1   3
BRANCH   1  12
ATOM     12  N2  UNL     1       2.817   0.224  -0.863  0.00  0.00    +0.000 N 
ATOM     13  C9  UNL     1       3.295   1.066   0.115  0.00  0.00    +0.000 C 
ATOM     14  O2  UNL     1       2.804   2.161   0.374  0.00  0.00    +0.000 OA
ATOM     15  H15 UNL     1       3.172  -0.728  -0.807  0.00  0.00    +0.000 HD
BRANCH  13  16
ATOM     16  C10 UNL     1       4.448   0.511   0.825  0.00  0.00    +0.000 A 
ATOM     17  C11 UNL     1       5.148   1.100   1.860  0.00  0.00    +0.000 A 
ATOM     18  N3  UNL     1       6.121   0.203   2.199  0.00  0.00    +0.000 N 
ATOM     19  C12 UNL     1       5.991  -0.881   1.378  0.00  0.00    +0.000 A 
ATOM     20  N4  UNL     1       4.995  -0.732   0.535  0.00  0.00    +0.000 NA
ATOM     21  H17 UNL     1       6.813   0.314   2.928  0.00  0.00    +0.000 HD
ENDBRANCH  13  16
ENDBRANCH   1  12
TORSDOF 4
