REMARK  Name = /home/anacleto/Desktop/manuscript_Mpro/naturecomm/supplementary_file_S2/6-chemical-library/molecular_docking/3D_ligand_structure/548.pdb
REMARK  3 active torsions:
REMARK  status: ('A' for Active; 'I' for Inactive)
REMARK    1  A    between atoms: C3_8  and  C4_9
REMARK    2  A    between atoms: N4_11  and  C5_12
REMARK    3  A    between atoms: C5_12  and  C6_13
REMARK                            x       y       z     vdW  Elec       q    Type
REMARK                         _______ _______ _______ _____ _____    ______ ____
ROOT
ATOM      1  C4  UNL     1      -0.777  -1.168  -0.339  0.00  0.00    +0.000 C 
ATOM      2  O3  UNL     1      -0.498  -1.945  -1.242  0.00  0.00    +0.000 OA
ATOM      3  N4  UNL     1       0.054  -0.885   0.722  0.00  0.00    +0.000 N 
ATOM      4  H3  UNL     1      -0.265  -0.246   1.449  0.00  0.00    +0.000 HD
ENDROOT
BRANCH   1  12
ATOM      5  N1  UNL     1      -2.703  -0.262  -1.503  0.00  0.00    +0.000 NA
ATOM      6  N2  UNL     1      -3.915   0.369  -1.514  0.00  0.00    +0.000 N 
ATOM      7  C1  UNL     1      -4.628   0.762  -0.412  0.00  0.00    +0.000 A 
ATOM      8  O1  UNL     1      -5.701   1.350  -0.498  0.00  0.00    +0.000 OA
ATOM      9  N3  UNL     1      -4.061   0.490   0.794  0.00  0.00    +0.000 N 
ATOM     10  C2  UNL     1      -2.765   0.087   0.917  0.00  0.00    +0.000 A 
ATOM     11  O2  UNL     1      -2.120   0.170   1.954  0.00  0.00    +0.000 OA
ATOM     12  C3  UNL     1      -2.118  -0.436  -0.348  0.00  0.00    +0.000 A 
ATOM     13  H1  UNL     1      -4.333   0.535  -2.426  0.00  0.00    +0.000 HD
ATOM     14  H2  UNL     1      -4.516   0.887   1.601  0.00  0.00    +0.000 HD
ENDBRANCH   1  12
BRANCH   3  15
ATOM     15  C5  UNL     1       1.390  -1.423   0.820  0.00  0.00    +0.000 C 
BRANCH  15  16
ATOM     16  C6  UNL     1       2.406  -0.424   0.352  0.00  0.00    +0.000 A 
ATOM     17  C7  UNL     1       2.645  -0.213  -1.009  0.00  0.00    +0.000 A 
ATOM     18  C8  UNL     1       3.583   0.735  -1.408  0.00  0.00    +0.000 A 
ATOM     19  C9  UNL     1       4.250   1.448  -0.427  0.00  0.00    +0.000 A 
ATOM     20  N5  UNL     1       4.043   1.279   0.897  0.00  0.00    +0.000 NA
ATOM     21  C10 UNL     1       3.127   0.351   1.254  0.00  0.00    +0.000 A 
ENDBRANCH  15  16
ENDBRANCH   3  15
TORSDOF 3
