REMARK  Name = /home/anacleto/Desktop/manuscript_Mpro/naturecomm/supplementary_file_S2/6-chemical-library/molecular_docking/3D_ligand_structure/552.pdb
REMARK  3 active torsions:
REMARK  status: ('A' for Active; 'I' for Inactive)
REMARK    1  A    between atoms: C4_8  and  C5_9
REMARK    2  A    between atoms: N3_11  and  C6_12
REMARK    3  A    between atoms: C6_12  and  C7_13
REMARK                            x       y       z     vdW  Elec       q    Type
REMARK                         _______ _______ _______ _____ _____    ______ ____
ROOT
ATOM      1  C5  UNL     1      -1.138  -0.916   0.774  0.00  0.00    +0.000 C 
ATOM      2  O3  UNL     1      -1.359  -1.922   1.443  0.00  0.00    +0.000 OA
ATOM      3  N3  UNL     1       0.120  -0.512   0.412  0.00  0.00    +0.000 N 
ATOM      4  H4  UNL     1       0.245   0.179  -0.315  0.00  0.00    +0.000 HD
ENDROOT
BRANCH   1  12
ATOM      5  N1  UNL     1      -3.513  -0.721   0.255  0.00  0.00    +0.000 N 
ATOM      6  C1  UNL     1      -4.669  -0.128  -0.155  0.00  0.00    +0.000 A 
ATOM      7  O1  UNL     1      -5.748  -0.708  -0.130  0.00  0.00    +0.000 OA
ATOM      8  N2  UNL     1      -4.544   1.157  -0.598  0.00  0.00    +0.000 N 
ATOM      9  C2  UNL     1      -3.380   1.869  -0.619  0.00  0.00    +0.000 A 
ATOM     10  O2  UNL     1      -3.314   3.029  -1.006  0.00  0.00    +0.000 OA
ATOM     11  C3  UNL     1      -2.172   1.168  -0.147  0.00  0.00    +0.000 A 
ATOM     12  C4  UNL     1      -2.287  -0.102   0.254  0.00  0.00    +0.000 A 
ATOM     13  H1  UNL     1      -3.573  -1.670   0.616  0.00  0.00    +0.000 HD
ATOM     14  H2  UNL     1      -5.385   1.621  -0.903  0.00  0.00    +0.000 HD
ENDBRANCH   1  12
BRANCH   3  15
ATOM     15  C6  UNL     1       1.271  -1.309   0.774  0.00  0.00    +0.000 C 
BRANCH  15  16
ATOM     16  C7  UNL     1       2.543  -0.592   0.441  0.00  0.00    +0.000 A 
ATOM     17  C8  UNL     1       3.172  -0.748  -0.797  0.00  0.00    +0.000 A 
ATOM     18  C9  UNL     1       4.337  -0.038  -1.073  0.00  0.00    +0.000 A 
ATOM     19  C10 UNL     1       4.831   0.815  -0.101  0.00  0.00    +0.000 A 
ATOM     20  N4  UNL     1       4.246   1.001   1.101  0.00  0.00    +0.000 NA
ATOM     21  C11 UNL     1       3.119   0.295   1.345  0.00  0.00    +0.000 A 
ENDBRANCH  15  16
ENDBRANCH   3  15
TORSDOF 3
