REMARK  Name = /home/anacleto/Desktop/manuscript_Mpro/naturecomm/supplementary_file_S2/6-chemical-library/molecular_docking/3D_ligand_structure/555.pdb
REMARK  6 active torsions:
REMARK  status: ('A' for Active; 'I' for Inactive)
REMARK    1  A    between atoms: C3_5  and  N3_6
REMARK    2  A    between atoms: N3_6  and  C4_7
REMARK    3  A    between atoms: C4_7  and  C5_8
REMARK    4  A    between atoms: N4_10  and  C6_11
REMARK    5  A    between atoms: C6_11  and  C7_12
REMARK    6  A    between atoms: C7_12  and  C8_13
REMARK                            x       y       z     vdW  Elec       q    Type
REMARK                         _______ _______ _______ _____ _____    ______ ____
ROOT
ATOM      1  C5  UNL     1       1.175  -1.618  -0.642  0.00  0.00    +0.000 C 
ATOM      2  O1  UNL     1       0.728  -2.563  -1.286  0.00  0.00    +0.000 OA
ATOM      3  N4  UNL     1       0.383  -0.655  -0.044  0.00  0.00    +0.000 N 
ATOM      4  H7  UNL     1       0.886   0.193   0.212  0.00  0.00    +0.000 HD
ENDROOT
BRANCH   1   5
ATOM      5  C4  UNL     1       2.682  -1.386  -0.460  0.00  0.00    +0.000 C 
BRANCH   5   6
ATOM      6  N3  UNL     1       2.934  -0.366   0.564  0.00  0.00    +0.000 N 
ATOM      7  H4  UNL     1       2.513  -0.606   1.460  0.00  0.00    +0.000 HD
BRANCH   6  12
ATOM      8  N1  UNL     1       4.524   0.659   1.914  0.00  0.00    +0.000 NA
ATOM      9  C1  UNL     1       5.722   1.164   1.726  0.00  0.00    +0.000 A 
ATOM     10  N2  UNL     1       6.115   1.047   0.422  0.00  0.00    +0.000 N 
ATOM     11  C2  UNL     1       5.100   0.429  -0.257  0.00  0.00    +0.000 A 
ATOM     12  C3  UNL     1       4.140   0.202   0.694  0.00  0.00    +0.000 A 
ATOM     13  H2  UNL     1       6.993   1.366   0.036  0.00  0.00    +0.000 HD
ENDBRANCH   6  12
ENDBRANCH   5   6
ENDBRANCH   1   5
BRANCH   3  14
ATOM     14  C6  UNL     1      -1.044  -0.588  -0.287  0.00  0.00    +0.000 C 
BRANCH  14  15
ATOM     15  C7  UNL     1      -1.759   0.225   0.791  0.00  0.00    +0.000 C 
BRANCH  15  16
ATOM     16  C8  UNL     1      -3.239   0.334   0.526  0.00  0.00    +0.000 A 
ATOM     17  C9  UNL     1      -4.112  -0.677   0.952  0.00  0.00    +0.000 A 
ATOM     18  C10 UNL     1      -5.480  -0.586   0.690  0.00  0.00    +0.000 A 
ATOM     19  C11 UNL     1      -5.987   0.513  -0.001  0.00  0.00    +0.000 A 
ATOM     20  C12 UNL     1      -5.127   1.520  -0.433  0.00  0.00    +0.000 A 
ATOM     21  C13 UNL     1      -3.759   1.432  -0.173  0.00  0.00    +0.000 A 
ENDBRANCH  15  16
ENDBRANCH  14  15
ENDBRANCH   3  14
TORSDOF 6
