REMARK  Name = /home/anacleto/Desktop/manuscript_Mpro/naturecomm/supplementary_file_S2/6-chemical-library/molecular_docking/3D_ligand_structure/558.pdb
REMARK  4 active torsions:
REMARK  status: ('A' for Active; 'I' for Inactive)
REMARK    1  A    between atoms: C6_6  and  N1_7
REMARK    2  A    between atoms: C7_8  and  C8_10
REMARK    3  A    between atoms: C8_10  and  N2_11
REMARK    4  A    between atoms: C9_12  and  C10_14
REMARK                            x       y       z     vdW  Elec       q    Type
REMARK                         _______ _______ _______ _____ _____    ______ ____
ROOT
ATOM      1  N1  UNL     1       1.809  -0.593   0.447  0.00  0.00    +0.000 N 
ATOM      2  C7  UNL     1       0.574  -0.121   0.034  0.00  0.00    +0.000 C 
ATOM      3  O1  UNL     1       0.357   0.733  -0.823  0.00  0.00    +0.000 OA
ATOM      4  H6  UNL     1       1.809  -1.303   1.170  0.00  0.00    +0.000 HD
ENDROOT
BRANCH   1  10
ATOM      5  C1  UNL     1       4.194  -0.825   0.556  0.00  0.00    +0.000 A 
ATOM      6  C2  UNL     1       5.490  -0.494   0.149  0.00  0.00    +0.000 A 
ATOM      7  C3  UNL     1       5.684   0.467  -0.839  0.00  0.00    +0.000 A 
ATOM      8  C4  UNL     1       4.583   1.094  -1.418  0.00  0.00    +0.000 A 
ATOM      9  C5  UNL     1       3.286   0.762  -1.011  0.00  0.00    +0.000 A 
ATOM     10  C6  UNL     1       3.080  -0.200  -0.021  0.00  0.00    +0.000 A 
ENDBRANCH   1  10
BRANCH   2  11
ATOM     11  C8  UNL     1      -0.580  -0.794   0.781  0.00  0.00    +0.000 C 
BRANCH  11  12
ATOM     12  N2  UNL     1      -1.846  -0.270   0.316  0.00  0.00    +0.000 N 
ATOM     13  C9  UNL     1      -3.041  -0.717   0.834  0.00  0.00    +0.000 C 
ATOM     14  O2  UNL     1      -3.057  -1.579   1.712  0.00  0.00    +0.000 OA
ATOM     15  H9  UNL     1      -1.811   0.439  -0.408  0.00  0.00    +0.000 HD
BRANCH  13  16
ATOM     16  C10 UNL     1      -4.228  -0.101   0.272  0.00  0.00    +0.000 A 
ATOM     17  C11 UNL     1      -4.429   0.866  -0.701  0.00  0.00    +0.000 A 
ATOM     18  C12 UNL     1      -5.829   1.053  -0.816  0.00  0.00    +0.000 A 
ATOM     19  C13 UNL     1      -6.403   0.194   0.088  0.00  0.00    +0.000 A 
ATOM     20  O3  UNL     1      -5.449  -0.506   0.749  0.00  0.00    +0.000 OA
ENDBRANCH  13  16
ENDBRANCH  11  12
ENDBRANCH   2  11
TORSDOF 4
