REMARK  Name = /home/anacleto/Desktop/manuscript_Mpro/naturecomm/supplementary_file_S2/6-chemical-library/molecular_docking/3D_ligand_structure/570.pdb
REMARK  5 active torsions:
REMARK  status: ('A' for Active; 'I' for Inactive)
REMARK    1  A    between atoms: C6_6  and  C7_7
REMARK    2  A    between atoms: N1_9  and  C8_10
REMARK    3  A    between atoms: C8_10  and  C9_11
REMARK    4  A    between atoms: C9_11  and  C10_12
REMARK    5  A    between atoms: C10_12  and  C11_13
REMARK                            x       y       z     vdW  Elec       q    Type
REMARK                         _______ _______ _______ _____ _____    ______ ____
ROOT
ATOM      1  C7  UNL     1      -2.132   0.962   0.392  0.00  0.00    +0.000 C 
ATOM      2  O1  UNL     1      -1.654   1.690   1.255  0.00  0.00    +0.000 OA
ATOM      3  N1  UNL     1      -1.539   0.747  -0.837  0.00  0.00    +0.000 N 
ATOM      4  H6  UNL     1      -1.862  -0.024  -1.405  0.00  0.00    +0.000 HD
ENDROOT
BRANCH   1  10
ATOM      5  C1  UNL     1      -3.719  -0.098   1.978  0.00  0.00    +0.000 A 
ATOM      6  C2  UNL     1      -4.894  -0.794   2.268  0.00  0.00    +0.000 A 
ATOM      7  C3  UNL     1      -5.755  -1.165   1.236  0.00  0.00    +0.000 A 
ATOM      8  C4  UNL     1      -5.449  -0.836  -0.085  0.00  0.00    +0.000 A 
ATOM      9  C5  UNL     1      -4.273  -0.141  -0.379  0.00  0.00    +0.000 A 
ATOM     10  C6  UNL     1      -3.396   0.220   0.653  0.00  0.00    +0.000 A 
ENDBRANCH   1  10
BRANCH   3  11
ATOM     11  C8  UNL     1      -0.253   1.330  -1.161  0.00  0.00    +0.000 C 
BRANCH  11  12
ATOM     12  C9  UNL     1       0.899   0.489  -0.617  0.00  0.00    +0.000 C 
BRANCH  12  13
ATOM     13  C10 UNL     1       2.247   1.128  -0.949  0.00  0.00    +0.000 C 
BRANCH  13  14
ATOM     14  C11 UNL     1       3.399   0.290  -0.454  0.00  0.00    +0.000 A 
ATOM     15  C12 UNL     1       3.814   0.376   0.882  0.00  0.00    +0.000 A 
ATOM     16  C13 UNL     1       4.869  -0.410   1.347  0.00  0.00    +0.000 A 
ATOM     17  C14 UNL     1       5.518  -1.290   0.483  0.00  0.00    +0.000 A 
ATOM     18  C15 UNL     1       5.110  -1.387  -0.846  0.00  0.00    +0.000 A 
ATOM     19  C16 UNL     1       4.054  -0.603  -1.313  0.00  0.00    +0.000 A 
ENDBRANCH  13  14
ENDBRANCH  12  13
ENDBRANCH  11  12
ENDBRANCH   3  11
TORSDOF 5
