REMARK  Name = /home/anacleto/Desktop/manuscript_Mpro/naturecomm/supplementary_file_S2/6-chemical-library/molecular_docking/3D_ligand_structure/579.pdb
REMARK  4 active torsions:
REMARK  status: ('A' for Active; 'I' for Inactive)
REMARK    1  A    between atoms: C6_6  and  C7_7
REMARK    2  A    between atoms: C7_7  and  S1_8
REMARK    3  A    between atoms: S1_8  and  N1_11
REMARK    4  A    between atoms: N1_11  and  C8_12
REMARK                            x       y       z     vdW  Elec       q    Type
REMARK                         _______ _______ _______ _____ _____    ______ ____
ROOT
ATOM      1  S1  UNL     1       0.209   0.273   1.090  0.00  0.00    +0.000 S 
ATOM      2  O1  UNL     1      -0.252   0.732   2.386  0.00  0.00    +0.000 OA
ATOM      3  O2  UNL     1       0.409  -1.132   0.809  0.00  0.00    +0.000 OA
ENDROOT
BRANCH   1   4
ATOM      4  N1  UNL     1       1.683   1.101   0.866  0.00  0.00    +0.000 N 
ATOM      5  H8  UNL     1       1.942   1.524   1.760  0.00  0.00    +0.000 HD
BRANCH   4   6
ATOM      6  C8  UNL     1       2.731   0.374   0.220  0.00  0.00    +0.000 A 
ATOM      7  C9  UNL     1       3.694  -0.285   0.977  0.00  0.00    +0.000 A 
ATOM      8  C10 UNL     1       4.676  -1.032   0.329  0.00  0.00    +0.000 A 
ATOM      9  C11 UNL     1       4.649  -1.098  -1.057  0.00  0.00    +0.000 A 
ATOM     10  N2  UNL     1       3.723  -0.479  -1.821  0.00  0.00    +0.000 NA
ATOM     11  C12 UNL     1       2.776   0.231  -1.162  0.00  0.00    +0.000 A 
ENDBRANCH   4   6
ENDBRANCH   1   4
BRANCH   1  12
ATOM     12  C7  UNL     1      -0.797   1.032  -0.192  0.00  0.00    +0.000 C 
BRANCH  12  18
ATOM     13  C1  UNL     1      -3.175   1.119   0.655  0.00  0.00    +0.000 A 
ATOM     14  C2  UNL     1      -4.471   0.603   0.723  0.00  0.00    +0.000 A 
ATOM     15  C3  UNL     1      -4.800  -0.554   0.021  0.00  0.00    +0.000 A 
ATOM     16  C4  UNL     1      -3.834  -1.200  -0.747  0.00  0.00    +0.000 A 
ATOM     17  C5  UNL     1      -2.538  -0.688  -0.817  0.00  0.00    +0.000 A 
ATOM     18  C6  UNL     1      -2.196   0.480  -0.120  0.00  0.00    +0.000 A 
ENDBRANCH  12  18
ENDBRANCH   1  12
TORSDOF 4
