REMARK  Name = /home/anacleto/Desktop/manuscript_Mpro/naturecomm/supplementary_file_S2/6-chemical-library/molecular_docking/3D_ligand_structure/586.pdb
REMARK  2 active torsions:
REMARK  status: ('A' for Active; 'I' for Inactive)
REMARK    1  A    between atoms: N1_5  and  C5_9
REMARK    2  A    between atoms: C5_9  and  C6_10
REMARK                            x       y       z     vdW  Elec       q    Type
REMARK                         _______ _______ _______ _____ _____    ______ ____
ROOT
ATOM      1  C5  UNL     1       0.878   0.803   0.570  0.00  0.00    +0.000 C 
ENDROOT
BRANCH   1   6
ATOM      2  O1  UNL     1       6.048  -0.942   0.815  0.00  0.00    +0.000 OA
ATOM      3  C1  UNL     1       4.887  -0.553   0.760  0.00  0.00    +0.000 A 
ATOM      4  C2  UNL     1       4.120  -0.278   1.985  0.00  0.00    +0.000 A 
ATOM      5  C3  UNL     1       2.866   0.165   1.874  0.00  0.00    +0.000 A 
ATOM      6  N1  UNL     1       2.276   0.378   0.645  0.00  0.00    +0.000 N 
ATOM      7  C4  UNL     1       2.936   0.100  -0.544  0.00  0.00    +0.000 A 
ATOM      8  O2  UNL     1       2.436   0.245  -1.658  0.00  0.00    +0.000 OA
ATOM      9  N2  UNL     1       4.226  -0.345  -0.415  0.00  0.00    +0.000 N 
ATOM     10  H3  UNL     1       4.723  -0.546  -1.267  0.00  0.00    +0.000 HD
ENDBRANCH   1   6
BRANCH   1  11
ATOM     11  C6  UNL     1      -0.088  -0.393   0.586  0.00  0.00    +0.000 C 
ATOM     12  O3  UNL     1       0.262  -1.502   0.997  0.00  0.00    +0.000 OA
ATOM     13  N3  UNL     1      -1.394  -0.151   0.178  0.00  0.00    +0.000 N 
ATOM     14  C7  UNL     1      -2.332  -1.273   0.097  0.00  0.00    +0.000 C 
ATOM     15  C8  UNL     1      -3.388  -1.068  -1.005  0.00  0.00    +0.000 C 
ATOM     16  N4  UNL     1      -4.151   0.189  -0.918  0.00  0.00    +0.000 NA
ATOM     17  C9  UNL     1      -3.444   1.228  -0.155  0.00  0.00    +0.000 C 
ATOM     18  C10 UNL     1      -1.910   1.153  -0.252  0.00  0.00    +0.000 C 
ATOM     19  H10 UNL     1      -5.057   0.015  -0.484  0.00  0.00    +0.000 HD
ENDBRANCH   1  11
TORSDOF 2
