REMARK  Name = /home/anacleto/Desktop/manuscript_Mpro/naturecomm/supplementary_file_S2/6-chemical-library/molecular_docking/3D_ligand_structure/596.pdb
REMARK  5 active torsions:
REMARK  status: ('A' for Active; 'I' for Inactive)
REMARK    1  A    between atoms: C4_5  and  C5_6
REMARK    2  A    between atoms: C5_6  and  N1_7
REMARK    3  A    between atoms: C6_8  and  C7_10
REMARK    4  A    between atoms: C7_10  and  N2_11
REMARK    5  A    between atoms: N2_11  and  C8_12
REMARK                            x       y       z     vdW  Elec       q    Type
REMARK                         _______ _______ _______ _____ _____    ______ ____
ROOT
ATOM      1  N1  UNL     1      -0.921   0.403   0.823  0.00  0.00    +0.000 N 
ATOM      2  C6  UNL     1      -0.304  -0.442   1.721  0.00  0.00    +0.000 C 
ATOM      3  O2  UNL     1      -0.885  -0.976   2.661  0.00  0.00    +0.000 OA
ATOM      4  H10 UNL     1      -0.366   0.676   0.015  0.00  0.00    +0.000 HD
ENDROOT
BRANCH   1   5
ATOM      5  C5  UNL     1      -2.333   0.718   0.881  0.00  0.00    +0.000 C 
BRANCH   5  10
ATOM      6  O1  UNL     1      -4.621   0.036   0.498  0.00  0.00    +0.000 OA
ATOM      7  C1  UNL     1      -5.179   0.026  -0.821  0.00  0.00    +0.000 C 
ATOM      8  C2  UNL     1      -4.013  -0.034  -1.780  0.00  0.00    +0.000 C 
ATOM      9  C3  UNL     1      -3.026  -0.874  -1.009  0.00  0.00    +0.000 C 
ATOM     10  C4  UNL     1      -3.254  -0.429   0.432  0.00  0.00    +0.000 C 
ENDBRANCH   5  10
ENDBRANCH   1   5
BRANCH   2  11
ATOM     11  C7  UNL     1       1.177  -0.701   1.406  0.00  0.00    +0.000 C 
BRANCH  11  12
ATOM     12  N2  UNL     1       1.725   0.391   0.574  0.00  0.00    +0.000 N 
ATOM     13  H13 UNL     1       1.555   1.295   1.017  0.00  0.00    +0.000 HD
BRANCH  12  14
ATOM     14  C8  UNL     1       3.061   0.310   0.155  0.00  0.00    +0.000 A 
ATOM     15  C9  UNL     1       3.760  -0.893   0.001  0.00  0.00    +0.000 A 
ATOM     16  C10 UNL     1       5.069  -0.912  -0.494  0.00  0.00    +0.000 A 
ATOM     17  C11 UNL     1       5.692   0.273  -0.873  0.00  0.00    +0.000 A 
ATOM     18  C12 UNL     1       5.001   1.475  -0.770  0.00  0.00    +0.000 A 
ATOM     19  C13 UNL     1       3.693   1.487  -0.274  0.00  0.00    +0.000 A 
ENDBRANCH  12  14
ENDBRANCH  11  12
ENDBRANCH   2  11
TORSDOF 5
