REMARK  Name = /home/anacleto/Desktop/manuscript_Mpro/naturecomm/supplementary_file_S2/6-chemical-library/molecular_docking/3D_ligand_structure/598.pdb
REMARK  4 active torsions:
REMARK  status: ('A' for Active; 'I' for Inactive)
REMARK    1  A    between atoms: C5_6  and  N1_7
REMARK    2  A    between atoms: C6_8  and  C7_10
REMARK    3  A    between atoms: C7_10  and  N2_11
REMARK    4  A    between atoms: N2_11  and  C8_12
REMARK                            x       y       z     vdW  Elec       q    Type
REMARK                         _______ _______ _______ _____ _____    ______ ____
ROOT
ATOM      1  N1  UNL     1      -0.350  -0.527  -1.677  0.00  0.00    +0.000 N 
ATOM      2  C6  UNL     1       0.845  -1.110  -2.052  0.00  0.00    +0.000 C 
ATOM      3  O2  UNL     1       0.986  -2.313  -2.249  0.00  0.00    +0.000 OA
ATOM      4  H10 UNL     1      -0.234   0.427  -1.334  0.00  0.00    +0.000 HD
ENDROOT
BRANCH   1  10
ATOM      5  C1  UNL     1      -1.321  -1.822   0.193  0.00  0.00    +0.000 C 
ATOM      6  C2  UNL     1      -1.999  -0.886   1.180  0.00  0.00    +0.000 C 
ATOM      7  O1  UNL     1      -3.406  -0.776   0.959  0.00  0.00    +0.000 OA
ATOM      8  C3  UNL     1      -3.827  -0.943  -0.395  0.00  0.00    +0.000 C 
ATOM      9  C4  UNL     1      -2.780  -0.478  -1.393  0.00  0.00    +0.000 C 
ATOM     10  C5  UNL     1      -1.499  -1.307  -1.243  0.00  0.00    +0.000 C 
ENDBRANCH   1  10
BRANCH   2  11
ATOM     11  C7  UNL     1       1.988  -0.100  -2.236  0.00  0.00    +0.000 C 
BRANCH  11  12
ATOM     12  N2  UNL     1       1.712   1.182  -1.553  0.00  0.00    +0.000 N 
ATOM     13  H13 UNL     1       2.063   1.974  -2.089  0.00  0.00    +0.000 HD
BRANCH  12  14
ATOM     14  C8  UNL     1       2.012   1.334  -0.192  0.00  0.00    +0.000 A 
ATOM     15  C9  UNL     1       2.180   0.266   0.698  0.00  0.00    +0.000 A 
ATOM     16  C10 UNL     1       2.385   0.487   2.065  0.00  0.00    +0.000 A 
ATOM     17  C11 UNL     1       2.399   1.783   2.570  0.00  0.00    +0.000 A 
ATOM     18  C12 UNL     1       2.198   2.857   1.710  0.00  0.00    +0.000 A 
ATOM     19  C13 UNL     1       1.994   2.630   0.346  0.00  0.00    +0.000 A 
ENDBRANCH  12  14
ENDBRANCH  11  12
ENDBRANCH   2  11
TORSDOF 4
