REMARK  Name = /home/anacleto/Desktop/manuscript_Mpro/naturecomm/supplementary_file_S2/6-chemical-library/molecular_docking/3D_ligand_structure/603.pdb
REMARK  4 active torsions:
REMARK  status: ('A' for Active; 'I' for Inactive)
REMARK    1  A    between atoms: C6_6  and  C7_7
REMARK    2  A    between atoms: C7_7  and  C8_8
REMARK    3  A    between atoms: N1_10  and  C9_11
REMARK    4  A    between atoms: C9_11  and  C10_12
REMARK                            x       y       z     vdW  Elec       q    Type
REMARK                         _______ _______ _______ _____ _____    ______ ____
ROOT
ATOM      1  C8  UNL     1       0.310   1.019   0.115  0.00  0.00    +0.000 C 
ATOM      2  O1  UNL     1       0.086   0.479   1.190  0.00  0.00    +0.000 OA
ATOM      3  N1  UNL     1       1.507   1.640  -0.180  0.00  0.00    +0.000 N 
ATOM      4  H14 UNL     1       1.685   1.922  -1.135  0.00  0.00    +0.000 HD
ENDROOT
BRANCH   1   5
ATOM      5  C7  UNL     1      -0.678   1.093  -1.040  0.00  0.00    +0.000 C 
BRANCH   5  11
ATOM      6  C1  UNL     1      -2.875   1.049   0.279  0.00  0.00    +0.000 C 
ATOM      7  C2  UNL     1      -4.242   0.380   0.408  0.00  0.00    +0.000 C 
ATOM      8  C3  UNL     1      -4.116  -1.129   0.597  0.00  0.00    +0.000 C 
ATOM      9  C4  UNL     1      -3.294  -1.768  -0.518  0.00  0.00    +0.000 C 
ATOM     10  C5  UNL     1      -1.921  -1.113  -0.654  0.00  0.00    +0.000 C 
ATOM     11  C6  UNL     1      -2.039   0.408  -0.840  0.00  0.00    +0.000 C 
ENDBRANCH   5  11
ENDBRANCH   1   5
BRANCH   3  12
ATOM     12  C9  UNL     1       2.630   1.601   0.731  0.00  0.00    +0.000 C 
BRANCH  12  13
ATOM     13  C10 UNL     1       3.595   0.515   0.353  0.00  0.00    +0.000 A 
ATOM     14  C11 UNL     1       3.330  -0.827   0.641  0.00  0.00    +0.000 A 
ATOM     15  C12 UNL     1       4.239  -1.809   0.261  0.00  0.00    +0.000 A 
ATOM     16  C13 UNL     1       5.389  -1.415  -0.401  0.00  0.00    +0.000 A 
ATOM     17  N2  UNL     1       5.680  -0.130  -0.703  0.00  0.00    +0.000 NA
ATOM     18  C14 UNL     1       4.779   0.802  -0.319  0.00  0.00    +0.000 A 
ENDBRANCH  12  13
ENDBRANCH   3  12
TORSDOF 4
