REMARK  Name = /home/anacleto/Desktop/manuscript_Mpro/naturecomm/supplementary_file_S2/6-chemical-library/molecular_docking/3D_ligand_structure/607.pdb
REMARK  4 active torsions:
REMARK  status: ('A' for Active; 'I' for Inactive)
REMARK    1  A    between atoms: C5_6  and  O2_7
REMARK    2  A    between atoms: O2_7  and  C6_8
REMARK    3  A    between atoms: C6_8  and  C7_10
REMARK    4  A    between atoms: C8_11  and  C9_12
REMARK                            x       y       z     vdW  Elec       q    Type
REMARK                         _______ _______ _______ _____ _____    ______ ____
ROOT
ATOM      1  C6  UNL     1       0.039   0.002   0.253  0.00  0.00    +0.000 C 
ATOM      2  O3  UNL     1      -0.635  -0.595  -0.566  0.00  0.00    +0.000 OA
ENDROOT
BRANCH   1   3
ATOM      3  C7  UNL     1      -0.442   0.956   1.278  0.00  0.00    +0.000 C 
ATOM      4  C8  UNL     1      -1.720   1.234   1.583  0.00  0.00    +0.000 C 
BRANCH   4   5
ATOM      5  C9  UNL     1      -2.928   0.637   1.008  0.00  0.00    +0.000 A 
ATOM      6  C10 UNL     1      -3.844   1.455   0.338  0.00  0.00    +0.000 A 
ATOM      7  C11 UNL     1      -5.023   0.916  -0.183  0.00  0.00    +0.000 A 
ATOM      8  C12 UNL     1      -5.296  -0.442  -0.031  0.00  0.00    +0.000 A 
ATOM      9  C13 UNL     1      -4.393  -1.262   0.644  0.00  0.00    +0.000 A 
ATOM     10  C14 UNL     1      -3.214  -0.724   1.166  0.00  0.00    +0.000 A 
ENDBRANCH   4   5
ENDBRANCH   1   3
BRANCH   1  11
ATOM     11  O2  UNL     1       1.388  -0.088   0.391  0.00  0.00    +0.000 OA
BRANCH  11  17
ATOM     12  C1  UNL     1       2.217  -0.207  -1.905  0.00  0.00    +0.000 C 
ATOM     13  O1  UNL     1       3.017   0.981  -1.832  0.00  0.00    +0.000 OA
ATOM     14  C2  UNL     1       3.988   1.006  -0.788  0.00  0.00    +0.000 C 
ATOM     15  C3  UNL     1       4.533  -0.374  -0.463  0.00  0.00    +0.000 C 
ATOM     16  C4  UNL     1       3.423  -1.308   0.018  0.00  0.00    +0.000 C 
ATOM     17  C5  UNL     1       2.054  -0.941  -0.567  0.00  0.00    +0.000 C 
ENDBRANCH  11  17
ENDBRANCH   1  11
TORSDOF 4
