REMARK  Name = /home/anacleto/Desktop/manuscript_Mpro/naturecomm/supplementary_file_S2/6-chemical-library/molecular_docking/3D_ligand_structure/613.pdb
REMARK  3 active torsions:
REMARK  status: ('A' for Active; 'I' for Inactive)
REMARK    1  A    between atoms: C3_7  and  C4_8
REMARK    2  A    between atoms: N4_10  and  C5_11
REMARK    3  A    between atoms: C5_11  and  C6_12
REMARK                            x       y       z     vdW  Elec       q    Type
REMARK                         _______ _______ _______ _____ _____    ______ ____
ROOT
ATOM      1  C4  UNL     1       1.205  -1.253  -0.093  0.00  0.00    +0.000 C 
ATOM      2  O2  UNL     1       1.277  -2.464  -0.226  0.00  0.00    +0.000 OA
ATOM      3  N4  UNL     1       0.047  -0.507  -0.155  0.00  0.00    +0.000 N 
ATOM      4  H3  UNL     1       0.167   0.493  -0.297  0.00  0.00    +0.000 HD
ENDROOT
BRANCH   1  11
ATOM      5  N1  UNL     1       2.534   0.690  -0.557  0.00  0.00    +0.000 NA
ATOM      6  N2  UNL     1       3.685   1.487  -0.432  0.00  0.00    +0.000 NA
ATOM      7  C1  UNL     1       4.690   1.047   0.246  0.00  0.00    +0.000 A 
ATOM      8  N3  UNL     1       4.715  -0.138   0.905  0.00  0.00    +0.000 N 
ATOM      9  C2  UNL     1       3.571  -0.867   1.023  0.00  0.00    +0.000 A 
ATOM     10  O1  UNL     1       3.420  -1.752   1.849  0.00  0.00    +0.000 OA
ATOM     11  C3  UNL     1       2.460  -0.431   0.106  0.00  0.00    +0.000 A 
ATOM     12  H2  UNL     1       5.476  -0.374   1.525  0.00  0.00    +0.000 HD
ENDBRANCH   1  11
BRANCH   3  13
ATOM     13  C5  UNL     1      -1.193  -1.121  -0.559  0.00  0.00    +0.000 C 
BRANCH  13  14
ATOM     14  C6  UNL     1      -2.357  -0.214  -0.299  0.00  0.00    +0.000 A 
ATOM     15  C7  UNL     1      -2.788   0.062   1.003  0.00  0.00    +0.000 A 
ATOM     16  C8  UNL     1      -3.868   0.915   1.207  0.00  0.00    +0.000 A 
ATOM     17  C9  UNL     1      -4.484   1.469   0.097  0.00  0.00    +0.000 A 
ATOM     18  N5  UNL     1      -4.096   1.229  -1.174  0.00  0.00    +0.000 NA
ATOM     19  C10 UNL     1      -3.044   0.396  -1.342  0.00  0.00    +0.000 A 
ENDBRANCH  13  14
ENDBRANCH   3  13
TORSDOF 3
