REMARK  Name = /home/anacleto/Desktop/manuscript_Mpro/naturecomm/supplementary_file_S2/6-chemical-library/molecular_docking/3D_ligand_structure/636.pdb
REMARK  4 active torsions:
REMARK  status: ('A' for Active; 'I' for Inactive)
REMARK    1  A    between atoms: C6_6  and  C7_7
REMARK    2  A    between atoms: N1_9  and  C8_10
REMARK    3  A    between atoms: C8_10  and  C9_11
REMARK    4  A    between atoms: C9_11  and  C10_12
REMARK                            x       y       z     vdW  Elec       q    Type
REMARK                         _______ _______ _______ _____ _____    ______ ____
ROOT
ATOM      1  C7  UNL     1      -1.642  -0.486  -0.542  0.00  0.00    +0.000 C 
ATOM      2  O1  UNL     1      -1.436  -1.159  -1.545  0.00  0.00    +0.000 OA
ATOM      3  N1  UNL     1      -0.639   0.098   0.207  0.00  0.00    +0.000 N 
ATOM      4  H6  UNL     1      -0.900   0.865   0.812  0.00  0.00    +0.000 HD
ENDROOT
BRANCH   1  10
ATOM      5  C1  UNL     1      -4.065  -0.269  -1.037  0.00  0.00    +0.000 A 
ATOM      6  C2  UNL     1      -5.386  -0.032  -0.653  0.00  0.00    +0.000 A 
ATOM      7  C3  UNL     1      -5.686   0.237   0.682  0.00  0.00    +0.000 A 
ATOM      8  C4  UNL     1      -4.668   0.263   1.636  0.00  0.00    +0.000 A 
ATOM      9  C5  UNL     1      -3.345   0.027   1.255  0.00  0.00    +0.000 A 
ATOM     10  C6  UNL     1      -3.037  -0.228  -0.088  0.00  0.00    +0.000 A 
ENDBRANCH   1  10
BRANCH   3  11
ATOM     11  C8  UNL     1       0.744   0.065  -0.245  0.00  0.00    +0.000 C 
BRANCH  11  12
ATOM     12  C9  UNL     1       1.715   0.092   0.930  0.00  0.00    +0.000 C 
BRANCH  12  13
ATOM     13  C10 UNL     1       3.143   0.122   0.456  0.00  0.00    +0.000 A 
ATOM     14  C11 UNL     1       3.814  -1.059   0.148  0.00  0.00    +0.000 A 
ATOM     15  C12 UNL     1       5.127  -0.986  -0.308  0.00  0.00    +0.000 A 
ATOM     16  C13 UNL     1       5.730   0.258  -0.447  0.00  0.00    +0.000 A 
ATOM     17  C14 UNL     1       4.991   1.382  -0.124  0.00  0.00    +0.000 A 
ATOM     18  N2  UNL     1       3.716   1.342   0.320  0.00  0.00    +0.000 NA
ENDBRANCH  12  13
ENDBRANCH  11  12
ENDBRANCH   3  11
TORSDOF 4
