REMARK  Name = /home/anacleto/Desktop/manuscript_Mpro/naturecomm/supplementary_file_S2/6-chemical-library/molecular_docking/3D_ligand_structure/637.pdb
REMARK  4 active torsions:
REMARK  status: ('A' for Active; 'I' for Inactive)
REMARK    1  A    between atoms: C6_6  and  N1_7
REMARK    2  A    between atoms: C7_8  and  C8_10
REMARK    3  A    between atoms: C8_10  and  C9_11
REMARK    4  A    between atoms: C9_11  and  C10_12
REMARK                            x       y       z     vdW  Elec       q    Type
REMARK                         _______ _______ _______ _____ _____    ______ ____
ROOT
ATOM      1  N1  UNL     1       1.723  -0.201  -0.263  0.00  0.00    +0.000 N 
ATOM      2  C7  UNL     1       0.773   0.088   0.704  0.00  0.00    +0.000 C 
ATOM      3  O1  UNL     1       0.985   0.353   1.882  0.00  0.00    +0.000 OA
ATOM      4  H6  UNL     1       1.377  -0.399  -1.193  0.00  0.00    +0.000 HD
ENDROOT
BRANCH   1  10
ATOM      5  C1  UNL     1       3.786  -0.011   1.099  0.00  0.00    +0.000 A 
ATOM      6  C2  UNL     1       5.181  -0.084   1.168  0.00  0.00    +0.000 A 
ATOM      7  C3  UNL     1       5.926  -0.400   0.034  0.00  0.00    +0.000 A 
ATOM      8  C4  UNL     1       5.276  -0.643  -1.172  0.00  0.00    +0.000 A 
ATOM      9  C5  UNL     1       3.882  -0.570  -1.241  0.00  0.00    +0.000 A 
ATOM     10  C6  UNL     1       3.124  -0.254  -0.106  0.00  0.00    +0.000 A 
ENDBRANCH   1  10
BRANCH   2  11
ATOM     11  C8  UNL     1      -0.631   0.041   0.127  0.00  0.00    +0.000 C 
BRANCH  11  12
ATOM     12  C9  UNL     1      -1.692   0.357   1.177  0.00  0.00    +0.000 C 
BRANCH  12  13
ATOM     13  C10 UNL     1      -3.079   0.306   0.586  0.00  0.00    +0.000 A 
ATOM     14  C11 UNL     1      -3.801  -0.895   0.571  0.00  0.00    +0.000 A 
ATOM     15  C12 UNL     1      -5.075  -0.946   0.003  0.00  0.00    +0.000 A 
ATOM     16  C13 UNL     1      -5.636   0.200  -0.558  0.00  0.00    +0.000 A 
ATOM     17  C14 UNL     1      -4.925   1.398  -0.551  0.00  0.00    +0.000 A 
ATOM     18  C15 UNL     1      -3.651   1.452   0.016  0.00  0.00    +0.000 A 
ENDBRANCH  12  13
ENDBRANCH  11  12
ENDBRANCH   2  11
TORSDOF 4
