REMARK  Name = /home/anacleto/Desktop/manuscript_Mpro/naturecomm/supplementary_file_S2/6-chemical-library/molecular_docking/3D_ligand_structure/644.pdb
REMARK  2 active torsions:
REMARK  status: ('A' for Active; 'I' for Inactive)
REMARK    1  A    between atoms: C6_6  and  S1_7
REMARK    2  A    between atoms: S1_7  and  N1_10
REMARK                            x       y       z     vdW  Elec       q    Type
REMARK                         _______ _______ _______ _____ _____    ______ ____
ROOT
ATOM      1  S1  UNL     1       0.725   1.917   0.071  0.00  0.00    +0.000 S 
ATOM      2  O1  UNL     1       0.785   2.580   1.357  0.00  0.00    +0.000 OA
ATOM      3  O2  UNL     1       0.815   2.676  -1.159  0.00  0.00    +0.000 OA
ENDROOT
BRANCH   1   4
ATOM      4  N1  UNL     1      -0.701   0.979   0.020  0.00  0.00    +0.000 NA
ATOM      5  C7  UNL     1      -0.978   0.278  -1.253  0.00  0.00    +0.000 C 
ATOM      6  C8  UNL     1      -2.466  -0.019  -1.426  0.00  0.00    +0.000 C 
ATOM      7  C9  UNL     1      -2.947  -1.174  -0.550  0.00  0.00    +0.000 C 
ATOM      8  N2  UNL     1      -3.304  -0.863   0.829  0.00  0.00    +0.000 NA
ATOM      9  C10 UNL     1      -2.512   0.169   1.505  0.00  0.00    +0.000 C 
ATOM     10  C11 UNL     1      -0.999   0.172   1.236  0.00  0.00    +0.000 C 
ATOM     11  H12 UNL     1      -4.287  -0.589   0.874  0.00  0.00    +0.000 HD
ENDBRANCH   1   4
BRANCH   1  17
ATOM     12  C1  UNL     1       2.518   0.180   1.240  0.00  0.00    +0.000 A 
ATOM     13  C2  UNL     1       3.541  -0.768   1.209  0.00  0.00    +0.000 A 
ATOM     14  C3  UNL     1       4.065  -1.192  -0.013  0.00  0.00    +0.000 A 
ATOM     15  C4  UNL     1       3.576  -0.664  -1.210  0.00  0.00    +0.000 A 
ATOM     16  C5  UNL     1       2.553   0.284  -1.188  0.00  0.00    +0.000 A 
ATOM     17  C6  UNL     1       2.014   0.687   0.038  0.00  0.00    +0.000 A 
ENDBRANCH   1  17
TORSDOF 2
