REMARK  Name = /home/anacleto/Desktop/manuscript_Mpro/naturecomm/supplementary_file_S2/6-chemical-library/molecular_docking/3D_ligand_structure/646.pdb
REMARK  2 active torsions:
REMARK  status: ('A' for Active; 'I' for Inactive)
REMARK    1  A    between atoms: C5_6  and  N1_7
REMARK    2  A    between atoms: N2_10  and  C7_11
REMARK                            x       y       z     vdW  Elec       q    Type
REMARK                         _______ _______ _______ _____ _____    ______ ____
ROOT
ATOM      1  N1  UNL     1      -0.613   0.605  -0.082  0.00  0.00    +0.000 N 
ATOM      2  C6  UNL     1       0.504   0.162  -0.766  0.00  0.00    +0.000 C 
ATOM      3  O1  UNL     1       0.455  -0.262  -1.912  0.00  0.00    +0.000 OA
ATOM      4  N2  UNL     1       1.632   0.287   0.013  0.00  0.00    +0.000 N 
ATOM      5  H10 UNL     1      -0.575   0.469   0.917  0.00  0.00    +0.000 HD
ATOM      6  H11 UNL     1       1.534   0.859   0.837  0.00  0.00    +0.000 HD
ENDROOT
BRANCH   1  12
ATOM      7  C1  UNL     1      -2.451  -0.931  -0.657  0.00  0.00    +0.000 C 
ATOM      8  C2  UNL     1      -3.961  -1.028  -0.794  0.00  0.00    +0.000 C 
ATOM      9  S1  UNL     1      -4.820  -0.341   0.659  0.00  0.00    +0.000 S 
ATOM     10  C3  UNL     1      -3.657   0.976   1.137  0.00  0.00    +0.000 C 
ATOM     11  C4  UNL     1      -2.893   1.535  -0.052  0.00  0.00    +0.000 C 
ATOM     12  C5  UNL     1      -1.940   0.518  -0.696  0.00  0.00    +0.000 C 
ENDBRANCH   1  12
BRANCH   4  13
ATOM     13  C7  UNL     1       2.936  -0.132  -0.320  0.00  0.00    +0.000 A 
ATOM     14  C8  UNL     1       3.973   0.211   0.551  0.00  0.00    +0.000 A 
ATOM     15  C9  UNL     1       5.279  -0.190   0.273  0.00  0.00    +0.000 A 
ATOM     16  C10 UNL     1       5.509  -0.930  -0.873  0.00  0.00    +0.000 A 
ATOM     17  N3  UNL     1       4.537  -1.288  -1.736  0.00  0.00    +0.000 NA
ATOM     18  C11 UNL     1       3.274  -0.881  -1.444  0.00  0.00    +0.000 A 
ENDBRANCH   4  13
TORSDOF 2
