REMARK  Name = /home/anacleto/Desktop/manuscript_Mpro/naturecomm/supplementary_file_S2/6-chemical-library/molecular_docking/3D_ligand_structure/648.pdb
REMARK  3 active torsions:
REMARK  status: ('A' for Active; 'I' for Inactive)
REMARK    1  A    between atoms: C3_6  and  C4_7
REMARK    2  A    between atoms: N2_9  and  C5_10
REMARK    3  A    between atoms: C5_10  and  C6_11
REMARK                            x       y       z     vdW  Elec       q    Type
REMARK                         _______ _______ _______ _____ _____    ______ ____
ROOT
ATOM      1  C4  UNL     1       1.267  -0.027  -1.136  0.00  0.00    +0.000 C 
ATOM      2  O2  UNL     1       1.035   0.477  -2.229  0.00  0.00    +0.000 OA
ATOM      3  N2  UNL     1       0.437  -0.953  -0.544  0.00  0.00    +0.000 N 
ATOM      4  H3  UNL     1       0.563  -1.182   0.432  0.00  0.00    +0.000 HD
ENDROOT
BRANCH   1  10
ATOM      5  O1  UNL     1       5.359   2.214   1.019  0.00  0.00    +0.000 OA
ATOM      6  C1  UNL     1       4.450   1.486   0.662  0.00  0.00    +0.000 A 
ATOM      7  S1  UNL     1       3.205   1.906  -0.515  0.00  0.00    +0.000 S 
ATOM      8  N1  UNL     1       4.208   0.203   1.094  0.00  0.00    +0.000 N 
ATOM      9  C2  UNL     1       3.123  -0.423   0.541  0.00  0.00    +0.000 A 
ATOM     10  C3  UNL     1       2.458   0.344  -0.331  0.00  0.00    +0.000 A 
ATOM     11  H1  UNL     1       4.835  -0.223   1.765  0.00  0.00    +0.000 HD
ENDBRANCH   1  10
BRANCH   3  12
ATOM     12  C5  UNL     1      -0.833  -1.306  -1.140  0.00  0.00    +0.000 C 
BRANCH  12  13
ATOM     13  C6  UNL     1      -1.957  -0.551  -0.495  0.00  0.00    +0.000 A 
ATOM     14  C7  UNL     1      -2.720  -1.106   0.537  0.00  0.00    +0.000 A 
ATOM     15  C8  UNL     1      -3.742  -0.360   1.117  0.00  0.00    +0.000 A 
ATOM     16  C9  UNL     1      -3.966   0.923   0.648  0.00  0.00    +0.000 A 
ATOM     17  N3  UNL     1      -3.246   1.496  -0.339  0.00  0.00    +0.000 NA
ATOM     18  C10 UNL     1      -2.259   0.750  -0.886  0.00  0.00    +0.000 A 
ENDBRANCH  12  13
ENDBRANCH   3  12
TORSDOF 3
