REMARK  Name = /home/anacleto/Desktop/manuscript_Mpro/naturecomm/supplementary_file_S2/6-chemical-library/molecular_docking/3D_ligand_structure/659.pdb
REMARK  5 active torsions:
REMARK  status: ('A' for Active; 'I' for Inactive)
REMARK    1  A    between atoms: C4_4  and  C5_5
REMARK    2  A    between atoms: N1_7  and  C6_8
REMARK    3  A    between atoms: C6_8  and  C7_9
REMARK    4  A    between atoms: C7_9  and  C8_10
REMARK    5  A    between atoms: C8_10  and  C9_11
REMARK                            x       y       z     vdW  Elec       q    Type
REMARK                         _______ _______ _______ _____ _____    ______ ____
ROOT
ATOM      1  C7  UNL     1       1.211  -0.517  -0.063  0.00  0.00    +0.000 C 
ENDROOT
BRANCH   1   2
ATOM      2  C6  UNL     1       0.104  -1.506   0.288  0.00  0.00    +0.000 C 
BRANCH   2   5
ATOM      3  C5  UNL     1      -1.738  -0.225   1.335  0.00  0.00    +0.000 C 
ATOM      4  O1  UNL     1      -1.155  -0.209   2.422  0.00  0.00    +0.000 OA
ATOM      5  N1  UNL     1      -1.200  -0.878   0.241  0.00  0.00    +0.000 N 
ATOM      6  H8  UNL     1      -1.673  -0.815  -0.650  0.00  0.00    +0.000 HD
BRANCH   3  10
ATOM      7  C1  UNL     1      -4.247  -0.318   0.403  0.00  0.00    +0.000 C 
ATOM      8  C2  UNL     1      -4.674   1.005  -0.261  0.00  0.00    +0.000 C 
ATOM      9  C3  UNL     1      -3.223   1.491  -0.077  0.00  0.00    +0.000 C 
ATOM     10  C4  UNL     1      -3.098   0.471   1.087  0.00  0.00    +0.000 C 
ENDBRANCH   3  10
ENDBRANCH   2   5
ENDBRANCH   1   2
BRANCH   1  11
ATOM     11  C8  UNL     1       2.582  -1.183  -0.018  0.00  0.00    +0.000 C 
BRANCH  11  12
ATOM     12  C9  UNL     1       3.640  -0.215  -0.463  0.00  0.00    +0.000 A 
ATOM     13  N2  UNL     1       4.220   0.617   0.356  0.00  0.00    +0.000 NA
ATOM     14  C10 UNL     1       5.129   1.296  -0.424  0.00  0.00    +0.000 A 
ATOM     15  O2  UNL     1       5.777   2.279  -0.102  0.00  0.00    +0.000 OA
ATOM     16  N3  UNL     1       5.162   0.722  -1.685  0.00  0.00    +0.000 N 
ATOM     17  N4  UNL     1       4.063  -0.149  -1.776  0.00  0.00    +0.000 N 
ATOM     18  H15 UNL     1       5.341   1.371  -2.443  0.00  0.00    +0.000 HD
ATOM     19  H16 UNL     1       4.275  -1.053  -2.196  0.00  0.00    +0.000 HD
ENDBRANCH  11  12
ENDBRANCH   1  11
TORSDOF 5
