REMARK  Name = /home/anacleto/Desktop/manuscript_Mpro/naturecomm/supplementary_file_S2/6-chemical-library/molecular_docking/3D_ligand_structure/666.pdb
REMARK  4 active torsions:
REMARK  status: ('A' for Active; 'I' for Inactive)
REMARK    1  A    between atoms: C4_5  and  C5_7
REMARK    2  A    between atoms: N2_9  and  C6_10
REMARK    3  A    between atoms: C6_10  and  C7_11
REMARK    4  A    between atoms: C7_11  and  C8_12
REMARK                            x       y       z     vdW  Elec       q    Type
REMARK                         _______ _______ _______ _____ _____    ______ ____
ROOT
ATOM      1  C5  UNL     1       0.935  -1.015   0.410  0.00  0.00    +0.000 C 
ATOM      2  O2  UNL     1       1.054  -2.224   0.602  0.00  0.00    +0.000 OA
ATOM      3  N2  UNL     1      -0.142  -0.282   0.865  0.00  0.00    +0.000 N 
ATOM      4  H7  UNL     1      -0.371   0.561   0.340  0.00  0.00    +0.000 HD
ENDROOT
BRANCH   1   9
ATOM      5  O1  UNL     1       5.424  -0.578  -0.729  0.00  0.00    +0.000 OA
ATOM      6  C1  UNL     1       4.284  -0.182  -0.568  0.00  0.00    +0.000 C 
ATOM      7  C2  UNL     1       3.863   1.232  -0.265  0.00  0.00    +0.000 C 
ATOM      8  C3  UNL     1       2.449   1.051   0.281  0.00  0.00    +0.000 C 
ATOM      9  C4  UNL     1       1.940  -0.201  -0.420  0.00  0.00    +0.000 C 
ATOM     10  N1  UNL     1       3.146  -0.946  -0.672  0.00  0.00    +0.000 N 
ATOM     11  H6  UNL     1       3.175  -1.951  -0.802  0.00  0.00    +0.000 HD
ENDBRANCH   1   9
BRANCH   3  12
ATOM     12  C6  UNL     1      -1.314  -0.941   1.416  0.00  0.00    +0.000 C 
BRANCH  12  13
ATOM     13  C7  UNL     1      -2.279  -1.399   0.317  0.00  0.00    +0.000 C 
BRANCH  13  14
ATOM     14  C8  UNL     1      -2.856  -0.259  -0.462  0.00  0.00    +0.000 A 
ATOM     15  C9  UNL     1      -4.155  -0.076  -0.886  0.00  0.00    +0.000 A 
ATOM     16  N3  UNL     1      -4.150   1.109  -1.568  0.00  0.00    +0.000 N 
ATOM     17  C10 UNL     1      -2.875   1.598  -1.537  0.00  0.00    +0.000 A 
ATOM     18  N4  UNL     1      -2.068   0.799  -0.877  0.00  0.00    +0.000 NA
ATOM     19  H13 UNL     1      -4.942   1.546  -2.020  0.00  0.00    +0.000 HD
ENDBRANCH  13  14
ENDBRANCH  12  13
ENDBRANCH   3  12
TORSDOF 4
