REMARK  Name = /home/anacleto/Desktop/manuscript_Mpro/naturecomm/supplementary_file_S2/6-chemical-library/molecular_docking/3D_ligand_structure/677.pdb
REMARK  3 active torsions:
REMARK  status: ('A' for Active; 'I' for Inactive)
REMARK    1  A    between atoms: C5_6  and  N1_7
REMARK    2  A    between atoms: C6_8  and  C7_10
REMARK    3  A    between atoms: C7_10  and  C8_11
REMARK                            x       y       z     vdW  Elec       q    Type
REMARK                         _______ _______ _______ _____ _____    ______ ____
ROOT
ATOM      1  N1  UNL     1      -0.276   0.415  -0.172  0.00  0.00    +0.000 N 
ATOM      2  C6  UNL     1       0.398   1.615  -0.082  0.00  0.00    +0.000 C 
ATOM      3  O2  UNL     1       0.043   2.534   0.652  0.00  0.00    +0.000 OA
ATOM      4  H10 UNL     1       0.115  -0.320  -0.749  0.00  0.00    +0.000 HD
ENDROOT
BRANCH   1  10
ATOM      5  C1  UNL     1      -1.690  -1.394   0.727  0.00  0.00    +0.000 C 
ATOM      6  C2  UNL     1      -3.162  -1.721   0.957  0.00  0.00    +0.000 C 
ATOM      7  O1  UNL     1      -3.772  -0.707   1.744  0.00  0.00    +0.000 OA
ATOM      8  C3  UNL     1      -3.880   0.540   1.053  0.00  0.00    +0.000 C 
ATOM      9  C4  UNL     1      -2.691   0.832   0.141  0.00  0.00    +0.000 C 
ATOM     10  C5  UNL     1      -1.441   0.118   0.652  0.00  0.00    +0.000 C 
ENDBRANCH   1  10
BRANCH   2  11
ATOM     11  C7  UNL     1       1.597   1.747  -1.007  0.00  0.00    +0.000 C 
BRANCH  11  12
ATOM     12  C8  UNL     1       2.596   0.631  -0.863  0.00  0.00    +0.000 A 
ATOM     13  C9  UNL     1       3.283   0.419   0.336  0.00  0.00    +0.000 A 
ATOM     14  C10 UNL     1       4.183  -0.637   0.437  0.00  0.00    +0.000 A 
ATOM     15  C11 UNL     1       4.366  -1.450  -0.668  0.00  0.00    +0.000 A 
ATOM     16  N2  UNL     1       3.724  -1.276  -1.843  0.00  0.00    +0.000 NA
ATOM     17  C12 UNL     1       2.864  -0.237  -1.917  0.00  0.00    +0.000 A 
ENDBRANCH  11  12
ENDBRANCH   2  11
TORSDOF 3
