REMARK  Name = /home/anacleto/Desktop/manuscript_Mpro/naturecomm/supplementary_file_S2/6-chemical-library/molecular_docking/3D_ligand_structure/684.pdb
REMARK  3 active torsions:
REMARK  status: ('A' for Active; 'I' for Inactive)
REMARK    1  A    between atoms: C6_6  and  C7_7
REMARK    2  A    between atoms: N1_9  and  C8_10
REMARK    3  A    between atoms: C8_10  and  C9_11
REMARK                            x       y       z     vdW  Elec       q    Type
REMARK                         _______ _______ _______ _____ _____    ______ ____
ROOT
ATOM      1  C7  UNL     1       1.049  -0.608  -0.415  0.00  0.00    +0.000 C 
ATOM      2  O1  UNL     1       0.594  -0.626  -1.553  0.00  0.00    +0.000 OA
ATOM      3  N1  UNL     1       0.280  -0.791   0.716  0.00  0.00    +0.000 N 
ATOM      4  H6  UNL     1       0.681  -0.604   1.624  0.00  0.00    +0.000 HD
ENDROOT
BRANCH   1  10
ATOM      5  C1  UNL     1       3.187  -0.842   0.915  0.00  0.00    +0.000 A 
ATOM      6  C2  UNL     1       4.545  -0.558   1.081  0.00  0.00    +0.000 A 
ATOM      7  C3  UNL     1       5.216   0.225   0.141  0.00  0.00    +0.000 A 
ATOM      8  C4  UNL     1       4.536   0.719  -0.971  0.00  0.00    +0.000 A 
ATOM      9  C5  UNL     1       3.179   0.436  -1.141  0.00  0.00    +0.000 A 
ATOM     10  C6  UNL     1       2.496  -0.334  -0.192  0.00  0.00    +0.000 A 
ENDBRANCH   1  10
BRANCH   3  11
ATOM     11  C8  UNL     1      -1.149  -1.026   0.645  0.00  0.00    +0.000 C 
BRANCH  11  12
ATOM     12  C9  UNL     1      -1.969   0.248   0.925  0.00  0.00    +0.000 C 
ATOM     13  C10 UNL     1      -3.461  -0.091   1.081  0.00  0.00    +0.000 C 
ATOM     14  C11 UNL     1      -4.123  -0.381  -0.262  0.00  0.00    +0.000 C 
ATOM     15  O2  UNL     1      -3.936   0.710  -1.161  0.00  0.00    +0.000 OA
ATOM     16  C12 UNL     1      -2.555   0.952  -1.440  0.00  0.00    +0.000 C 
ATOM     17  C13 UNL     1      -1.815   1.325  -0.161  0.00  0.00    +0.000 C 
ENDBRANCH  11  12
ENDBRANCH   3  11
TORSDOF 3
