REMARK  Name = /home/anacleto/Desktop/manuscript_Mpro/naturecomm/supplementary_file_S2/6-chemical-library/molecular_docking/3D_ligand_structure/695.pdb
REMARK  4 active torsions:
REMARK  status: ('A' for Active; 'I' for Inactive)
REMARK    1  A    between atoms: C2_5  and  C3_6
REMARK    2  A    between atoms: C3_6  and  N3_7
REMARK    3  A    between atoms: C4_8  and  C5_10
REMARK    4  A    between atoms: C5_10  and  C6_11
REMARK                            x       y       z     vdW  Elec       q    Type
REMARK                         _______ _______ _______ _____ _____    ______ ____
ROOT
ATOM      1  N3  UNL     1       1.024  -0.780  -0.582  0.00  0.00    +0.000 N 
ATOM      2  C4  UNL     1       0.030  -1.643  -0.976  0.00  0.00    +0.000 C 
ATOM      3  O2  UNL     1      -0.001  -2.162  -2.088  0.00  0.00    +0.000 OA
ATOM      4  H4  UNL     1       0.875  -0.195   0.234  0.00  0.00    +0.000 HD
ENDROOT
BRANCH   1   5
ATOM      5  C3  UNL     1       2.028  -0.339  -1.530  0.00  0.00    +0.000 C 
BRANCH   5  10
ATOM      6  O1  UNL     1       4.176   0.785  -1.509  0.00  0.00    +0.000 OA
ATOM      7  N1  UNL     1       4.924   1.629  -0.684  0.00  0.00    +0.000 NA
ATOM      8  C1  UNL     1       4.128   1.799   0.375  0.00  0.00    +0.000 A 
ATOM      9  N2  UNL     1       2.929   1.145   0.322  0.00  0.00    +0.000 NA
ATOM     10  C2  UNL     1       3.008   0.539  -0.847  0.00  0.00    +0.000 A 
ENDBRANCH   5  10
ENDBRANCH   1   5
BRANCH   2  11
ATOM     11  C5  UNL     1      -1.028  -1.908   0.078  0.00  0.00    +0.000 C 
BRANCH  11  12
ATOM     12  C6  UNL     1      -1.949  -0.737   0.279  0.00  0.00    +0.000 A 
ATOM     13  C7  UNL     1      -2.059  -0.096   1.516  0.00  0.00    +0.000 A 
ATOM     14  C8  UNL     1      -2.921   0.988   1.655  0.00  0.00    +0.000 A 
ATOM     15  C9  UNL     1      -3.650   1.394   0.550  0.00  0.00    +0.000 A 
ATOM     16  N4  UNL     1      -3.574   0.797  -0.658  0.00  0.00    +0.000 NA
ATOM     17  C10 UNL     1      -2.732  -0.254  -0.767  0.00  0.00    +0.000 A 
ENDBRANCH  11  12
ENDBRANCH   2  11
TORSDOF 4
