REMARK  Name = /home/anacleto/Desktop/manuscript_Mpro/naturecomm/supplementary_file_S2/6-chemical-library/molecular_docking/3D_ligand_structure/7.pdb
REMARK  0 active torsions:
REMARK  status: ('A' for Active; 'I' for Inactive)
REMARK                            x       y       z     vdW  Elec       q    Type
REMARK                         _______ _______ _______ _____ _____    ______ ____
ROOT
ATOM      1  C1  UNL     1       2.102  -0.031  -0.029  0.00  0.00    +0.000 C 
ATOM      2  C2  UNL     1       0.786   0.157   0.081  0.00  0.00    +0.000 C 
ATOM      3  C3  UNL     1      -0.239  -0.791  -0.427  0.00  0.00    +0.000 C 
ATOM      4  O1  UNL     1      -0.008  -1.843  -0.998  0.00  0.00    +0.000 OA
ATOM      5  N1  UNL     1      -1.483  -0.304  -0.156  0.00  0.00    +0.000 N 
ATOM      6  C4  UNL     1      -1.578   0.887   0.489  0.00  0.00    +0.000 C 
ATOM      7  O2  UNL     1      -2.613   1.451   0.801  0.00  0.00    +0.000 OA
ATOM      8  S1  UNL     1       0.027   1.514   0.820  0.00  0.00    +0.000 S 
ATOM      9  H3  UNL     1      -2.310  -0.810  -0.426  0.00  0.00    +0.000 HD
ENDROOT
TORSDOF 0
