REMARK  Name = /home/anacleto/Desktop/manuscript_Mpro/naturecomm/supplementary_file_S2/6-chemical-library/molecular_docking/3D_ligand_structure/703.pdb
REMARK  3 active torsions:
REMARK  status: ('A' for Active; 'I' for Inactive)
REMARK    1  A    between atoms: N2_6  and  C4_7
REMARK    2  A    between atoms: C4_7  and  C5_8
REMARK    3  A    between atoms: N3_10  and  C6_11
REMARK                            x       y       z     vdW  Elec       q    Type
REMARK                         _______ _______ _______ _____ _____    ______ ____
ROOT
ATOM      1  C5  UNL     1       0.094   0.396   0.300  0.00  0.00    +0.000 C 
ATOM      2  O2  UNL     1      -0.032   1.136   1.274  0.00  0.00    +0.000 OA
ATOM      3  N3  UNL     1      -0.923  -0.284  -0.355  0.00  0.00    +0.000 N 
ATOM      4  H6  UNL     1      -0.658  -0.865  -1.139  0.00  0.00    +0.000 HD
ENDROOT
BRANCH   3   5
ATOM      5  C6  UNL     1      -2.299  -0.278  -0.044  0.00  0.00    +0.000 A 
ATOM      6  C7  UNL     1      -3.139  -1.059  -0.850  0.00  0.00    +0.000 A 
ATOM      7  C8  UNL     1      -4.515  -1.108  -0.612  0.00  0.00    +0.000 A 
ATOM      8  C9  UNL     1      -5.066  -0.377   0.436  0.00  0.00    +0.000 A 
ATOM      9  C10 UNL     1      -4.240   0.402   1.243  0.00  0.00    +0.000 A 
ATOM     10  C11 UNL     1      -2.863   0.452   1.004  0.00  0.00    +0.000 A 
ENDBRANCH   3   5
BRANCH   1  11
ATOM     11  C4  UNL     1       1.473   0.162  -0.340  0.00  0.00    +0.000 C 
BRANCH  11  17
ATOM     12  N1  UNL     1       4.745   1.122   1.007  0.00  0.00    +0.000 NA
ATOM     13  O1  UNL     1       5.945   0.958   0.341  0.00  0.00    +0.000 OA
ATOM     14  C1  UNL     1       5.745   0.189  -0.755  0.00  0.00    +0.000 A 
ATOM     15  C2  UNL     1       4.422  -0.160  -0.829  0.00  0.00    +0.000 A 
ATOM     16  C3  UNL     1       3.831   0.455   0.298  0.00  0.00    +0.000 A 
ATOM     17  N2  UNL     1       2.528   0.376   0.641  0.00  0.00    +0.000 N 
ATOM     18  H3  UNL     1       2.232   0.990   1.404  0.00  0.00    +0.000 HD
ENDBRANCH  11  17
ENDBRANCH   1  11
TORSDOF 3
