REMARK  Name = /home/anacleto/Desktop/manuscript_Mpro/naturecomm/supplementary_file_S2/6-chemical-library/molecular_docking/3D_ligand_structure/709.pdb
REMARK  4 active torsions:
REMARK  status: ('A' for Active; 'I' for Inactive)
REMARK    1  A    between atoms: C3_5  and  C4_6
REMARK    2  A    between atoms: C4_6  and  C5_7
REMARK    3  A    between atoms: N3_9  and  C6_10
REMARK    4  A    between atoms: C6_10  and  C7_11
REMARK                            x       y       z     vdW  Elec       q    Type
REMARK                         _______ _______ _______ _____ _____    ______ ____
ROOT
ATOM      1  C5  UNL     1       1.207  -0.757  -0.878  0.00  0.00    +0.000 C 
ATOM      2  O1  UNL     1       1.346  -1.968  -1.046  0.00  0.00    +0.000 OA
ATOM      3  N3  UNL     1       0.005  -0.176  -0.546  0.00  0.00    +0.000 N 
ATOM      4  H6  UNL     1       0.004   0.766  -0.177  0.00  0.00    +0.000 HD
ENDROOT
BRANCH   1   5
ATOM      5  C4  UNL     1       2.371   0.217  -1.006  0.00  0.00    +0.000 C 
BRANCH   5  10
ATOM      6  N1  UNL     1       3.848  -1.339   0.316  0.00  0.00    +0.000 N 
ATOM      7  C1  UNL     1       4.789  -1.233   1.298  0.00  0.00    +0.000 A 
ATOM      8  N2  UNL     1       4.986   0.019   1.642  0.00  0.00    +0.000 NA
ATOM      9  C2  UNL     1       4.136   0.751   0.855  0.00  0.00    +0.000 A 
ATOM     10  C3  UNL     1       3.406  -0.069   0.023  0.00  0.00    +0.000 A 
ATOM     11  H1  UNL     1       3.503  -2.198  -0.100  0.00  0.00    +0.000 HD
ENDBRANCH   5  10
ENDBRANCH   1   5
BRANCH   3  12
ATOM     12  C6  UNL     1      -1.154  -0.994  -0.274  0.00  0.00    +0.000 C 
BRANCH  12  13
ATOM     13  C7  UNL     1      -2.372  -0.135  -0.069  0.00  0.00    +0.000 A 
ATOM     14  C8  UNL     1      -3.097   0.340  -1.171  0.00  0.00    +0.000 A 
ATOM     15  C9  UNL     1      -4.210   1.161  -0.984  0.00  0.00    +0.000 A 
ATOM     16  C10 UNL     1      -4.605   1.520   0.303  0.00  0.00    +0.000 A 
ATOM     17  C11 UNL     1      -3.885   1.061   1.405  0.00  0.00    +0.000 A 
ATOM     18  C12 UNL     1      -2.772   0.240   1.221  0.00  0.00    +0.000 A 
ENDBRANCH  12  13
ENDBRANCH   3  12
TORSDOF 4
