REMARK  Name = /home/anacleto/Desktop/manuscript_Mpro/naturecomm/supplementary_file_S2/6-chemical-library/molecular_docking/3D_ligand_structure/73.pdb
REMARK  0 active torsions:
REMARK  status: ('A' for Active; 'I' for Inactive)
REMARK                            x       y       z     vdW  Elec       q    Type
REMARK                         _______ _______ _______ _____ _____    ______ ____
ROOT
ATOM      1  O1  UNL     1       1.843   1.760  -0.281  0.00  0.00    +0.000 OA
ATOM      2  C1  UNL     1       0.987   0.902  -0.165  0.00  0.00    +0.000 C 
ATOM      3  C2  UNL     1      -0.429   1.105   0.314  0.00  0.00    +0.000 C 
ATOM      4  C3  UNL     1      -1.097  -0.223  -0.030  0.00  0.00    +0.000 C 
ATOM      5  C4  UNL     1       0.043  -1.221   0.010  0.00  0.00    +0.000 C 
ATOM      6  N1  UNL     1       1.170  -0.444  -0.405  0.00  0.00    +0.000 N 
ATOM      7  H7  UNL     1       2.098  -0.801  -0.598  0.00  0.00    +0.000 HD
ENDROOT
TORSDOF 0
