REMARK  Name = /home/anacleto/Desktop/manuscript_Mpro/naturecomm/supplementary_file_S2/6-chemical-library/molecular_docking/3D_ligand_structure/767.pdb
REMARK  2 active torsions:
REMARK  status: ('A' for Active; 'I' for Inactive)
REMARK    1  A    between atoms: C4_6  and  C5_7
REMARK    2  A    between atoms: N3_9  and  C6_10
REMARK                            x       y       z     vdW  Elec       q    Type
REMARK                         _______ _______ _______ _____ _____    ______ ____
ROOT
ATOM      1  C5  UNL     1       0.655   0.783   0.672  0.00  0.00    +0.000 C 
ATOM      2  O1  UNL     1       0.377   1.109   1.822  0.00  0.00    +0.000 OA
ATOM      3  N3  UNL     1      -0.291   0.544  -0.308  0.00  0.00    +0.000 N 
ATOM      4  H10 UNL     1       0.090   0.071  -1.127  0.00  0.00    +0.000 HD
ENDROOT
BRANCH   1  10
ATOM      5  N1  UNL     1       2.172  -0.376  -0.927  0.00  0.00    +0.000 NA
ATOM      6  C1  UNL     1       3.532  -0.330  -1.513  0.00  0.00    +0.000 C 
ATOM      7  C2  UNL     1       4.670  -0.098  -0.485  0.00  0.00    +0.000 C 
ATOM      8  N2  UNL     1       4.265  -0.422   0.887  0.00  0.00    +0.000 NA
ATOM      9  C3  UNL     1       3.097   0.394   1.291  0.00  0.00    +0.000 C 
ATOM     10  C4  UNL     1       2.096   0.676   0.140  0.00  0.00    +0.000 C 
ATOM     11  H1  UNL     1       2.131  -1.264  -0.415  0.00  0.00    +0.000 HD
ATOM     12  H6  UNL     1       5.035  -0.252   1.534  0.00  0.00    +0.000 HD
ENDBRANCH   1  10
BRANCH   3  13
ATOM     13  C6  UNL     1      -1.708   0.437  -0.013  0.00  0.00    +0.000 C 
ATOM     14  C7  UNL     1      -2.052  -0.934   0.575  0.00  0.00    +0.000 C 
ATOM     15  C8  UNL     1      -3.524  -1.028   0.981  0.00  0.00    +0.000 C 
ATOM     16  C9  UNL     1      -4.446  -0.129   0.155  0.00  0.00    +0.000 C 
ATOM     17  C10 UNL     1      -3.923   0.069  -1.260  0.00  0.00    +0.000 C 
ATOM     18  C11 UNL     1      -2.539   0.723  -1.274  0.00  0.00    +0.000 C 
ENDBRANCH   3  13
TORSDOF 2
