REMARK  Name = /home/anacleto/Desktop/manuscript_Mpro/naturecomm/supplementary_file_S2/6-chemical-library/molecular_docking/3D_ligand_structure/771.pdb
REMARK  2 active torsions:
REMARK  status: ('A' for Active; 'I' for Inactive)
REMARK    1  A    between atoms: C6_6  and  N1_7
REMARK    2  A    between atoms: N2_9  and  C8_10
REMARK                            x       y       z     vdW  Elec       q    Type
REMARK                         _______ _______ _______ _____ _____    ______ ____
ROOT
ATOM      1  N1  UNL     1       1.202  -0.148   1.311  0.00  0.00    +0.000 N 
ATOM      2  C7  UNL     1      -0.130   0.110   1.143  0.00  0.00    +0.000 C 
ATOM      3  N2  UNL     1      -0.807  -0.092   0.072  0.00  0.00    +0.000 NA
ATOM      4  H12 UNL     1       1.651   0.296   2.104  0.00  0.00    +0.000 HD
ENDROOT
BRANCH   1  10
ATOM      5  C1  UNL     1       3.258  -1.317   0.736  0.00  0.00    +0.000 C 
ATOM      6  C2  UNL     1       4.506  -1.153  -0.122  0.00  0.00    +0.000 C 
ATOM      7  C3  UNL     1       4.992   0.297  -0.140  0.00  0.00    +0.000 C 
ATOM      8  C4  UNL     1       3.868   1.320   0.029  0.00  0.00    +0.000 C 
ATOM      9  C5  UNL     1       2.542   0.803  -0.518  0.00  0.00    +0.000 C 
ATOM     10  C6  UNL     1       2.082  -0.481   0.197  0.00  0.00    +0.000 C 
ENDBRANCH   1  10
BRANCH   3  11
ATOM     11  C8  UNL     1      -2.226   0.273   0.161  0.00  0.00    +0.000 C 
ATOM     12  C9  UNL     1      -2.674   0.759  -1.222  0.00  0.00    +0.000 C 
ATOM     13  C10 UNL     1      -4.175   1.034  -1.263  0.00  0.00    +0.000 C 
ATOM     14  C11 UNL     1      -4.981  -0.183  -0.817  0.00  0.00    +0.000 C 
ATOM     15  C12 UNL     1      -4.536  -0.681   0.555  0.00  0.00    +0.000 C 
ATOM     16  C13 UNL     1      -3.035  -0.955   0.595  0.00  0.00    +0.000 C 
ENDBRANCH   3  11
TORSDOF 2
