REMARK  Name = /home/anacleto/Desktop/manuscript_Mpro/naturecomm/supplementary_file_S2/6-chemical-library/molecular_docking/3D_ligand_structure/781.pdb
REMARK  1 active torsions:
REMARK  status: ('A' for Active; 'I' for Inactive)
REMARK    1  A    between atoms: C5_7  and  C6_9
REMARK                            x       y       z     vdW  Elec       q    Type
REMARK                         _______ _______ _______ _____ _____    ______ ____
ROOT
ATOM      1  C1  UNL     1       2.083   1.359  -0.495  0.00  0.00    +0.000 C 
ATOM      2  C2  UNL     1       3.312   0.455  -0.682  0.00  0.00    +0.000 C 
ATOM      3  N1  UNL     1       3.409  -0.598   0.342  0.00  0.00    +0.000 NA
ATOM      4  C3  UNL     1       2.173  -1.393   0.349  0.00  0.00    +0.000 C 
ATOM      5  C4  UNL     1       0.911  -0.537   0.566  0.00  0.00    +0.000 C 
ATOM      6  N2  UNL     1       0.837   0.597  -0.367  0.00  0.00    +0.000 N 
ATOM      7  C5  UNL     1      -0.341   1.272  -0.658  0.00  0.00    +0.000 C 
ATOM      8  O1  UNL     1      -0.381   2.405  -1.133  0.00  0.00    +0.000 OA
ATOM      9  H5  UNL     1       4.200  -1.204   0.125  0.00  0.00    +0.000 HD
ENDROOT
BRANCH   7  10
ATOM     10  C6  UNL     1      -1.614   0.556  -0.388  0.00  0.00    +0.000 A 
ATOM     11  C7  UNL     1      -2.349   0.985   0.649  0.00  0.00    +0.000 A 
ATOM     12  C8  UNL     1      -3.629   0.300   0.946  0.00  0.00    +0.000 A 
ATOM     13  O2  UNL     1      -4.323   0.636   1.898  0.00  0.00    +0.000 OA
ATOM     14  N3  UNL     1      -3.975  -0.730   0.103  0.00  0.00    +0.000 N 
ATOM     15  C9  UNL     1      -3.222  -1.135  -0.969  0.00  0.00    +0.000 A 
ATOM     16  C10 UNL     1      -2.061  -0.526  -1.239  0.00  0.00    +0.000 A 
ATOM     17  H11 UNL     1      -4.857  -1.184   0.308  0.00  0.00    +0.000 HD
ENDBRANCH   7  10
TORSDOF 1
