REMARK  Name = /home/anacleto/Desktop/manuscript_Mpro/naturecomm/supplementary_file_S2/6-chemical-library/molecular_docking/3D_ligand_structure/783.pdb
REMARK  2 active torsions:
REMARK  status: ('A' for Active; 'I' for Inactive)
REMARK    1  A    between atoms: C4_6  and  C5_7
REMARK    2  A    between atoms: N3_9  and  C6_10
REMARK                            x       y       z     vdW  Elec       q    Type
REMARK                         _______ _______ _______ _____ _____    ______ ____
ROOT
ATOM      1  C5  UNL     1       0.135  -0.920   0.321  0.00  0.00    +0.000 C 
ATOM      2  O1  UNL     1       0.456  -2.100   0.418  0.00  0.00    +0.000 OA
ATOM      3  N3  UNL     1       0.968   0.170   0.154  0.00  0.00    +0.000 N 
ATOM      4  H10 UNL     1       0.477   1.053   0.053  0.00  0.00    +0.000 HD
ENDROOT
BRANCH   1  10
ATOM      5  N1  UNL     1      -1.553   0.849  -0.221  0.00  0.00    +0.000 NA
ATOM      6  C1  UNL     1      -2.930   1.295   0.102  0.00  0.00    +0.000 C 
ATOM      7  C2  UNL     1      -3.994   0.167   0.081  0.00  0.00    +0.000 C 
ATOM      8  N2  UNL     1      -3.545  -1.014  -0.666  0.00  0.00    +0.000 NA
ATOM      9  C3  UNL     1      -2.300  -1.560  -0.076  0.00  0.00    +0.000 C 
ATOM     10  C4  UNL     1      -1.334  -0.473   0.463  0.00  0.00    +0.000 C 
ATOM     11  H1  UNL     1      -1.585   0.610  -1.221  0.00  0.00    +0.000 HD
ATOM     12  H6  UNL     1      -4.265  -1.736  -0.655  0.00  0.00    +0.000 HD
ENDBRANCH   1  10
BRANCH   3  13
ATOM     13  C6  UNL     1       2.356   0.152   0.038  0.00  0.00    +0.000 A 
ATOM     14  C7  UNL     1       2.992   1.372  -0.178  0.00  0.00    +0.000 A 
ATOM     15  C8  UNL     1       4.381   1.403  -0.298  0.00  0.00    +0.000 A 
ATOM     16  C9  UNL     1       5.095   0.218  -0.198  0.00  0.00    +0.000 A 
ATOM     17  C10 UNL     1       4.386  -0.949   0.019  0.00  0.00    +0.000 A 
ATOM     18  N4  UNL     1       3.042  -1.000   0.138  0.00  0.00    +0.000 NA
ENDBRANCH   3  13
TORSDOF 2
