REMARK  Name = /home/anacleto/Desktop/manuscript_Mpro/naturecomm/supplementary_file_S2/6-chemical-library/molecular_docking/3D_ligand_structure/786.pdb
REMARK  4 active torsions:
REMARK  status: ('A' for Active; 'I' for Inactive)
REMARK    1  A    between atoms: C3_4  and  N1_5
REMARK    2  A    between atoms: C4_6  and  C5_8
REMARK    3  A    between atoms: C5_8  and  N2_9
REMARK    4  A    between atoms: N2_9  and  C6_10
REMARK                            x       y       z     vdW  Elec       q    Type
REMARK                         _______ _______ _______ _____ _____    ______ ____
ROOT
ATOM      1  C5  UNL     1      -0.049   0.865  -1.151  0.00  0.00    +0.000 C 
ENDROOT
BRANCH   1   3
ATOM      2  N1  UNL     1       1.907  -0.282  -0.251  0.00  0.00    +0.000 N 
ATOM      3  C4  UNL     1       1.440   0.517  -1.277  0.00  0.00    +0.000 C 
ATOM      4  O2  UNL     1       2.156   0.947  -2.176  0.00  0.00    +0.000 OA
ATOM      5  H6  UNL     1       1.213  -0.518   0.457  0.00  0.00    +0.000 HD
BRANCH   2   9
ATOM      6  C1  UNL     1       3.741  -1.226   1.232  0.00  0.00    +0.000 C 
ATOM      7  O1  UNL     1       4.770  -0.218   1.369  0.00  0.00    +0.000 OA
ATOM      8  C2  UNL     1       4.314   0.442   0.163  0.00  0.00    +0.000 C 
ATOM      9  C3  UNL     1       3.320  -0.686  -0.139  0.00  0.00    +0.000 C 
ENDBRANCH   2   9
ENDBRANCH   1   3
BRANCH   1  10
ATOM     10  N2  UNL     1      -0.755  -0.196  -0.404  0.00  0.00    +0.000 N 
ATOM     11  H9  UNL     1      -0.627  -1.099  -0.865  0.00  0.00    +0.000 HD
BRANCH  10  12
ATOM     12  C6  UNL     1      -2.116  -0.010  -0.112  0.00  0.00    +0.000 A 
ATOM     13  C7  UNL     1      -2.900  -1.144   0.155  0.00  0.00    +0.000 A 
ATOM     14  C8  UNL     1      -4.246  -1.032   0.518  0.00  0.00    +0.000 A 
ATOM     15  C9  UNL     1      -4.826   0.224   0.652  0.00  0.00    +0.000 A 
ATOM     16  C10 UNL     1      -4.055   1.363   0.438  0.00  0.00    +0.000 A 
ATOM     17  C11 UNL     1      -2.709   1.245   0.073  0.00  0.00    +0.000 A 
ENDBRANCH  10  12
ENDBRANCH   1  10
TORSDOF 4
