REMARK  Name = /home/anacleto/Desktop/manuscript_Mpro/naturecomm/supplementary_file_S2/6-chemical-library/molecular_docking/3D_ligand_structure/79.pdb
REMARK  0 active torsions:
REMARK  status: ('A' for Active; 'I' for Inactive)
REMARK                            x       y       z     vdW  Elec       q    Type
REMARK                         _______ _______ _______ _____ _____    ______ ____
ROOT
ATOM      1  O1  UNL     1       2.346   0.520  -0.094  0.00  0.00    +0.000 OA
ATOM      2  C1  UNL     1       1.161   0.257  -0.046  0.00  0.00    +0.000 A 
ATOM      3  N1  UNL     1       0.558  -1.008  -0.057  0.00  0.00    +0.000 N 
ATOM      4  C2  UNL     1      -0.804  -0.864   0.011  0.00  0.00    +0.000 A 
ATOM      5  C3  UNL     1      -1.092   0.443   0.065  0.00  0.00    +0.000 A 
ATOM      6  N2  UNL     1       0.083   1.150   0.032  0.00  0.00    +0.000 N 
ATOM      7  H1  UNL     1       1.080  -1.869  -0.108  0.00  0.00    +0.000 HD
ATOM      8  H4  UNL     1       0.195   2.152   0.057  0.00  0.00    +0.000 HD
ENDROOT
TORSDOF 0
