REMARK  Name = /home/anacleto/Desktop/manuscript_Mpro/naturecomm/supplementary_file_S2/6-chemical-library/molecular_docking/3D_ligand_structure/800.pdb
REMARK  3 active torsions:
REMARK  status: ('A' for Active; 'I' for Inactive)
REMARK    1  A    between atoms: C6_6  and  C7_7
REMARK    2  A    between atoms: N1_9  and  C8_10
REMARK    3  A    between atoms: C8_10  and  C9_11
REMARK                            x       y       z     vdW  Elec       q    Type
REMARK                         _______ _______ _______ _____ _____    ______ ____
ROOT
ATOM      1  C7  UNL     1       1.256  -0.990  -0.687  0.00  0.00    +0.000 C 
ATOM      2  O1  UNL     1       1.120  -2.082  -1.227  0.00  0.00    +0.000 OA
ATOM      3  N1  UNL     1       0.244  -0.055  -0.592  0.00  0.00    +0.000 N 
ATOM      4  H6  UNL     1       0.516   0.906  -0.429  0.00  0.00    +0.000 HD
ENDROOT
BRANCH   1  10
ATOM      5  C1  UNL     1       3.732  -1.180  -0.648  0.00  0.00    +0.000 A 
ATOM      6  C2  UNL     1       4.987  -0.832  -0.146  0.00  0.00    +0.000 A 
ATOM      7  C3  UNL     1       5.091   0.096   0.890  0.00  0.00    +0.000 A 
ATOM      8  C4  UNL     1       3.942   0.672   1.431  0.00  0.00    +0.000 A 
ATOM      9  C5  UNL     1       2.683   0.329   0.931  0.00  0.00    +0.000 A 
ATOM     10  C6  UNL     1       2.575  -0.591  -0.121  0.00  0.00    +0.000 A 
ENDBRANCH   1  10
BRANCH   3  11
ATOM     11  C8  UNL     1      -1.028  -0.278  -1.253  0.00  0.00    +0.000 C 
BRANCH  11  12
ATOM     12  C9  UNL     1      -2.133   0.582  -0.655  0.00  0.00    +0.000 C 
ATOM     13  C10 UNL     1      -3.460   0.466  -1.404  0.00  0.00    +0.000 C 
ATOM     14  C11 UNL     1      -4.532   0.554  -0.322  0.00  0.00    +0.000 C 
ATOM     15  N2  UNL     1      -3.813   0.819   0.924  0.00  0.00    +0.000 NA
ATOM     16  C12 UNL     1      -2.505   0.185   0.766  0.00  0.00    +0.000 C 
ATOM     17  H14 UNL     1      -4.313   0.425   1.720  0.00  0.00    +0.000 HD
ENDBRANCH  11  12
ENDBRANCH   3  11
TORSDOF 3
