REMARK  Name = /home/anacleto/Desktop/manuscript_Mpro/naturecomm/supplementary_file_S2/6-chemical-library/molecular_docking/3D_ligand_structure/835.pdb
REMARK  3 active torsions:
REMARK  status: ('A' for Active; 'I' for Inactive)
REMARK    1  A    between atoms: N3_5  and  C3_6
REMARK    2  A    between atoms: C3_6  and  C4_7
REMARK    3  A    between atoms: N4_9  and  C5_10
REMARK                            x       y       z     vdW  Elec       q    Type
REMARK                         _______ _______ _______ _____ _____    ______ ____
ROOT
ATOM      1  C4  UNL     1       0.580  -0.283   1.590  0.00  0.00    +0.000 C 
ATOM      2  O1  UNL     1       0.116  -1.117   2.365  0.00  0.00    +0.000 OA
ATOM      3  N4  UNL     1      -0.080   0.299   0.521  0.00  0.00    +0.000 N 
ATOM      4  H5  UNL     1       0.483   0.912  -0.072  0.00  0.00    +0.000 HD
ENDROOT
BRANCH   3   5
ATOM      5  C5  UNL     1      -1.401   0.072   0.089  0.00  0.00    +0.000 A 
ATOM      6  C6  UNL     1      -2.311  -0.751   0.754  0.00  0.00    +0.000 A 
ATOM      7  C7  UNL     1      -3.608  -0.919   0.257  0.00  0.00    +0.000 A 
ATOM      8  C8  UNL     1      -4.005  -0.264  -0.907  0.00  0.00    +0.000 A 
ATOM      9  C9  UNL     1      -3.105   0.561  -1.576  0.00  0.00    +0.000 A 
ATOM     10  C10 UNL     1      -1.810   0.728  -1.080  0.00  0.00    +0.000 A 
ENDBRANCH   3   5
BRANCH   1  11
ATOM     11  C3  UNL     1       1.981   0.248   1.807  0.00  0.00    +0.000 C 
BRANCH  11  16
ATOM     12  N1  UNL     1       2.598   1.060  -0.396  0.00  0.00    +0.000 NA
ATOM     13  C1  UNL     1       3.523   0.649  -1.271  0.00  0.00    +0.000 A 
ATOM     14  N2  UNL     1       4.250  -0.438  -0.880  0.00  0.00    +0.000 NA
ATOM     15  C2  UNL     1       3.758  -0.719   0.304  0.00  0.00    +0.000 A 
ATOM     16  N3  UNL     1       2.779   0.172   0.606  0.00  0.00    +0.000 N 
ENDBRANCH  11  16
ENDBRANCH   1  11
TORSDOF 3
