REMARK  Name = /home/anacleto/Desktop/manuscript_Mpro/naturecomm/supplementary_file_S2/6-chemical-library/molecular_docking/3D_ligand_structure/838.pdb
REMARK  3 active torsions:
REMARK  status: ('A' for Active; 'I' for Inactive)
REMARK    1  A    between atoms: C3_5  and  C4_6
REMARK    2  A    between atoms: N3_8  and  C5_9
REMARK    3  A    between atoms: C5_9  and  C6_10
REMARK                            x       y       z     vdW  Elec       q    Type
REMARK                         _______ _______ _______ _____ _____    ______ ____
ROOT
ATOM      1  C4  UNL     1      -1.254  -0.948   0.739  0.00  0.00    +0.000 C 
ATOM      2  O1  UNL     1      -0.876  -2.089   0.987  0.00  0.00    +0.000 OA
ATOM      3  N3  UNL     1      -0.537   0.166   1.106  0.00  0.00    +0.000 N 
ATOM      4  H4  UNL     1      -0.823   1.068   0.758  0.00  0.00    +0.000 HD
ENDROOT
BRANCH   1   9
ATOM      5  N1  UNL     1      -3.270  -1.709  -0.424  0.00  0.00    +0.000 N 
ATOM      6  N2  UNL     1      -4.382  -1.300  -1.059  0.00  0.00    +0.000 NA
ATOM      7  C1  UNL     1      -4.301   0.029  -1.007  0.00  0.00    +0.000 A 
ATOM      8  C2  UNL     1      -3.142   0.469  -0.339  0.00  0.00    +0.000 A 
ATOM      9  C3  UNL     1      -2.480  -0.686   0.034  0.00  0.00    +0.000 A 
ATOM     10  H1  UNL     1      -3.092  -2.705  -0.328  0.00  0.00    +0.000 HD
ENDBRANCH   1   9
BRANCH   3  11
ATOM     11  C5  UNL     1       0.766   0.063   1.720  0.00  0.00    +0.000 C 
BRANCH  11  12
ATOM     12  C6  UNL     1       1.857   0.227   0.704  0.00  0.00    +0.000 A 
ATOM     13  C7  UNL     1       2.434   1.473   0.439  0.00  0.00    +0.000 A 
ATOM     14  C8  UNL     1       3.431   1.579  -0.526  0.00  0.00    +0.000 A 
ATOM     15  C9  UNL     1       3.816   0.433  -1.202  0.00  0.00    +0.000 A 
ATOM     16  N4  UNL     1       3.277  -0.784  -0.980  0.00  0.00    +0.000 NA
ATOM     17  C10 UNL     1       2.309  -0.860  -0.038  0.00  0.00    +0.000 A 
ENDBRANCH  11  12
ENDBRANCH   3  11
TORSDOF 3
