REMARK  Name = /home/anacleto/Desktop/manuscript_Mpro/naturecomm/supplementary_file_S2/6-chemical-library/molecular_docking/3D_ligand_structure/841.pdb
REMARK  3 active torsions:
REMARK  status: ('A' for Active; 'I' for Inactive)
REMARK    1  A    between atoms: C4_5  and  C5_6
REMARK    2  A    between atoms: N1_8  and  C6_9
REMARK    3  A    between atoms: C6_9  and  C7_10
REMARK                            x       y       z     vdW  Elec       q    Type
REMARK                         _______ _______ _______ _____ _____    ______ ____
ROOT
ATOM      1  C5  UNL     1       1.126  -0.874  -0.938  0.00  0.00    +0.000 C 
ATOM      2  O2  UNL     1       0.712  -1.249  -2.031  0.00  0.00    +0.000 OA
ATOM      3  N1  UNL     1       0.429  -1.082   0.232  0.00  0.00    +0.000 N 
ATOM      4  H4  UNL     1       0.801  -0.645   1.067  0.00  0.00    +0.000 HD
ENDROOT
BRANCH   1   9
ATOM      5  O1  UNL     1       2.752   0.229   0.504  0.00  0.00    +0.000 OA
ATOM      6  C1  UNL     1       3.948   0.862   0.385  0.00  0.00    +0.000 A 
ATOM      7  C2  UNL     1       4.355   0.882  -0.928  0.00  0.00    +0.000 A 
ATOM      8  C3  UNL     1       3.344   0.219  -1.664  0.00  0.00    +0.000 A 
ATOM      9  C4  UNL     1       2.378  -0.168  -0.755  0.00  0.00    +0.000 A 
ENDBRANCH   1   9
BRANCH   3  10
ATOM     10  C6  UNL     1      -0.894  -1.654   0.260  0.00  0.00    +0.000 C 
BRANCH  10  11
ATOM     11  C7  UNL     1      -1.946  -0.588   0.342  0.00  0.00    +0.000 A 
ATOM     12  C8  UNL     1      -2.327   0.148  -0.785  0.00  0.00    +0.000 A 
ATOM     13  C9  UNL     1      -3.296   1.139  -0.668  0.00  0.00    +0.000 A 
ATOM     14  C10 UNL     1      -3.853   1.367   0.579  0.00  0.00    +0.000 A 
ATOM     15  N2  UNL     1      -3.509   0.683   1.692  0.00  0.00    +0.000 NA
ATOM     16  C11 UNL     1      -2.565  -0.275   1.547  0.00  0.00    +0.000 A 
ENDBRANCH  10  11
ENDBRANCH   3  10
TORSDOF 3
