REMARK  Name = /home/anacleto/Desktop/manuscript_Mpro/naturecomm/supplementary_file_S2/6-chemical-library/molecular_docking/3D_ligand_structure/866.pdb
REMARK  3 active torsions:
REMARK  status: ('A' for Active; 'I' for Inactive)
REMARK    1  A    between atoms: C4_5  and  N1_6
REMARK    2  A    between atoms: C5_7  and  C6_9
REMARK    3  A    between atoms: C6_9  and  C7_10
REMARK                            x       y       z     vdW  Elec       q    Type
REMARK                         _______ _______ _______ _____ _____    ______ ____
ROOT
ATOM      1  N1  UNL     1      -0.445  -0.475  -0.218  0.00  0.00    +0.000 N 
ATOM      2  C5  UNL     1       0.558  -1.150  -0.895  0.00  0.00    +0.000 C 
ATOM      3  O1  UNL     1       0.585  -1.448  -2.087  0.00  0.00    +0.000 OA
ATOM      4  H4  UNL     1      -0.248  -0.236   0.753  0.00  0.00    +0.000 HD
ENDROOT
BRANCH   1   9
ATOM      5  S1  UNL     1      -2.109  -0.268  -2.340  0.00  0.00    +0.000 S 
ATOM      6  C1  UNL     1      -3.564   0.607  -2.130  0.00  0.00    +0.000 A 
ATOM      7  C2  UNL     1      -3.683   1.101  -0.851  0.00  0.00    +0.000 A 
ATOM      8  C3  UNL     1      -2.561   0.752  -0.043  0.00  0.00    +0.000 A 
ATOM      9  C4  UNL     1      -1.628   0.011  -0.737  0.00  0.00    +0.000 A 
ENDBRANCH   1   9
BRANCH   2  10
ATOM     10  C6  UNL     1       1.691  -1.592   0.020  0.00  0.00    +0.000 C 
BRANCH  10  11
ATOM     11  C7  UNL     1       2.237  -0.462   0.831  0.00  0.00    +0.000 A 
ATOM     12  C8  UNL     1       3.460   0.162   0.666  0.00  0.00    +0.000 A 
ATOM     13  S2  UNL     1       3.655   1.401   1.834  0.00  0.00    +0.000 S 
ATOM     14  C9  UNL     1       2.108   1.020   2.468  0.00  0.00    +0.000 A 
ATOM     15  N2  UNL     1       1.458   0.045   1.868  0.00  0.00    +0.000 NA
ENDBRANCH  10  11
ENDBRANCH   2  10
TORSDOF 3
