REMARK  Name = /home/anacleto/Desktop/manuscript_Mpro/naturecomm/supplementary_file_S2/6-chemical-library/molecular_docking/3D_ligand_structure/880.pdb
REMARK  3 active torsions:
REMARK  status: ('A' for Active; 'I' for Inactive)
REMARK    1  A    between atoms: C4_5  and  C5_6
REMARK    2  A    between atoms: N1_8  and  C6_9
REMARK    3  A    between atoms: C6_9  and  C7_10
REMARK                            x       y       z     vdW  Elec       q    Type
REMARK                         _______ _______ _______ _____ _____    ______ ____
ROOT
ATOM      1  C5  UNL     1      -1.044  -1.123   0.801  0.00  0.00    +0.000 C 
ATOM      2  O2  UNL     1      -0.990  -2.268   1.242  0.00  0.00    +0.000 OA
ATOM      3  N1  UNL     1       0.062  -0.474   0.301  0.00  0.00    +0.000 N 
ATOM      4  H4  UNL     1      -0.039   0.513   0.094  0.00  0.00    +0.000 HD
ENDROOT
BRANCH   1   9
ATOM      5  O1  UNL     1      -2.213   0.953   0.288  0.00  0.00    +0.000 OA
ATOM      6  C1  UNL     1      -3.472   1.455   0.374  0.00  0.00    +0.000 A 
ATOM      7  C2  UNL     1      -4.330   0.520   0.903  0.00  0.00    +0.000 A 
ATOM      8  C3  UNL     1      -3.548  -0.631   1.158  0.00  0.00    +0.000 A 
ATOM      9  C4  UNL     1      -2.256  -0.332   0.768  0.00  0.00    +0.000 A 
ENDBRANCH   1   9
BRANCH   3  10
ATOM     10  C6  UNL     1       1.378  -1.043   0.420  0.00  0.00    +0.000 C 
BRANCH  10  11
ATOM     11  C7  UNL     1       2.316  -0.249  -0.428  0.00  0.00    +0.000 A 
ATOM     12  C8  UNL     1       2.577  -0.392  -1.778  0.00  0.00    +0.000 A 
ATOM     13  C9  UNL     1       3.533   0.553  -2.249  0.00  0.00    +0.000 A 
ATOM     14  C10 UNL     1       3.969   1.389  -1.245  0.00  0.00    +0.000 A 
ATOM     15  S1  UNL     1       3.227   1.033   0.254  0.00  0.00    +0.000 S 
ENDBRANCH  10  11
ENDBRANCH   3  10
TORSDOF 3
