REMARK  Name = /home/anacleto/Desktop/manuscript_Mpro/naturecomm/supplementary_file_S2/6-chemical-library/molecular_docking/3D_ligand_structure/886.pdb
REMARK  1 active torsions:
REMARK  status: ('A' for Active; 'I' for Inactive)
REMARK    1  A    between atoms: C4_7  and  C5_9
REMARK                            x       y       z     vdW  Elec       q    Type
REMARK                         _______ _______ _______ _____ _____    ______ ____
ROOT
ATOM      1  S1  UNL     1       3.277  -1.286   0.160  0.00  0.00    +0.000 S 
ATOM      2  C1  UNL     1       4.742  -0.520  -0.289  0.00  0.00    +0.000 A 
ATOM      3  C2  UNL     1       4.468   0.736  -0.784  0.00  0.00    +0.000 A 
ATOM      4  N1  UNL     1       3.131   1.086  -0.810  0.00  0.00    +0.000 NA
ATOM      5  C3  UNL     1       2.410   0.092  -0.342  0.00  0.00    +0.000 A 
ATOM      6  N2  UNL     1       1.046   0.199  -0.257  0.00  0.00    +0.000 N 
ATOM      7  C4  UNL     1       0.161  -0.774   0.144  0.00  0.00    +0.000 C 
ATOM      8  O1  UNL     1       0.413  -1.934   0.446  0.00  0.00    +0.000 OA
ATOM      9  H3  UNL     1       0.706   1.082  -0.605  0.00  0.00    +0.000 HD
ENDROOT
BRANCH   7  10
ATOM     10  C5  UNL     1      -1.267  -0.341   0.162  0.00  0.00    +0.000 A 
ATOM     11  C6  UNL     1      -1.641   0.963   0.516  0.00  0.00    +0.000 A 
ATOM     12  C7  UNL     1      -2.991   1.324   0.519  0.00  0.00    +0.000 A 
ATOM     13  C8  UNL     1      -3.967   0.387   0.179  0.00  0.00    +0.000 A 
ATOM     14  C9  UNL     1      -3.600  -0.916  -0.156  0.00  0.00    +0.000 A 
ATOM     15  C10 UNL     1      -2.253  -1.282  -0.160  0.00  0.00    +0.000 A 
ENDBRANCH   7  10
TORSDOF 1
