REMARK  Name = /home/anacleto/Desktop/manuscript_Mpro/naturecomm/supplementary_file_S2/6-chemical-library/molecular_docking/3D_ligand_structure/889.pdb
REMARK  1 active torsions:
REMARK  status: ('A' for Active; 'I' for Inactive)
REMARK    1  A    between atoms: N2_8  and  C5_9
REMARK                            x       y       z     vdW  Elec       q    Type
REMARK                         _______ _______ _______ _____ _____    ______ ____
ROOT
ATOM      1  C1  UNL     1       4.959  -0.408  -0.610  0.00  0.00    +0.000 C 
ATOM      2  C2  UNL     1       3.632  -0.305  -0.503  0.00  0.00    +0.000 C 
ATOM      3  C3  UNL     1       2.833  -0.786   0.660  0.00  0.00    +0.000 C 
ATOM      4  O1  UNL     1       3.331  -1.327   1.636  0.00  0.00    +0.000 OA
ATOM      5  N1  UNL     1       1.491  -0.542   0.485  0.00  0.00    +0.000 NA
ATOM      6  C4  UNL     1       1.210   0.042  -0.630  0.00  0.00    +0.000 C 
ATOM      7  S1  UNL     1       2.590   0.394  -1.670  0.00  0.00    +0.000 S 
ATOM      8  N2  UNL     1       0.013   0.439  -1.148  0.00  0.00    +0.000 N 
ATOM      9  H3  UNL     1       0.061   0.882  -2.055  0.00  0.00    +0.000 HD
ENDROOT
BRANCH   8  10
ATOM     10  C5  UNL     1      -1.279   0.325  -0.610  0.00  0.00    +0.000 A 
ATOM     11  C6  UNL     1      -2.361   0.822  -1.358  0.00  0.00    +0.000 A 
ATOM     12  C7  UNL     1      -3.674   0.742  -0.884  0.00  0.00    +0.000 A 
ATOM     13  C8  UNL     1      -3.931   0.161   0.353  0.00  0.00    +0.000 A 
ATOM     14  C9  UNL     1      -2.875  -0.337   1.110  0.00  0.00    +0.000 A 
ATOM     15  C10 UNL     1      -1.562  -0.255   0.631  0.00  0.00    +0.000 A 
ENDBRANCH   8  10
TORSDOF 1
