REMARK  Name = /home/anacleto/Desktop/manuscript_Mpro/naturecomm/supplementary_file_S2/6-chemical-library/molecular_docking/3D_ligand_structure/900.pdb
REMARK  1 active torsions:
REMARK  status: ('A' for Active; 'I' for Inactive)
REMARK    1  A    between atoms: C4_8  and  N3_9
REMARK                            x       y       z     vdW  Elec       q    Type
REMARK                         _______ _______ _______ _____ _____    ______ ____
ROOT
ATOM      1  N1  UNL     1       1.645   1.053   0.128  0.00  0.00    +0.000 N 
ATOM      2  C1  UNL     1       3.007   1.113   0.153  0.00  0.00    +0.000 A 
ATOM      3  O1  UNL     1       3.604   2.174   0.304  0.00  0.00    +0.000 OA
ATOM      4  N2  UNL     1       3.660  -0.070   0.006  0.00  0.00    +0.000 N 
ATOM      5  C2  UNL     1       3.039  -1.274  -0.118  0.00  0.00    +0.000 A 
ATOM      6  O2  UNL     1       3.651  -2.332  -0.212  0.00  0.00    +0.000 OA
ATOM      7  C3  UNL     1       1.566  -1.245  -0.133  0.00  0.00    +0.000 A 
ATOM      8  C4  UNL     1       0.896  -0.086  -0.013  0.00  0.00    +0.000 A 
ATOM      9  H1  UNL     1       1.179   1.936   0.267  0.00  0.00    +0.000 HD
ATOM     10  H2  UNL     1       4.667  -0.056   0.031  0.00  0.00    +0.000 HD
ENDROOT
BRANCH   8  11
ATOM     11  N3  UNL     1      -0.498  -0.006  -0.022  0.00  0.00    +0.000 N 
ATOM     12  C5  UNL     1      -1.236   1.248  -0.297  0.00  0.00    +0.000 C 
ATOM     13  C6  UNL     1      -2.597   0.953  -0.945  0.00  0.00    +0.000 C 
ATOM     14  O3  UNL     1      -3.461   0.150  -0.130  0.00  0.00    +0.000 OA
ATOM     15  C7  UNL     1      -2.748  -0.742   0.736  0.00  0.00    +0.000 C 
ATOM     16  C8  UNL     1      -1.382  -1.179   0.185  0.00  0.00    +0.000 C 
ENDBRANCH   8  11
TORSDOF 1
