REMARK  Name = /home/anacleto/Desktop/manuscript_Mpro/naturecomm/supplementary_file_S2/6-chemical-library/molecular_docking/3D_ligand_structure/902.pdb
REMARK  2 active torsions:
REMARK  status: ('A' for Active; 'I' for Inactive)
REMARK    1  A    between atoms: C2_5  and  C4_8
REMARK    2  A    between atoms: C4_8  and  C5_9
REMARK                            x       y       z     vdW  Elec       q    Type
REMARK                         _______ _______ _______ _____ _____    ______ ____
ROOT
ATOM      1  N1  UNL     1       4.060   0.361   0.588  0.00  0.00    +0.000 N 
ATOM      2  C1  UNL     1       4.203  -0.346  -0.555  0.00  0.00    +0.000 C 
ATOM      3  O1  UNL     1       5.241  -0.806  -0.994  0.00  0.00    +0.000 OA
ATOM      4  N2  UNL     1       2.976  -0.443  -1.164  0.00  0.00    +0.000 N 
ATOM      5  C2  UNL     1       1.954   0.306  -0.466  0.00  0.00    +0.000 C 
ATOM      6  C3  UNL     1       2.786   0.819   0.717  0.00  0.00    +0.000 C 
ATOM      7  O2  UNL     1       2.389   1.533   1.625  0.00  0.00    +0.000 OA
ATOM      8  H1  UNL     1       4.818   0.591   1.207  0.00  0.00    +0.000 HD
ATOM      9  H2  UNL     1       2.892  -0.843  -2.090  0.00  0.00    +0.000 HD
ENDROOT
BRANCH   5  10
ATOM     10  C4  UNL     1       0.801  -0.596  -0.034  0.00  0.00    +0.000 C 
BRANCH  10  11
ATOM     11  C5  UNL     1      -0.444   0.169   0.465  0.00  0.00    +0.000 C 
ATOM     12  C6  UNL     1      -1.377  -0.803   1.217  0.00  0.00    +0.000 C 
ATOM     13  C7  UNL     1      -2.795  -0.256   1.316  0.00  0.00    +0.000 C 
ATOM     14  C8  UNL     1      -3.427  -0.075  -0.064  0.00  0.00    +0.000 C 
ATOM     15  C9  UNL     1      -2.402   0.159  -1.174  0.00  0.00    +0.000 C 
ATOM     16  C10 UNL     1      -1.178   0.916  -0.670  0.00  0.00    +0.000 C 
ENDBRANCH  10  11
ENDBRANCH   5  10
TORSDOF 2
