REMARK  Name = /home/anacleto/Desktop/manuscript_Mpro/naturecomm/supplementary_file_S2/6-chemical-library/molecular_docking/3D_ligand_structure/907.pdb
REMARK  2 active torsions:
REMARK  status: ('A' for Active; 'I' for Inactive)
REMARK    1  A    between atoms: C3_5  and  C4_6
REMARK    2  A    between atoms: N2_8  and  C5_9
REMARK                            x       y       z     vdW  Elec       q    Type
REMARK                         _______ _______ _______ _____ _____    ______ ____
ROOT
ATOM      1  C4  UNL     1       1.688   0.184   0.856  0.00  0.00    +0.000 C 
ATOM      2  O2  UNL     1       1.880   0.965   1.783  0.00  0.00    +0.000 OA
ATOM      3  N2  UNL     1       0.427  -0.310   0.561  0.00  0.00    +0.000 N 
ATOM      4  H3  UNL     1       0.280  -0.717  -0.350  0.00  0.00    +0.000 HD
ENDROOT
BRANCH   3   5
ATOM      5  C5  UNL     1      -0.756   0.191   1.265  0.00  0.00    +0.000 C 
ATOM      6  C6  UNL     1      -1.918  -0.807   1.140  0.00  0.00    +0.000 C 
ATOM      7  C7  UNL     1      -2.935  -0.413   0.065  0.00  0.00    +0.000 C 
ATOM      8  C8  UNL     1      -2.288   0.344  -1.091  0.00  0.00    +0.000 C 
ATOM      9  N3  UNL     1      -1.613   1.570  -0.672  0.00  0.00    +0.000 NA
ATOM     10  C9  UNL     1      -1.177   1.577   0.733  0.00  0.00    +0.000 C 
ATOM     11  H11 UNL     1      -0.822   1.766  -1.284  0.00  0.00    +0.000 HD
ENDBRANCH   3   5
BRANCH   1  16
ATOM     12  N1  UNL     1       4.017   0.315  -0.074  0.00  0.00    +0.000 NA
ATOM     13  C1  UNL     1       4.667  -0.389  -0.970  0.00  0.00    +0.000 A 
ATOM     14  O1  UNL     1       3.955  -1.401  -1.532  0.00  0.00    +0.000 OA
ATOM     15  C2  UNL     1       2.740  -1.324  -0.921  0.00  0.00    +0.000 A 
ATOM     16  C3  UNL     1       2.761  -0.272  -0.028  0.00  0.00    +0.000 A 
ENDBRANCH   1  16
TORSDOF 2
