REMARK  Name = /home/anacleto/Desktop/manuscript_Mpro/naturecomm/supplementary_file_S2/6-chemical-library/molecular_docking/3D_ligand_structure/928.pdb
REMARK  4 active torsions:
REMARK  status: ('A' for Active; 'I' for Inactive)
REMARK    1  A    between atoms: C4_5  and  C5_6
REMARK    2  A    between atoms: C5_6  and  N1_7
REMARK    3  A    between atoms: N1_7  and  C6_8
REMARK    4  A    between atoms: C6_8  and  C7_9
REMARK                            x       y       z     vdW  Elec       q    Type
REMARK                         _______ _______ _______ _____ _____    ______ ____
ROOT
ATOM      1  N1  UNL     1      -0.082  -0.624   0.167  0.00  0.00    +0.000 NA
ATOM      2  H10 UNL     1      -0.174   0.256   0.669  0.00  0.00    +0.000 HD
ENDROOT
BRANCH   1   3
ATOM      3  C5  UNL     1      -1.236  -1.493   0.434  0.00  0.00    +0.000 C 
BRANCH   3   8
ATOM      4  O1  UNL     1      -2.604  -0.866  -1.518  0.00  0.00    +0.000 OA
ATOM      5  C1  UNL     1      -3.212   0.376  -1.895  0.00  0.00    +0.000 C 
ATOM      6  C2  UNL     1      -3.898   0.915  -0.658  0.00  0.00    +0.000 C 
ATOM      7  C3  UNL     1      -2.977   0.437   0.437  0.00  0.00    +0.000 C 
ATOM      8  C4  UNL     1      -2.580  -0.940  -0.078  0.00  0.00    +0.000 C 
ENDBRANCH   3   8
ENDBRANCH   1   3
BRANCH   1   9
ATOM      9  C6  UNL     1       1.170  -1.264   0.567  0.00  0.00    +0.000 C 
BRANCH   9  10
ATOM     10  C7  UNL     1       2.340  -0.330   0.368  0.00  0.00    +0.000 A 
ATOM     11  C8  UNL     1       2.701   0.089  -0.922  0.00  0.00    +0.000 A 
ATOM     12  C9  UNL     1       3.782   0.950  -1.113  0.00  0.00    +0.000 A 
ATOM     13  C10 UNL     1       4.516   1.401  -0.018  0.00  0.00    +0.000 A 
ATOM     14  C11 UNL     1       4.167   0.995   1.269  0.00  0.00    +0.000 A 
ATOM     15  C12 UNL     1       3.084   0.134   1.462  0.00  0.00    +0.000 A 
ENDBRANCH   9  10
ENDBRANCH   1   9
TORSDOF 4
