REMARK  Name = /home/anacleto/Desktop/manuscript_Mpro/naturecomm/supplementary_file_S2/6-chemical-library/molecular_docking/3D_ligand_structure/936.pdb
REMARK  2 active torsions:
REMARK  status: ('A' for Active; 'I' for Inactive)
REMARK    1  A    between atoms: C4_5  and  C5_6
REMARK    2  A    between atoms: N1_8  and  C6_9
REMARK                            x       y       z     vdW  Elec       q    Type
REMARK                         _______ _______ _______ _____ _____    ______ ____
ROOT
ATOM      1  C5  UNL     1      -0.331  -0.454   0.861  0.00  0.00    +0.000 C 
ATOM      2  O2  UNL     1      -0.013  -1.509   1.400  0.00  0.00    +0.000 OA
ATOM      3  N1  UNL     1       0.478   0.366   0.092  0.00  0.00    +0.000 N 
ATOM      4  H8  UNL     1      -0.007   1.166  -0.309  0.00  0.00    +0.000 HD
ENDROOT
BRANCH   3   5
ATOM      5  C6  UNL     1       1.828   0.186  -0.253  0.00  0.00    +0.000 A 
ATOM      6  C7  UNL     1       2.611  -0.877   0.199  0.00  0.00    +0.000 A 
ATOM      7  C8  UNL     1       3.951  -0.983  -0.189  0.00  0.00    +0.000 A 
ATOM      8  C9  UNL     1       4.517  -0.029  -1.031  0.00  0.00    +0.000 A 
ATOM      9  C10 UNL     1       3.743   1.036  -1.486  0.00  0.00    +0.000 A 
ATOM     10  C11 UNL     1       2.405   1.142  -1.098  0.00  0.00    +0.000 A 
ENDBRANCH   3   5
BRANCH   1  15
ATOM     11  O1  UNL     1      -2.061   1.072  -0.034  0.00  0.00    +0.000 OA
ATOM     12  C1  UNL     1      -3.319   0.678  -0.598  0.00  0.00    +0.000 C 
ATOM     13  C2  UNL     1      -3.997  -0.184   0.441  0.00  0.00    +0.000 C 
ATOM     14  C3  UNL     1      -2.825  -0.909   1.052  0.00  0.00    +0.000 C 
ATOM     15  C4  UNL     1      -1.735   0.151   1.030  0.00  0.00    +0.000 C 
ENDBRANCH   1  15
TORSDOF 2
