REMARK  Name = /home/anacleto/Desktop/manuscript_Mpro/naturecomm/supplementary_file_S2/6-chemical-library/molecular_docking/3D_ligand_structure/94.pdb
REMARK  0 active torsions:
REMARK  status: ('A' for Active; 'I' for Inactive)
REMARK                            x       y       z     vdW  Elec       q    Type
REMARK                         _______ _______ _______ _____ _____    ______ ____
ROOT
ATOM      1  C1  UNL     1       1.180   0.121  -0.121  0.00  0.00    +0.000 A 
ATOM      2  N1  UNL     1       0.697  -1.098  -0.018  0.00  0.00    +0.000 NA
ATOM      3  N2  UNL     1      -0.685  -1.108  -0.039  0.00  0.00    +0.000 NA
ATOM      4  C2  UNL     1      -1.181   0.105  -0.157  0.00  0.00    +0.000 A 
ATOM      5  S1  UNL     1      -0.007   1.353  -0.251  0.00  0.00    +0.000 S 
ENDROOT
TORSDOF 0
