REMARK  Name = /home/anacleto/Desktop/manuscript_Mpro/naturecomm/supplementary_file_S2/6-chemical-library/molecular_docking/3D_ligand_structure/95.pdb
REMARK  0 active torsions:
REMARK  status: ('A' for Active; 'I' for Inactive)
REMARK                            x       y       z     vdW  Elec       q    Type
REMARK                         _______ _______ _______ _____ _____    ______ ____
ROOT
ATOM      1  C1  UNL     1      -1.046  -0.223  -0.143  0.00  0.00    +0.000 A 
ATOM      2  N1  UNL     1       0.088  -0.987   0.081  0.00  0.00    +0.000 NA
ATOM      3  C2  UNL     1       1.120  -0.171   0.100  0.00  0.00    +0.000 A 
ATOM      4  S1  UNL     1       0.673   1.467  -0.153  0.00  0.00    +0.000 S 
ATOM      5  N2  UNL     1      -0.953   1.098  -0.294  0.00  0.00    +0.000 NA
ENDROOT
TORSDOF 0
