REMARK  Name = /home/anacleto/Desktop/manuscript_Mpro/naturecomm/supplementary_file_S2/6-chemical-library/molecular_docking/3D_ligand_structure/96.pdb
REMARK  0 active torsions:
REMARK  status: ('A' for Active; 'I' for Inactive)
REMARK                            x       y       z     vdW  Elec       q    Type
REMARK                         _______ _______ _______ _____ _____    ______ ____
ROOT
ATOM      1  C1  UNL     1      -0.455  -0.651   0.181  0.00  0.00    +0.000 A 
ATOM      2  C2  UNL     1      -0.477   0.661  -0.247  0.00  0.00    +0.000 A 
ATOM      3  S1  UNL     1       1.085   1.309   0.043  0.00  0.00    +0.000 S 
ATOM      4  N1  UNL     1       1.662  -0.125   0.687  0.00  0.00    +0.000 NA
ATOM      5  N2  UNL     1       0.751  -1.085   0.705  0.00  0.00    +0.000 NA
ENDROOT
TORSDOF 0
