REMARK  Name = /home/anacleto/Desktop/manuscript_Mpro/naturecomm/supplementary_file_S2/6-chemical-library/molecular_docking/3D_ligand_structure/961.pdb
REMARK  2 active torsions:
REMARK  status: ('A' for Active; 'I' for Inactive)
REMARK    1  A    between atoms: C2_5  and  C3_6
REMARK    2  A    between atoms: N4_8  and  C4_9
REMARK                            x       y       z     vdW  Elec       q    Type
REMARK                         _______ _______ _______ _____ _____    ______ ____
ROOT
ATOM      1  C3  UNL     1      -1.154   0.847  -0.298  0.00  0.00    +0.000 C 
ATOM      2  O1  UNL     1      -0.837   1.940  -0.753  0.00  0.00    +0.000 OA
ATOM      3  N4  UNL     1      -0.304  -0.173   0.082  0.00  0.00    +0.000 N 
ATOM      4  H3  UNL     1      -0.786  -0.997   0.434  0.00  0.00    +0.000 HD
ENDROOT
BRANCH   1   9
ATOM      5  N1  UNL     1      -2.961  -0.704   0.399  0.00  0.00    +0.000 NA
ATOM      6  N2  UNL     1      -4.300  -0.558   0.391  0.00  0.00    +0.000 N 
ATOM      7  N3  UNL     1      -4.809   0.600  -0.057  0.00  0.00    +0.000 NA
ATOM      8  C1  UNL     1      -3.698   1.272  -0.372  0.00  0.00    +0.000 A 
ATOM      9  C2  UNL     1      -2.560   0.487  -0.099  0.00  0.00    +0.000 A 
ATOM     10  H1  UNL     1      -4.912  -1.304   0.717  0.00  0.00    +0.000 HD
ENDBRANCH   1   9
BRANCH   3  11
ATOM     11  C4  UNL     1       1.100  -0.205   0.040  0.00  0.00    +0.000 A 
ATOM     12  C5  UNL     1       1.890   0.851  -0.417  0.00  0.00    +0.000 A 
ATOM     13  C6  UNL     1       3.285   0.739  -0.425  0.00  0.00    +0.000 A 
ATOM     14  C7  UNL     1       3.898  -0.429   0.023  0.00  0.00    +0.000 A 
ATOM     15  C8  UNL     1       3.119  -1.487   0.481  0.00  0.00    +0.000 A 
ATOM     16  C9  UNL     1       1.726  -1.375   0.490  0.00  0.00    +0.000 A 
ENDBRANCH   3  11
TORSDOF 2
