REMARK  Name = /home/anacleto/Desktop/manuscript_Mpro/naturecomm/supplementary_file_S2/6-chemical-library/molecular_docking/3D_ligand_structure/975.pdb
REMARK  4 active torsions:
REMARK  status: ('A' for Active; 'I' for Inactive)
REMARK    1  A    between atoms: N3_5  and  C3_6
REMARK    2  A    between atoms: C3_6  and  C4_7
REMARK    3  A    between atoms: C4_7  and  C5_8
REMARK    4  A    between atoms: C5_8  and  C6_9
REMARK                            x       y       z     vdW  Elec       q    Type
REMARK                         _______ _______ _______ _____ _____    ______ ____
ROOT
ATOM      1  C4  UNL     1       0.669   0.121   0.141  0.00  0.00    +0.000 C 
ENDROOT
BRANCH   1   2
ATOM      2  C3  UNL     1       1.983   0.336   0.886  0.00  0.00    +0.000 C 
BRANCH   2   7
ATOM      3  N1  UNL     1       3.517   1.434  -0.644  0.00  0.00    +0.000 NA
ATOM      4  C1  UNL     1       4.571   0.981  -1.328  0.00  0.00    +0.000 A 
ATOM      5  N2  UNL     1       4.858  -0.343  -1.149  0.00  0.00    +0.000 NA
ATOM      6  C2  UNL     1       3.927  -0.733  -0.309  0.00  0.00    +0.000 A 
ATOM      7  N3  UNL     1       3.122   0.318  -0.005  0.00  0.00    +0.000 N 
ENDBRANCH   2   7
ENDBRANCH   1   2
BRANCH   1   8
ATOM      8  C5  UNL     1      -0.519   0.178   1.102  0.00  0.00    +0.000 C 
BRANCH   8   9
ATOM      9  C6  UNL     1      -1.824  -0.066   0.389  0.00  0.00    +0.000 A 
ATOM     10  C7  UNL     1      -2.375  -1.353   0.333  0.00  0.00    +0.000 A 
ATOM     11  C8  UNL     1      -3.575  -1.579  -0.343  0.00  0.00    +0.000 A 
ATOM     12  C9  UNL     1      -4.232  -0.524  -0.973  0.00  0.00    +0.000 A 
ATOM     13  C10 UNL     1      -3.689   0.758  -0.929  0.00  0.00    +0.000 A 
ATOM     14  C11 UNL     1      -2.489   0.987  -0.253  0.00  0.00    +0.000 A 
ENDBRANCH   8   9
ENDBRANCH   1   8
TORSDOF 4
