REMARK  Name = /home/anacleto/Desktop/manuscript_Mpro/naturecomm/supplementary_file_S2/6-chemical-library/molecular_docking/3D_ligand_structure/98.pdb
REMARK  0 active torsions:
REMARK  status: ('A' for Active; 'I' for Inactive)
REMARK                            x       y       z     vdW  Elec       q    Type
REMARK                         _______ _______ _______ _____ _____    ______ ____
ROOT
ATOM      1  C1  UNL     1      -0.692   0.699   0.104  0.00  0.00    +0.000 A 
ATOM      2  C2  UNL     1      -0.947  -0.571   0.578  0.00  0.00    +0.000 A 
ATOM      3  S1  UNL     1       0.525  -1.438   0.732  0.00  0.00    +0.000 S 
ATOM      4  C3  UNL     1       1.371  -0.059   0.159  0.00  0.00    +0.000 A 
ATOM      5  N1  UNL     1       0.637   0.991  -0.136  0.00  0.00    +0.000 NA
ENDROOT
TORSDOF 0
