MODEL 1
REMARK VINA RESULT:    -4.150      0.000      0.000
REMARK INTER + INTRA:          -4.150
REMARK INTER:                  -4.150
REMARK INTRA:                   0.000
REMARK UNBOUND:                 0.000
REMARK  Name = /home/anacleto/Desktop/manuscript_Mpro/naturecomm/supplementary_file_S2/6-chemical-library/molecular_docking/3D_ligand_structure/201.pdb
REMARK  0 active torsions:
REMARK  status: ('A' for Active; 'I' for Inactive)
REMARK                            x       y       z     vdW  Elec       q    Type
REMARK                         _______ _______ _______ _____ _____    ______ ____
ROOT
ATOM      1  N1  UNL     1      14.122  10.461  -4.237  0.00  0.00    +0.000 N 
ATOM      2  C1  UNL     1      13.405  10.666  -5.385  0.00  0.00    +0.000 A 
ATOM      3  N2  UNL     1      13.476  11.917  -5.787  0.00  0.00    +0.000 NA
ATOM      4  C2  UNL     1      14.265  12.538  -4.866  0.00  0.00    +0.000 A 
ATOM      5  C3  UNL     1      14.680  11.661  -3.894  0.00  0.00    +0.000 A 
ATOM      6  N3  UNL     1      14.633  13.886  -4.865  0.00  0.00    +0.000 NA
ATOM      7  C4  UNL     1      15.392  14.219  -3.870  0.00  0.00    +0.000 A 
ATOM      8  N4  UNL     1      15.845  13.390  -2.863  0.00  0.00    +0.000 N 
ATOM      9  C5  UNL     1      15.511  12.061  -2.819  0.00  0.00    +0.000 A 
ATOM     10  S1  UNL     1      16.024  11.021  -1.635  0.00  0.00    +0.000 S 
ATOM     11  H1  UNL     1      14.221   9.588  -3.735  0.00  0.00    +0.000 HD
ATOM     12  H4  UNL     1      16.437  13.757  -2.131  0.00  0.00    +0.000 HD
ENDROOT
TORSDOF 0
ENDMDL
MODEL 2
REMARK VINA RESULT:    -4.087      2.089      3.079
REMARK INTER + INTRA:          -4.087
REMARK INTER:                  -4.087
REMARK INTRA:                   0.000
REMARK UNBOUND:                 0.000
REMARK  Name = /home/anacleto/Desktop/manuscript_Mpro/naturecomm/supplementary_file_S2/6-chemical-library/molecular_docking/3D_ligand_structure/201.pdb
REMARK  0 active torsions:
REMARK  status: ('A' for Active; 'I' for Inactive)
REMARK                            x       y       z     vdW  Elec       q    Type
REMARK                         _______ _______ _______ _____ _____    ______ ____
ROOT
ATOM      1  N1  UNL     1      15.277  10.720  -3.379  0.00  0.00    +0.000 N 
ATOM      2  C1  UNL     1      15.973  10.635  -2.204  0.00  0.00    +0.000 A 
ATOM      3  N2  UNL     1      16.090  11.809  -1.620  0.00  0.00    +0.000 NA
ATOM      4  C2  UNL     1      15.447  12.678  -2.449  0.00  0.00    +0.000 A 
ATOM      5  C3  UNL     1      14.933  12.033  -3.546  0.00  0.00    +0.000 A 
ATOM      6  N3  UNL     1      15.302  14.055  -2.254  0.00  0.00    +0.000 NA
ATOM      7  C4  UNL     1      14.645  14.649  -3.198  0.00  0.00    +0.000 A 
ATOM      8  N4  UNL     1      14.103  14.062  -4.324  0.00  0.00    +0.000 N 
ATOM      9  C5  UNL     1      14.219  12.717  -4.561  0.00  0.00    +0.000 A 
ATOM     10  S1  UNL     1      13.589  11.959  -5.893  0.00  0.00    +0.000 S 
ATOM     11  H1  UNL     1      15.056   9.958  -4.006  0.00  0.00    +0.000 HD
ATOM     12  H4  UNL     1      13.606  14.624  -5.000  0.00  0.00    +0.000 HD
ENDROOT
TORSDOF 0
ENDMDL
MODEL 3
REMARK VINA RESULT:    -3.984      2.053      3.654
REMARK INTER + INTRA:          -3.984
REMARK INTER:                  -3.984
REMARK INTRA:                   0.000
REMARK UNBOUND:                 0.000
REMARK  Name = /home/anacleto/Desktop/manuscript_Mpro/naturecomm/supplementary_file_S2/6-chemical-library/molecular_docking/3D_ligand_structure/201.pdb
REMARK  0 active torsions:
REMARK  status: ('A' for Active; 'I' for Inactive)
REMARK                            x       y       z     vdW  Elec       q    Type
REMARK                         _______ _______ _______ _____ _____    ______ ____
ROOT
ATOM      1  N1  UNL     1      14.200  14.171  -4.181  0.00  0.00    +0.000 N 
ATOM      2  C1  UNL     1      14.686  14.968  -3.180  0.00  0.00    +0.000 A 
ATOM      3  N2  UNL     1      15.352  14.273  -2.282  0.00  0.00    +0.000 NA
ATOM      4  C2  UNL     1      15.293  12.985  -2.722  0.00  0.00    +0.000 A 
ATOM      5  C3  UNL     1      14.587  12.891  -3.895  0.00  0.00    +0.000 A 
ATOM      6  N3  UNL     1      15.861  11.870  -2.098  0.00  0.00    +0.000 NA
ATOM      7  C4  UNL     1      15.655  10.758  -2.728  0.00  0.00    +0.000 A 
ATOM      8  N4  UNL     1      14.956  10.595  -3.908  0.00  0.00    +0.000 N 
ATOM      9  C5  UNL     1      14.381  11.656  -4.558  0.00  0.00    +0.000 A 
ATOM     10  S1  UNL     1      13.533  11.518  -5.974  0.00  0.00    +0.000 S 
ATOM     11  H1  UNL     1      13.659  14.470  -4.981  0.00  0.00    +0.000 HD
ATOM     12  H4  UNL     1      14.856   9.675  -4.315  0.00  0.00    +0.000 HD
ENDROOT
TORSDOF 0
ENDMDL
MODEL 4
REMARK VINA RESULT:    -3.856      2.141      3.094
REMARK INTER + INTRA:          -3.856
REMARK INTER:                  -3.856
REMARK INTRA:                   0.000
REMARK UNBOUND:                 0.000
REMARK  Name = /home/anacleto/Desktop/manuscript_Mpro/naturecomm/supplementary_file_S2/6-chemical-library/molecular_docking/3D_ligand_structure/201.pdb
REMARK  0 active torsions:
REMARK  status: ('A' for Active; 'I' for Inactive)
REMARK                            x       y       z     vdW  Elec       q    Type
REMARK                         _______ _______ _______ _____ _____    ______ ____
ROOT
ATOM      1  N1  UNL     1      17.290  11.747  -5.473  0.00  0.00    +0.000 N 
ATOM      2  C1  UNL     1      17.268  12.030  -6.812  0.00  0.00    +0.000 A 
ATOM      3  N2  UNL     1      16.087  11.792  -7.342  0.00  0.00    +0.000 NA
ATOM      4  C2  UNL     1      15.324  11.339  -6.308  0.00  0.00    +0.000 A 
ATOM      5  C3  UNL     1      16.041  11.301  -5.138  0.00  0.00    +0.000 A 
ATOM      6  N3  UNL     1      13.982  10.952  -6.376  0.00  0.00    +0.000 NA
ATOM      7  C4  UNL     1      13.494  10.560  -5.243  0.00  0.00    +0.000 A 
ATOM      8  N4  UNL     1      14.158  10.497  -4.034  0.00  0.00    +0.000 N 
ATOM      9  C5  UNL     1      15.473  10.865  -3.916  0.00  0.00    +0.000 A 
ATOM     10  S1  UNL     1      16.320  10.810  -2.493  0.00  0.00    +0.000 S 
ATOM     11  H1  UNL     1      18.078  11.848  -4.848  0.00  0.00    +0.000 HD
ATOM     12  H4  UNL     1      13.677  10.174  -3.207  0.00  0.00    +0.000 HD
ENDROOT
TORSDOF 0
ENDMDL
MODEL 5
REMARK VINA RESULT:    -3.765      2.225      2.351
REMARK INTER + INTRA:          -3.765
REMARK INTER:                  -3.765
REMARK INTRA:                   0.000
REMARK UNBOUND:                 0.000
REMARK  Name = /home/anacleto/Desktop/manuscript_Mpro/naturecomm/supplementary_file_S2/6-chemical-library/molecular_docking/3D_ligand_structure/201.pdb
REMARK  0 active torsions:
REMARK  status: ('A' for Active; 'I' for Inactive)
REMARK                            x       y       z     vdW  Elec       q    Type
REMARK                         _______ _______ _______ _____ _____    ______ ____
ROOT
ATOM      1  N1  UNL     1      14.162  10.526  -4.237  0.00  0.00    +0.000 N 
ATOM      2  C1  UNL     1      13.218  10.736  -5.206  0.00  0.00    +0.000 A 
ATOM      3  N2  UNL     1      13.755  11.179  -6.323  0.00  0.00    +0.000 NA
ATOM      4  C2  UNL     1      15.090  11.258  -6.062  0.00  0.00    +0.000 A 
ATOM      5  C3  UNL     1      15.372  10.860  -4.779  0.00  0.00    +0.000 A 
ATOM      6  N3  UNL     1      16.084  11.681  -6.950  0.00  0.00    +0.000 NA
ATOM      7  C4  UNL     1      17.277  11.660  -6.447  0.00  0.00    +0.000 A 
ATOM      8  N4  UNL     1      17.627  11.272  -5.169  0.00  0.00    +0.000 N 
ATOM      9  C5  UNL     1      16.691  10.850  -4.262  0.00  0.00    +0.000 A 
ATOM     10  S1  UNL     1      17.054  10.374  -2.717  0.00  0.00    +0.000 S 
ATOM     11  H1  UNL     1      13.998  10.189  -3.298  0.00  0.00    +0.000 HD
ATOM     12  H4  UNL     1      18.596  11.296  -4.880  0.00  0.00    +0.000 HD
ENDROOT
TORSDOF 0
ENDMDL
MODEL 6
REMARK VINA RESULT:    -3.677     16.312     17.309
REMARK INTER + INTRA:          -3.677
REMARK INTER:                  -3.677
REMARK INTRA:                   0.000
REMARK UNBOUND:                 0.000
REMARK  Name = /home/anacleto/Desktop/manuscript_Mpro/naturecomm/supplementary_file_S2/6-chemical-library/molecular_docking/3D_ligand_structure/201.pdb
REMARK  0 active torsions:
REMARK  status: ('A' for Active; 'I' for Inactive)
REMARK                            x       y       z     vdW  Elec       q    Type
REMARK                         _______ _______ _______ _____ _____    ______ ____
ROOT
ATOM      1  N1  UNL     1      13.448   1.570   9.250  0.00  0.00    +0.000 N 
ATOM      2  C1  UNL     1      12.449   0.726   9.655  0.00  0.00    +0.000 A 
ATOM      3  N2  UNL     1      12.612  -0.488   9.173  0.00  0.00    +0.000 NA
ATOM      4  C2  UNL     1      13.754  -0.422   8.433  0.00  0.00    +0.000 A 
ATOM      5  C3  UNL     1      14.295   0.839   8.463  0.00  0.00    +0.000 A 
ATOM      6  N3  UNL     1      14.341  -1.472   7.720  0.00  0.00    +0.000 NA
ATOM      7  C4  UNL     1      15.427  -1.138   7.100  0.00  0.00    +0.000 A 
ATOM      8  N4  UNL     1      16.022   0.108   7.088  0.00  0.00    +0.000 N 
ATOM      9  C5  UNL     1      15.486   1.169   7.771  0.00  0.00    +0.000 A 
ATOM     10  S1  UNL     1      16.156   2.684   7.793  0.00  0.00    +0.000 S 
ATOM     11  H1  UNL     1      13.544   2.548   9.488  0.00  0.00    +0.000 HD
ATOM     12  H4  UNL     1      16.875   0.258   6.567  0.00  0.00    +0.000 HD
ENDROOT
TORSDOF 0
ENDMDL
MODEL 7
REMARK VINA RESULT:    -3.653      1.889      3.268
REMARK INTER + INTRA:          -3.653
REMARK INTER:                  -3.653
REMARK INTRA:                   0.000
REMARK UNBOUND:                 0.000
REMARK  Name = /home/anacleto/Desktop/manuscript_Mpro/naturecomm/supplementary_file_S2/6-chemical-library/molecular_docking/3D_ligand_structure/201.pdb
REMARK  0 active torsions:
REMARK  status: ('A' for Active; 'I' for Inactive)
REMARK                            x       y       z     vdW  Elec       q    Type
REMARK                         _______ _______ _______ _____ _____    ______ ____
ROOT
ATOM      1  N1  UNL     1      16.030  12.439  -1.667  0.00  0.00    +0.000 N 
ATOM      2  C1  UNL     1      16.417  11.126  -1.680  0.00  0.00    +0.000 A 
ATOM      3  N2  UNL     1      15.953  10.491  -2.736  0.00  0.00    +0.000 NA
ATOM      4  C2  UNL     1      15.242  11.428  -3.424  0.00  0.00    +0.000 A 
ATOM      5  C3  UNL     1      15.272  12.644  -2.787  0.00  0.00    +0.000 A 
ATOM      6  N3  UNL     1      14.555  11.228  -4.625  0.00  0.00    +0.000 NA
ATOM      7  C4  UNL     1      13.959  12.289  -5.068  0.00  0.00    +0.000 A 
ATOM      8  N4  UNL     1      13.950  13.538  -4.478  0.00  0.00    +0.000 N 
ATOM      9  C5  UNL     1      14.607  13.784  -3.301  0.00  0.00    +0.000 A 
ATOM     10  S1  UNL     1      14.630  15.260  -2.550  0.00  0.00    +0.000 S 
ATOM     11  H1  UNL     1      16.259  13.128  -0.964  0.00  0.00    +0.000 HD
ATOM     12  H4  UNL     1      13.449  14.301  -4.913  0.00  0.00    +0.000 HD
ENDROOT
TORSDOF 0
ENDMDL
MODEL 8
REMARK VINA RESULT:    -3.649      3.157      3.829
REMARK INTER + INTRA:          -3.649
REMARK INTER:                  -3.649
REMARK INTRA:                   0.000
REMARK UNBOUND:                 0.000
REMARK  Name = /home/anacleto/Desktop/manuscript_Mpro/naturecomm/supplementary_file_S2/6-chemical-library/molecular_docking/3D_ligand_structure/201.pdb
REMARK  0 active torsions:
REMARK  status: ('A' for Active; 'I' for Inactive)
REMARK                            x       y       z     vdW  Elec       q    Type
REMARK                         _______ _______ _______ _____ _____    ______ ____
ROOT
ATOM      1  N1  UNL     1      16.246  11.301  -7.117  0.00  0.00    +0.000 N 
ATOM      2  C1  UNL     1      17.614  11.314  -7.092  0.00  0.00    +0.000 A 
ATOM      3  N2  UNL     1      18.082  11.136  -5.874  0.00  0.00    +0.000 NA
ATOM      4  C2  UNL     1      16.976  11.004  -5.090  0.00  0.00    +0.000 A 
ATOM      5  C3  UNL     1      15.824  11.102  -5.831  0.00  0.00    +0.000 A 
ATOM      6  N3  UNL     1      16.962  10.796  -3.707  0.00  0.00    +0.000 NA
ATOM      7  C4  UNL     1      15.772  10.707  -3.205  0.00  0.00    +0.000 A 
ATOM      8  N4  UNL     1      14.577  10.795  -3.892  0.00  0.00    +0.000 N 
ATOM      9  C5  UNL     1      14.538  10.999  -5.247  0.00  0.00    +0.000 A 
ATOM     10  S1  UNL     1      13.135  11.113  -6.121  0.00  0.00    +0.000 S 
ATOM     11  H1  UNL     1      15.656  11.416  -7.930  0.00  0.00    +0.000 HD
ATOM     12  H4  UNL     1      13.700  10.710  -3.397  0.00  0.00    +0.000 HD
ENDROOT
TORSDOF 0
ENDMDL
MODEL 9
REMARK VINA RESULT:    -3.641      1.178      2.912
REMARK INTER + INTRA:          -3.641
REMARK INTER:                  -3.641
REMARK INTRA:                   0.000
REMARK UNBOUND:                 0.000
REMARK  Name = /home/anacleto/Desktop/manuscript_Mpro/naturecomm/supplementary_file_S2/6-chemical-library/molecular_docking/3D_ligand_structure/201.pdb
REMARK  0 active torsions:
REMARK  status: ('A' for Active; 'I' for Inactive)
REMARK                            x       y       z     vdW  Elec       q    Type
REMARK                         _______ _______ _______ _____ _____    ______ ____
ROOT
ATOM      1  N1  UNL     1      15.778  13.303  -2.274  0.00  0.00    +0.000 N 
ATOM      2  C1  UNL     1      15.048  14.447  -2.452  0.00  0.00    +0.000 A 
ATOM      3  N2  UNL     1      14.241  14.355  -3.488  0.00  0.00    +0.000 NA
ATOM      4  C2  UNL     1      14.461  13.109  -3.994  0.00  0.00    +0.000 A 
ATOM      5  C3  UNL     1      15.407  12.434  -3.263  0.00  0.00    +0.000 A 
ATOM      6  N3  UNL     1      13.832  12.545  -5.108  0.00  0.00    +0.000 NA
ATOM      7  C4  UNL     1      14.227  11.341  -5.376  0.00  0.00    +0.000 A 
ATOM      8  N4  UNL     1      15.171  10.608  -4.684  0.00  0.00    +0.000 N 
ATOM      9  C5  UNL     1      15.815  11.117  -3.586  0.00  0.00    +0.000 A 
ATOM     10  S1  UNL     1      16.954  10.283  -2.718  0.00  0.00    +0.000 S 
ATOM     11  H1  UNL     1      16.462  13.131  -1.550  0.00  0.00    +0.000 HD
ATOM     12  H4  UNL     1      15.404   9.671  -4.982  0.00  0.00    +0.000 HD
ENDROOT
TORSDOF 0
ENDMDL
