MODEL 1
REMARK VINA RESULT:    -3.908      0.000      0.000
REMARK INTER + INTRA:          -3.908
REMARK INTER:                  -3.908
REMARK INTRA:                   0.000
REMARK UNBOUND:                 0.000
REMARK  Name = /home/anacleto/Desktop/manuscript_Mpro/naturecomm/supplementary_file_S2/6-chemical-library/molecular_docking/3D_ligand_structure/250.pdb
REMARK  0 active torsions:
REMARK  status: ('A' for Active; 'I' for Inactive)
REMARK                            x       y       z     vdW  Elec       q    Type
REMARK                         _______ _______ _______ _____ _____    ______ ____
ROOT
ATOM      1  N1  UNL     1     -34.339  13.781 -31.189  0.00  0.00    +0.000 NA
ATOM      2  C1  UNL     1     -33.240  13.996 -31.943  0.00  0.00    +0.000 A 
ATOM      3  C2  UNL     1     -32.895  13.175 -32.996  0.00  0.00    +0.000 A 
ATOM      4  N2  UNL     1     -33.634  12.099 -33.344  0.00  0.00    +0.000 NA
ATOM      5  C3  UNL     1     -34.736  11.867 -32.604  0.00  0.00    +0.000 A 
ATOM      6  C4  UNL     1     -35.091  12.712 -31.521  0.00  0.00    +0.000 A 
ATOM      7  C5  UNL     1     -35.548  10.779 -32.903  0.00  0.00    +0.000 A 
ATOM      8  C6  UNL     1     -36.697  10.502 -32.162  0.00  0.00    +0.000 A 
ATOM      9  C7  UNL     1     -37.044  11.330 -31.101  0.00  0.00    +0.000 A 
ATOM     10  C8  UNL     1     -36.239  12.426 -30.791  0.00  0.00    +0.000 A 
ENDROOT
TORSDOF 0
ENDMDL
MODEL 2
REMARK VINA RESULT:    -3.898      0.113      2.073
REMARK INTER + INTRA:          -3.898
REMARK INTER:                  -3.898
REMARK INTRA:                   0.000
REMARK UNBOUND:                 0.000
REMARK  Name = /home/anacleto/Desktop/manuscript_Mpro/naturecomm/supplementary_file_S2/6-chemical-library/molecular_docking/3D_ligand_structure/250.pdb
REMARK  0 active torsions:
REMARK  status: ('A' for Active; 'I' for Inactive)
REMARK                            x       y       z     vdW  Elec       q    Type
REMARK                         _______ _______ _______ _____ _____    ______ ____
ROOT
ATOM      1  N1  UNL     1     -33.579  12.228 -33.316  0.00  0.00    +0.000 NA
ATOM      2  C1  UNL     1     -32.886  13.314 -32.915  0.00  0.00    +0.000 A 
ATOM      3  C2  UNL     1     -33.285  14.090 -31.847  0.00  0.00    +0.000 A 
ATOM      4  N2  UNL     1     -34.397  13.816 -31.131  0.00  0.00    +0.000 NA
ATOM      5  C3  UNL     1     -35.104  12.735 -31.516  0.00  0.00    +0.000 A 
ATOM      6  C4  UNL     1     -34.693  11.936 -32.613  0.00  0.00    +0.000 A 
ATOM      7  C5  UNL     1     -36.259  12.388 -30.826  0.00  0.00    +0.000 A 
ATOM      8  C6  UNL     1     -37.020  11.277 -31.191  0.00  0.00    +0.000 A 
ATOM      9  C7  UNL     1     -36.618  10.495 -32.266  0.00  0.00    +0.000 A 
ATOM     10  C8  UNL     1     -35.459  10.831 -32.967  0.00  0.00    +0.000 A 
ENDROOT
TORSDOF 0
ENDMDL
MODEL 3
REMARK VINA RESULT:    -3.765     11.837     13.105
REMARK INTER + INTRA:          -3.765
REMARK INTER:                  -3.765
REMARK INTRA:                   0.000
REMARK UNBOUND:                 0.000
REMARK  Name = /home/anacleto/Desktop/manuscript_Mpro/naturecomm/supplementary_file_S2/6-chemical-library/molecular_docking/3D_ligand_structure/250.pdb
REMARK  0 active torsions:
REMARK  status: ('A' for Active; 'I' for Inactive)
REMARK                            x       y       z     vdW  Elec       q    Type
REMARK                         _______ _______ _______ _____ _____    ______ ____
ROOT
ATOM      1  N1  UNL     1     -26.106   6.172 -39.320  0.00  0.00    +0.000 NA
ATOM      2  C1  UNL     1     -27.131   7.051 -39.300  0.00  0.00    +0.000 A 
ATOM      3  C2  UNL     1     -28.409   6.684 -38.935  0.00  0.00    +0.000 A 
ATOM      4  N2  UNL     1     -28.722   5.421 -38.575  0.00  0.00    +0.000 NA
ATOM      5  C3  UNL     1     -27.712   4.528 -38.588  0.00  0.00    +0.000 A 
ATOM      6  C4  UNL     1     -26.398   4.905 -38.962  0.00  0.00    +0.000 A 
ATOM      7  C5  UNL     1     -27.957   3.208 -38.228  0.00  0.00    +0.000 A 
ATOM      8  C6  UNL     1     -26.941   2.252 -38.228  0.00  0.00    +0.000 A 
ATOM      9  C7  UNL     1     -25.653   2.622 -38.595  0.00  0.00    +0.000 A 
ATOM     10  C8  UNL     1     -25.393   3.944 -38.958  0.00  0.00    +0.000 A 
ENDROOT
TORSDOF 0
ENDMDL
MODEL 4
REMARK VINA RESULT:    -3.760     11.851     13.075
REMARK INTER + INTRA:          -3.760
REMARK INTER:                  -3.760
REMARK INTRA:                   0.000
REMARK UNBOUND:                 0.000
REMARK  Name = /home/anacleto/Desktop/manuscript_Mpro/naturecomm/supplementary_file_S2/6-chemical-library/molecular_docking/3D_ligand_structure/250.pdb
REMARK  0 active torsions:
REMARK  status: ('A' for Active; 'I' for Inactive)
REMARK                            x       y       z     vdW  Elec       q    Type
REMARK                         _______ _______ _______ _____ _____    ______ ____
ROOT
ATOM      1  N1  UNL     1     -28.726   5.392 -38.654  0.00  0.00    +0.000 NA
ATOM      2  C1  UNL     1     -28.408   6.652 -39.021  0.00  0.00    +0.000 A 
ATOM      3  C2  UNL     1     -27.118   7.024 -39.336  0.00  0.00    +0.000 A 
ATOM      4  N2  UNL     1     -26.086   6.154 -39.298  0.00  0.00    +0.000 NA
ATOM      5  C3  UNL     1     -26.383   4.890 -38.934  0.00  0.00    +0.000 A 
ATOM      6  C4  UNL     1     -27.709   4.507 -38.611  0.00  0.00    +0.000 A 
ATOM      7  C5  UNL     1     -25.373   3.938 -38.873  0.00  0.00    +0.000 A 
ATOM      8  C6  UNL     1     -25.637   2.619 -38.501  0.00  0.00    +0.000 A 
ATOM      9  C7  UNL     1     -26.937   2.244 -38.184  0.00  0.00    +0.000 A 
ATOM     10  C8  UNL     1     -27.960   3.190 -38.242  0.00  0.00    +0.000 A 
ENDROOT
TORSDOF 0
ENDMDL
MODEL 5
REMARK VINA RESULT:    -3.716     12.580     13.485
REMARK INTER + INTRA:          -3.716
REMARK INTER:                  -3.716
REMARK INTRA:                   0.000
REMARK UNBOUND:                 0.000
REMARK  Name = /home/anacleto/Desktop/manuscript_Mpro/naturecomm/supplementary_file_S2/6-chemical-library/molecular_docking/3D_ligand_structure/250.pdb
REMARK  0 active torsions:
REMARK  status: ('A' for Active; 'I' for Inactive)
REMARK                            x       y       z     vdW  Elec       q    Type
REMARK                         _______ _______ _______ _____ _____    ______ ____
ROOT
ATOM      1  N1  UNL     1     -26.982   6.155 -39.292  0.00  0.00    +0.000 NA
ATOM      2  C1  UNL     1     -25.800   6.787 -39.455  0.00  0.00    +0.000 A 
ATOM      3  C2  UNL     1     -24.592   6.156 -39.242  0.00  0.00    +0.000 A 
ATOM      4  N2  UNL     1     -24.510   4.865 -38.856  0.00  0.00    +0.000 NA
ATOM      5  C3  UNL     1     -25.679   4.216 -38.688  0.00  0.00    +0.000 A 
ATOM      6  C4  UNL     1     -26.921   4.864 -38.907  0.00  0.00    +0.000 A 
ATOM      7  C5  UNL     1     -25.675   2.884 -38.292  0.00  0.00    +0.000 A 
ATOM      8  C6  UNL     1     -26.862   2.175 -38.106  0.00  0.00    +0.000 A 
ATOM      9  C7  UNL     1     -28.079   2.810 -38.321  0.00  0.00    +0.000 A 
ATOM     10  C8  UNL     1     -28.098   4.147 -38.719  0.00  0.00    +0.000 A 
ENDROOT
TORSDOF 0
ENDMDL
MODEL 6
REMARK VINA RESULT:    -3.710     14.885     16.619
REMARK INTER + INTRA:          -3.710
REMARK INTER:                  -3.710
REMARK INTRA:                   0.000
REMARK UNBOUND:                 0.000
REMARK  Name = /home/anacleto/Desktop/manuscript_Mpro/naturecomm/supplementary_file_S2/6-chemical-library/molecular_docking/3D_ligand_structure/250.pdb
REMARK  0 active torsions:
REMARK  status: ('A' for Active; 'I' for Inactive)
REMARK                            x       y       z     vdW  Elec       q    Type
REMARK                         _______ _______ _______ _____ _____    ______ ____
ROOT
ATOM      1  N1  UNL     1     -19.175  10.630 -38.207  0.00  0.00    +0.000 NA
ATOM      2  C1  UNL     1     -17.995  10.337 -38.793  0.00  0.00    +0.000 A 
ATOM      3  C2  UNL     1     -17.682   9.066 -39.227  0.00  0.00    +0.000 A 
ATOM      4  N2  UNL     1     -18.535   8.028 -39.095  0.00  0.00    +0.000 NA
ATOM      5  C3  UNL     1     -19.720   8.299 -38.512  0.00  0.00    +0.000 A 
ATOM      6  C4  UNL     1     -20.042   9.606 -38.066  0.00  0.00    +0.000 A 
ATOM      7  C5  UNL     1     -20.651   7.281 -38.342  0.00  0.00    +0.000 A 
ATOM      8  C6  UNL     1     -21.889   7.519 -37.744  0.00  0.00    +0.000 A 
ATOM      9  C7  UNL     1     -22.204   8.799 -37.307  0.00  0.00    +0.000 A 
ATOM     10  C8  UNL     1     -21.279   9.830 -37.472  0.00  0.00    +0.000 A 
ENDROOT
TORSDOF 0
ENDMDL
MODEL 7
REMARK VINA RESULT:    -3.657     15.553     17.157
REMARK INTER + INTRA:          -3.657
REMARK INTER:                  -3.657
REMARK INTRA:                   0.000
REMARK UNBOUND:                 0.000
REMARK  Name = /home/anacleto/Desktop/manuscript_Mpro/naturecomm/supplementary_file_S2/6-chemical-library/molecular_docking/3D_ligand_structure/250.pdb
REMARK  0 active torsions:
REMARK  status: ('A' for Active; 'I' for Inactive)
REMARK                            x       y       z     vdW  Elec       q    Type
REMARK                         _______ _______ _______ _____ _____    ______ ____
ROOT
ATOM      1  N1  UNL     1     -18.341   8.288 -39.896  0.00  0.00    +0.000 NA
ATOM      2  C1  UNL     1     -17.713   9.456 -39.641  0.00  0.00    +0.000 A 
ATOM      3  C2  UNL     1     -18.176  10.351 -38.699  0.00  0.00    +0.000 A 
ATOM      4  N2  UNL     1     -19.289  10.121 -37.971  0.00  0.00    +0.000 NA
ATOM      5  C3  UNL     1     -19.931   8.960 -38.210  0.00  0.00    +0.000 A 
ATOM      6  C4  UNL     1     -19.454   8.039 -39.177  0.00  0.00    +0.000 A 
ATOM      7  C5  UNL     1     -21.084   8.653 -37.497  0.00  0.00    +0.000 A 
ATOM      8  C6  UNL     1     -21.778   7.463 -37.714  0.00  0.00    +0.000 A 
ATOM      9  C7  UNL     1     -21.312   6.560 -38.661  0.00  0.00    +0.000 A 
ATOM     10  C8  UNL     1     -20.155   6.856 -39.383  0.00  0.00    +0.000 A 
ENDROOT
TORSDOF 0
ENDMDL
MODEL 8
REMARK VINA RESULT:    -3.591     13.712     14.494
REMARK INTER + INTRA:          -3.591
REMARK INTER:                  -3.591
REMARK INTRA:                   0.000
REMARK UNBOUND:                 0.000
REMARK  Name = /home/anacleto/Desktop/manuscript_Mpro/naturecomm/supplementary_file_S2/6-chemical-library/molecular_docking/3D_ligand_structure/250.pdb
REMARK  0 active torsions:
REMARK  status: ('A' for Active; 'I' for Inactive)
REMARK                            x       y       z     vdW  Elec       q    Type
REMARK                         _______ _______ _______ _____ _____    ______ ____
ROOT
ATOM      1  N1  UNL     1     -29.320   3.102 -40.183  0.00  0.00    +0.000 NA
ATOM      2  C1  UNL     1     -29.387   3.572 -41.447  0.00  0.00    +0.000 A 
ATOM      3  C2  UNL     1     -28.260   3.901 -42.171  0.00  0.00    +0.000 A 
ATOM      4  N2  UNL     1     -27.015   3.776 -41.665  0.00  0.00    +0.000 NA
ATOM      5  C3  UNL     1     -26.926   3.308 -40.404  0.00  0.00    +0.000 A 
ATOM      6  C4  UNL     1     -28.084   2.969 -39.659  0.00  0.00    +0.000 A 
ATOM      7  C5  UNL     1     -25.677   3.151 -39.815  0.00  0.00    +0.000 A 
ATOM      8  C6  UNL     1     -25.541   2.670 -38.513  0.00  0.00    +0.000 A 
ATOM      9  C7  UNL     1     -26.676   2.338 -37.784  0.00  0.00    +0.000 A 
ATOM     10  C8  UNL     1     -27.935   2.490 -38.363  0.00  0.00    +0.000 A 
ENDROOT
TORSDOF 0
ENDMDL
MODEL 9
REMARK VINA RESULT:    -3.573     14.178     16.372
REMARK INTER + INTRA:          -3.573
REMARK INTER:                  -3.573
REMARK INTRA:                   0.000
REMARK UNBOUND:                 0.000
REMARK  Name = /home/anacleto/Desktop/manuscript_Mpro/naturecomm/supplementary_file_S2/6-chemical-library/molecular_docking/3D_ligand_structure/250.pdb
REMARK  0 active torsions:
REMARK  status: ('A' for Active; 'I' for Inactive)
REMARK                            x       y       z     vdW  Elec       q    Type
REMARK                         _______ _______ _______ _____ _____    ______ ____
ROOT
ATOM      1  N1  UNL     1     -21.248   6.511 -38.799  0.00  0.00    +0.000 NA
ATOM      2  C1  UNL     1     -22.569   6.508 -38.523  0.00  0.00    +0.000 A 
ATOM      3  C2  UNL     1     -23.227   7.628 -38.058  0.00  0.00    +0.000 A 
ATOM      4  N2  UNL     1     -22.594   8.802 -37.847  0.00  0.00    +0.000 NA
ATOM      5  C3  UNL     1     -21.274   8.826 -38.117  0.00  0.00    +0.000 A 
ATOM      6  C4  UNL     1     -20.597   7.675 -38.595  0.00  0.00    +0.000 A 
ATOM      7  C5  UNL     1     -20.555   9.999 -37.925  0.00  0.00    +0.000 A 
ATOM      8  C6  UNL     1     -19.187  10.067 -38.192  0.00  0.00    +0.000 A 
ATOM      9  C7  UNL     1     -18.524   8.940 -38.661  0.00  0.00    +0.000 A 
ATOM     10  C8  UNL     1     -19.234   7.755 -38.858  0.00  0.00    +0.000 A 
ENDROOT
TORSDOF 0
ENDMDL
