MODEL 1
REMARK VINA RESULT:    -2.452      0.000      0.000
REMARK INTER + INTRA:          -2.452
REMARK INTER:                  -2.452
REMARK INTRA:                   0.000
REMARK UNBOUND:                 0.000
REMARK  Name = /home/anacleto/Desktop/manuscript_Mpro/naturecomm/supplementary_file_S2/6-chemical-library/molecular_docking/3D_ligand_structure/55.pdb
REMARK  0 active torsions:
REMARK  status: ('A' for Active; 'I' for Inactive)
REMARK                            x       y       z     vdW  Elec       q    Type
REMARK                         _______ _______ _______ _____ _____    ______ ____
ROOT
ATOM      1  S1  UNL     1     -22.295   9.983 -36.769  0.00  0.00    +0.000 S 
ATOM      2  C1  UNL     1     -21.026   9.321 -37.630  0.00  0.00    +0.000 A 
ATOM      3  C2  UNL     1     -20.888   7.888 -37.961  0.00  0.00    +0.000 A 
ATOM      4  C3  UNL     1     -19.804   7.536 -38.659  0.00  0.00    +0.000 A 
ATOM      5  S2  UNL     1     -18.659   8.736 -39.123  0.00  0.00    +0.000 S 
ATOM      6  S3  UNL     1     -19.686  10.273 -38.253  0.00  0.00    +0.000 S 
ENDROOT
TORSDOF 0
ENDMDL
MODEL 2
REMARK VINA RESULT:    -2.410     15.921     17.147
REMARK INTER + INTRA:          -2.410
REMARK INTER:                  -2.410
REMARK INTRA:                   0.000
REMARK UNBOUND:                 0.000
REMARK  Name = /home/anacleto/Desktop/manuscript_Mpro/naturecomm/supplementary_file_S2/6-chemical-library/molecular_docking/3D_ligand_structure/55.pdb
REMARK  0 active torsions:
REMARK  status: ('A' for Active; 'I' for Inactive)
REMARK                            x       y       z     vdW  Elec       q    Type
REMARK                         _______ _______ _______ _____ _____    ______ ____
ROOT
ATOM      1  S1  UNL     1     -37.662  11.347 -30.012  0.00  0.00    +0.000 S 
ATOM      2  C1  UNL     1     -36.681  11.547 -31.349  0.00  0.00    +0.000 A 
ATOM      3  C2  UNL     1     -36.589  10.597 -32.477  0.00  0.00    +0.000 A 
ATOM      4  C3  UNL     1     -35.749  10.920 -33.465  0.00  0.00    +0.000 A 
ATOM      5  S2  UNL     1     -34.845  12.384 -33.374  0.00  0.00    +0.000 S 
ATOM      6  S3  UNL     1     -35.628  12.937 -31.570  0.00  0.00    +0.000 S 
ENDROOT
TORSDOF 0
ENDMDL
MODEL 3
REMARK VINA RESULT:    -2.358      2.406      3.202
REMARK INTER + INTRA:          -2.358
REMARK INTER:                  -2.358
REMARK INTRA:                   0.000
REMARK UNBOUND:                 0.000
REMARK  Name = /home/anacleto/Desktop/manuscript_Mpro/naturecomm/supplementary_file_S2/6-chemical-library/molecular_docking/3D_ligand_structure/55.pdb
REMARK  0 active torsions:
REMARK  status: ('A' for Active; 'I' for Inactive)
REMARK                            x       y       z     vdW  Elec       q    Type
REMARK                         _______ _______ _______ _____ _____    ______ ____
ROOT
ATOM      1  S1  UNL     1     -22.283  10.158 -37.010  0.00  0.00    +0.000 S 
ATOM      2  C1  UNL     1     -22.473   8.604 -37.591  0.00  0.00    +0.000 A 
ATOM      3  C2  UNL     1     -21.389   7.603 -37.691  0.00  0.00    +0.000 A 
ATOM      4  C3  UNL     1     -21.724   6.405 -38.181  0.00  0.00    +0.000 A 
ATOM      5  S2  UNL     1     -23.352   6.100 -38.656  0.00  0.00    +0.000 S 
ATOM      6  S3  UNL     1     -24.010   7.969 -38.158  0.00  0.00    +0.000 S 
ENDROOT
TORSDOF 0
ENDMDL
MODEL 4
REMARK VINA RESULT:    -2.346      2.465      3.553
REMARK INTER + INTRA:          -2.346
REMARK INTER:                  -2.346
REMARK INTRA:                   0.000
REMARK UNBOUND:                 0.000
REMARK  Name = /home/anacleto/Desktop/manuscript_Mpro/naturecomm/supplementary_file_S2/6-chemical-library/molecular_docking/3D_ligand_structure/55.pdb
REMARK  0 active torsions:
REMARK  status: ('A' for Active; 'I' for Inactive)
REMARK                            x       y       z     vdW  Elec       q    Type
REMARK                         _______ _______ _______ _____ _____    ______ ____
ROOT
ATOM      1  S1  UNL     1     -23.436   6.146 -38.937  0.00  0.00    +0.000 S 
ATOM      2  C1  UNL     1     -22.880   7.500 -38.133  0.00  0.00    +0.000 A 
ATOM      3  C2  UNL     1     -21.510   7.663 -37.604  0.00  0.00    +0.000 A 
ATOM      4  C3  UNL     1     -21.239   8.817 -36.987  0.00  0.00    +0.000 A 
ATOM      5  S2  UNL     1     -22.466  10.019 -36.846  0.00  0.00    +0.000 S 
ATOM      6  S3  UNL     1     -23.879   8.912 -37.822  0.00  0.00    +0.000 S 
ENDROOT
TORSDOF 0
ENDMDL
MODEL 5
REMARK VINA RESULT:    -2.337      1.862      2.205
REMARK INTER + INTRA:          -2.337
REMARK INTER:                  -2.337
REMARK INTRA:                   0.000
REMARK UNBOUND:                 0.000
REMARK  Name = /home/anacleto/Desktop/manuscript_Mpro/naturecomm/supplementary_file_S2/6-chemical-library/molecular_docking/3D_ligand_structure/55.pdb
REMARK  0 active torsions:
REMARK  status: ('A' for Active; 'I' for Inactive)
REMARK                            x       y       z     vdW  Elec       q    Type
REMARK                         _______ _______ _______ _____ _____    ______ ____
ROOT
ATOM      1  S1  UNL     1     -21.694   6.589 -38.221  0.00  0.00    +0.000 S 
ATOM      2  C1  UNL     1     -20.521   7.767 -38.379  0.00  0.00    +0.000 A 
ATOM      3  C2  UNL     1     -19.194   7.559 -38.996  0.00  0.00    +0.000 A 
ATOM      4  C3  UNL     1     -18.380   8.618 -39.037  0.00  0.00    +0.000 A 
ATOM      5  S2  UNL     1     -18.905  10.126 -38.390  0.00  0.00    +0.000 S 
ATOM      6  S3  UNL     1     -20.736   9.420 -37.822  0.00  0.00    +0.000 S 
ENDROOT
TORSDOF 0
ENDMDL
MODEL 6
REMARK VINA RESULT:    -2.261     16.985     17.500
REMARK INTER + INTRA:          -2.261
REMARK INTER:                  -2.261
REMARK INTRA:                   0.000
REMARK UNBOUND:                 0.000
REMARK  Name = /home/anacleto/Desktop/manuscript_Mpro/naturecomm/supplementary_file_S2/6-chemical-library/molecular_docking/3D_ligand_structure/55.pdb
REMARK  0 active torsions:
REMARK  status: ('A' for Active; 'I' for Inactive)
REMARK                            x       y       z     vdW  Elec       q    Type
REMARK                         _______ _______ _______ _____ _____    ______ ____
ROOT
ATOM      1  S1  UNL     1     -27.520  -3.841 -28.185  0.00  0.00    +0.000 S 
ATOM      2  C1  UNL     1     -25.941  -3.885 -27.644  0.00  0.00    +0.000 A 
ATOM      3  C2  UNL     1     -25.538  -3.999 -26.227  0.00  0.00    +0.000 A 
ATOM      4  C3  UNL     1     -24.225  -4.020 -25.978  0.00  0.00    +0.000 A 
ATOM      5  S2  UNL     1     -23.105  -3.917 -27.283  0.00  0.00    +0.000 S 
ATOM      6  S3  UNL     1     -24.553  -3.802 -28.720  0.00  0.00    +0.000 S 
ENDROOT
TORSDOF 0
ENDMDL
MODEL 7
REMARK VINA RESULT:    -2.246      7.243      8.195
REMARK INTER + INTRA:          -2.246
REMARK INTER:                  -2.246
REMARK INTRA:                   0.000
REMARK UNBOUND:                 0.000
REMARK  Name = /home/anacleto/Desktop/manuscript_Mpro/naturecomm/supplementary_file_S2/6-chemical-library/molecular_docking/3D_ligand_structure/55.pdb
REMARK  0 active torsions:
REMARK  status: ('A' for Active; 'I' for Inactive)
REMARK                            x       y       z     vdW  Elec       q    Type
REMARK                         _______ _______ _______ _____ _____    ______ ____
ROOT
ATOM      1  S1  UNL     1     -24.191   5.331 -38.700  0.00  0.00    +0.000 S 
ATOM      2  C1  UNL     1     -25.576   4.399 -38.718  0.00  0.00    +0.000 A 
ATOM      3  C2  UNL     1     -25.633   2.966 -38.362  0.00  0.00    +0.000 A 
ATOM      4  C3  UNL     1     -26.832   2.378 -38.433  0.00  0.00    +0.000 A 
ATOM      5  S2  UNL     1     -28.206   3.295 -38.922  0.00  0.00    +0.000 S 
ATOM      6  S3  UNL     1     -27.154   5.029 -39.170  0.00  0.00    +0.000 S 
ENDROOT
TORSDOF 0
ENDMDL
MODEL 8
REMARK VINA RESULT:    -2.237      8.366      8.738
REMARK INTER + INTRA:          -2.237
REMARK INTER:                  -2.237
REMARK INTRA:                   0.000
REMARK UNBOUND:                 0.000
REMARK  Name = /home/anacleto/Desktop/manuscript_Mpro/naturecomm/supplementary_file_S2/6-chemical-library/molecular_docking/3D_ligand_structure/55.pdb
REMARK  0 active torsions:
REMARK  status: ('A' for Active; 'I' for Inactive)
REMARK                            x       y       z     vdW  Elec       q    Type
REMARK                         _______ _______ _______ _____ _____    ______ ____
ROOT
ATOM      1  S1  UNL     1     -29.467   5.344 -38.471  0.00  0.00    +0.000 S 
ATOM      2  C1  UNL     1     -28.108   4.383 -38.610  0.00  0.00    +0.000 A 
ATOM      3  C2  UNL     1     -28.045   2.953 -38.240  0.00  0.00    +0.000 A 
ATOM      4  C3  UNL     1     -26.871   2.340 -38.419  0.00  0.00    +0.000 A 
ATOM      5  S2  UNL     1     -25.533   3.222 -39.053  0.00  0.00    +0.000 S 
ATOM      6  S3  UNL     1     -26.571   4.973 -39.224  0.00  0.00    +0.000 S 
ENDROOT
TORSDOF 0
ENDMDL
MODEL 9
REMARK VINA RESULT:    -2.201      8.821      9.481
REMARK INTER + INTRA:          -2.201
REMARK INTER:                  -2.201
REMARK INTRA:                   0.000
REMARK UNBOUND:                 0.000
REMARK  Name = /home/anacleto/Desktop/manuscript_Mpro/naturecomm/supplementary_file_S2/6-chemical-library/molecular_docking/3D_ligand_structure/55.pdb
REMARK  0 active torsions:
REMARK  status: ('A' for Active; 'I' for Inactive)
REMARK                            x       y       z     vdW  Elec       q    Type
REMARK                         _______ _______ _______ _____ _____    ______ ____
ROOT
ATOM      1  S1  UNL     1     -29.177   2.068 -40.786  0.00  0.00    +0.000 S 
ATOM      2  C1  UNL     1     -27.910   2.622 -39.849  0.00  0.00    +0.000 A 
ATOM      3  C2  UNL     1     -27.624   2.175 -38.469  0.00  0.00    +0.000 A 
ATOM      4  C3  UNL     1     -26.565   2.728 -37.869  0.00  0.00    +0.000 A 
ATOM      5  S2  UNL     1     -25.618   3.896 -38.710  0.00  0.00    +0.000 S 
ATOM      6  S3  UNL     1     -26.752   3.819 -40.408  0.00  0.00    +0.000 S 
ENDROOT
TORSDOF 0
ENDMDL
