MODEL 1
REMARK VINA RESULT:    -4.831      0.000      0.000
REMARK INTER + INTRA:          -6.377
REMARK INTER:                  -5.409
REMARK INTRA:                  -0.968
REMARK UNBOUND:                -0.415
REMARK  Name = /home/anacleto/Desktop/manuscript_Mpro/naturecomm/supplementary_file_S2/6-chemical-library/molecular_docking/3D_ligand_structure/928.pdb
REMARK  4 active torsions:
REMARK  status: ('A' for Active; 'I' for Inactive)
REMARK    1  A    between atoms: C4_5  and  C5_6
REMARK    2  A    between atoms: C5_6  and  N1_7
REMARK    3  A    between atoms: N1_7  and  C6_8
REMARK    4  A    between atoms: C6_8  and  C7_9
REMARK                            x       y       z     vdW  Elec       q    Type
REMARK                         _______ _______ _______ _____ _____    ______ ____
ROOT
ATOM      1  N1  UNL     1     -30.197   2.742 -40.419  0.00  0.00    +0.000 NA
ATOM      2  H10 UNL     1     -31.064   2.253 -40.631  0.00  0.00    +0.000 HD
ENDROOT
BRANCH   1   3
ATOM      3  C5  UNL     1     -30.163   4.047 -41.093  0.00  0.00    +0.000 C 
BRANCH   3   8
ATOM      4  O1  UNL     1     -28.471   5.636 -40.264  0.00  0.00    +0.000 OA
ATOM      5  C1  UNL     1     -27.981   5.902 -38.943  0.00  0.00    +0.000 C 
ATOM      6  C2  UNL     1     -29.195   6.009 -38.045  0.00  0.00    +0.000 C 
ATOM      7  C3  UNL     1     -30.137   5.018 -38.682  0.00  0.00    +0.000 C 
ATOM      8  C4  UNL     1     -29.853   5.235 -40.162  0.00  0.00    +0.000 C 
ENDBRANCH   3   8
ENDBRANCH   1   3
BRANCH   1   9
ATOM      9  C6  UNL     1     -29.072   1.903 -40.828  0.00  0.00    +0.000 C 
BRANCH   9  10
ATOM     10  C7  UNL     1     -27.838   2.224 -40.020  0.00  0.00    +0.000 A 
ATOM     11  C8  UNL     1     -27.867   2.142 -38.619  0.00  0.00    +0.000 A 
ATOM     12  C9  UNL     1     -26.731   2.440 -37.866  0.00  0.00    +0.000 A 
ATOM     13  C10 UNL     1     -25.553   2.824 -38.503  0.00  0.00    +0.000 A 
ATOM     14  C11 UNL     1     -25.509   2.908 -39.894  0.00  0.00    +0.000 A 
ATOM     15  C12 UNL     1     -26.646   2.609 -40.649  0.00  0.00    +0.000 A 
ENDBRANCH   9  10
ENDBRANCH   1   9
TORSDOF 4
ENDMDL
MODEL 2
REMARK VINA RESULT:    -4.635      4.895      6.447
REMARK INTER + INTRA:          -6.134
REMARK INTER:                  -5.956
REMARK INTRA:                  -0.178
REMARK UNBOUND:                -0.415
REMARK  Name = /home/anacleto/Desktop/manuscript_Mpro/naturecomm/supplementary_file_S2/6-chemical-library/molecular_docking/3D_ligand_structure/928.pdb
REMARK  4 active torsions:
REMARK  status: ('A' for Active; 'I' for Inactive)
REMARK    1  A    between atoms: C4_5  and  C5_6
REMARK    2  A    between atoms: C5_6  and  N1_7
REMARK    3  A    between atoms: N1_7  and  C6_8
REMARK    4  A    between atoms: C6_8  and  C7_9
REMARK                            x       y       z     vdW  Elec       q    Type
REMARK                         _______ _______ _______ _____ _____    ______ ____
ROOT
ATOM      1  N1  UNL     1     -23.767   5.290 -37.868  0.00  0.00    +0.000 NA
ATOM      2  H10 UNL     1     -24.412   5.217 -37.085  0.00  0.00    +0.000 HD
ENDROOT
BRANCH   1   3
ATOM      3  C5  UNL     1     -23.217   6.650 -37.957  0.00  0.00    +0.000 C 
BRANCH   3   8
ATOM      4  O1  UNL     1     -21.180   7.899 -37.353  0.00  0.00    +0.000 OA
ATOM      5  C1  UNL     1     -20.123   8.441 -38.154  0.00  0.00    +0.000 C 
ATOM      6  C2  UNL     1     -19.727   7.360 -39.136  0.00  0.00    +0.000 C 
ATOM      7  C3  UNL     1     -21.047   6.674 -39.387  0.00  0.00    +0.000 C 
ATOM      8  C4  UNL     1     -21.678   6.712 -38.002  0.00  0.00    +0.000 C 
ENDBRANCH   3   8
ENDBRANCH   1   3
BRANCH   1   9
ATOM      9  C6  UNL     1     -24.472   4.920 -39.094  0.00  0.00    +0.000 C 
BRANCH   9  10
ATOM     10  C7  UNL     1     -25.725   4.138 -38.779  0.00  0.00    +0.000 A 
ATOM     11  C8  UNL     1     -26.990   4.701 -39.012  0.00  0.00    +0.000 A 
ATOM     12  C9  UNL     1     -28.151   3.985 -38.721  0.00  0.00    +0.000 A 
ATOM     13  C10 UNL     1     -28.063   2.699 -38.193  0.00  0.00    +0.000 A 
ATOM     14  C11 UNL     1     -26.814   2.126 -37.959  0.00  0.00    +0.000 A 
ATOM     15  C12 UNL     1     -25.650   2.842 -38.251  0.00  0.00    +0.000 A 
ENDBRANCH   9  10
ENDBRANCH   1   9
TORSDOF 4
ENDMDL
MODEL 3
REMARK VINA RESULT:    -4.618      4.747      5.992
REMARK INTER + INTRA:          -6.113
REMARK INTER:                  -5.933
REMARK INTRA:                  -0.180
REMARK UNBOUND:                -0.415
REMARK  Name = /home/anacleto/Desktop/manuscript_Mpro/naturecomm/supplementary_file_S2/6-chemical-library/molecular_docking/3D_ligand_structure/928.pdb
REMARK  4 active torsions:
REMARK  status: ('A' for Active; 'I' for Inactive)
REMARK    1  A    between atoms: C4_5  and  C5_6
REMARK    2  A    between atoms: C5_6  and  N1_7
REMARK    3  A    between atoms: N1_7  and  C6_8
REMARK    4  A    between atoms: C6_8  and  C7_9
REMARK                            x       y       z     vdW  Elec       q    Type
REMARK                         _______ _______ _______ _____ _____    ______ ____
ROOT
ATOM      1  N1  UNL     1     -23.678   5.481 -37.729  0.00  0.00    +0.000 NA
ATOM      2  H10 UNL     1     -24.288   6.168 -37.293  0.00  0.00    +0.000 HD
ENDROOT
BRANCH   1   3
ATOM      3  C5  UNL     1     -22.341   6.048 -37.954  0.00  0.00    +0.000 C 
BRANCH   3   8
ATOM      4  O1  UNL     1     -21.270   8.184 -37.352  0.00  0.00    +0.000 OA
ATOM      5  C1  UNL     1     -21.790   9.370 -36.738  0.00  0.00    +0.000 C 
ATOM      6  C2  UNL     1     -23.090   9.689 -37.446  0.00  0.00    +0.000 C 
ATOM      7  C3  UNL     1     -23.608   8.310 -37.772  0.00  0.00    +0.000 C 
ATOM      8  C4  UNL     1     -22.321   7.578 -38.131  0.00  0.00    +0.000 C 
ENDBRANCH   3   8
ENDBRANCH   1   3
BRANCH   1   9
ATOM      9  C6  UNL     1     -24.287   5.039 -38.982  0.00  0.00    +0.000 C 
BRANCH   9  10
ATOM     10  C7  UNL     1     -25.562   4.274 -38.721  0.00  0.00    +0.000 A 
ATOM     11  C8  UNL     1     -25.512   2.952 -38.251  0.00  0.00    +0.000 A 
ATOM     12  C9  UNL     1     -26.687   2.239 -38.009  0.00  0.00    +0.000 A 
ATOM     13  C10 UNL     1     -27.924   2.836 -38.237  0.00  0.00    +0.000 A 
ATOM     14  C11 UNL     1     -27.989   4.149 -38.701  0.00  0.00    +0.000 A 
ATOM     15  C12 UNL     1     -26.814   4.865 -38.942  0.00  0.00    +0.000 A 
ENDBRANCH   9  10
ENDBRANCH   1   9
TORSDOF 4
ENDMDL
MODEL 4
REMARK VINA RESULT:    -4.435      4.683      6.274
REMARK INTER + INTRA:          -5.888
REMARK INTER:                  -5.615
REMARK INTRA:                  -0.273
REMARK UNBOUND:                -0.415
REMARK  Name = /home/anacleto/Desktop/manuscript_Mpro/naturecomm/supplementary_file_S2/6-chemical-library/molecular_docking/3D_ligand_structure/928.pdb
REMARK  4 active torsions:
REMARK  status: ('A' for Active; 'I' for Inactive)
REMARK    1  A    between atoms: C4_5  and  C5_6
REMARK    2  A    between atoms: C5_6  and  N1_7
REMARK    3  A    between atoms: N1_7  and  C6_8
REMARK    4  A    between atoms: C6_8  and  C7_9
REMARK                            x       y       z     vdW  Elec       q    Type
REMARK                         _______ _______ _______ _____ _____    ______ ____
ROOT
ATOM      1  N1  UNL     1     -24.313   5.519 -38.624  0.00  0.00    +0.000 NA
ATOM      2  H10 UNL     1     -23.337   5.366 -38.381  0.00  0.00    +0.000 HD
ENDROOT
BRANCH   1   3
ATOM      3  C5  UNL     1     -24.681   4.726 -39.804  0.00  0.00    +0.000 C 
BRANCH   3   8
ATOM      4  O1  UNL     1     -27.069   4.315 -39.354  0.00  0.00    +0.000 OA
ATOM      5  C1  UNL     1     -27.734   3.658 -38.267  0.00  0.00    +0.000 C 
ATOM      6  C2  UNL     1     -26.989   2.363 -38.024  0.00  0.00    +0.000 C 
ATOM      7  C3  UNL     1     -25.572   2.755 -38.362  0.00  0.00    +0.000 C 
ATOM      8  C4  UNL     1     -25.787   3.684 -39.549  0.00  0.00    +0.000 C 
ENDBRANCH   3   8
ENDBRANCH   1   3
BRANCH   1   9
ATOM      9  C6  UNL     1     -24.520   6.948 -38.858  0.00  0.00    +0.000 C 
BRANCH   9  10
ATOM     10  C7  UNL     1     -23.471   7.768 -38.145  0.00  0.00    +0.000 A 
ATOM     11  C8  UNL     1     -23.807   9.002 -37.568  0.00  0.00    +0.000 A 
ATOM     12  C9  UNL     1     -22.842   9.765 -36.910  0.00  0.00    +0.000 A 
ATOM     13  C10 UNL     1     -21.530   9.306 -36.823  0.00  0.00    +0.000 A 
ATOM     14  C11 UNL     1     -21.182   8.081 -37.390  0.00  0.00    +0.000 A 
ATOM     15  C12 UNL     1     -22.147   7.314 -38.048  0.00  0.00    +0.000 A 
ENDBRANCH   9  10
ENDBRANCH   1   9
TORSDOF 4
ENDMDL
MODEL 5
REMARK VINA RESULT:    -4.354      3.986      5.340
REMARK INTER + INTRA:          -5.788
REMARK INTER:                  -5.357
REMARK INTRA:                  -0.431
REMARK UNBOUND:                -0.415
REMARK  Name = /home/anacleto/Desktop/manuscript_Mpro/naturecomm/supplementary_file_S2/6-chemical-library/molecular_docking/3D_ligand_structure/928.pdb
REMARK  4 active torsions:
REMARK  status: ('A' for Active; 'I' for Inactive)
REMARK    1  A    between atoms: C4_5  and  C5_6
REMARK    2  A    between atoms: C5_6  and  N1_7
REMARK    3  A    between atoms: N1_7  and  C6_8
REMARK    4  A    between atoms: C6_8  and  C7_9
REMARK                            x       y       z     vdW  Elec       q    Type
REMARK                         _______ _______ _______ _____ _____    ______ ____
ROOT
ATOM      1  N1  UNL     1     -26.133   7.138 -39.079  0.00  0.00    +0.000 NA
ATOM      2  H10 UNL     1     -26.893   7.801 -39.212  0.00  0.00    +0.000 HD
ENDROOT
BRANCH   1   3
ATOM      3  C5  UNL     1     -24.834   7.804 -39.240  0.00  0.00    +0.000 C 
BRANCH   3   8
ATOM      4  O1  UNL     1     -22.991   8.322 -37.687  0.00  0.00    +0.000 OA
ATOM      5  C1  UNL     1     -21.595   7.998 -37.724  0.00  0.00    +0.000 C 
ATOM      6  C2  UNL     1     -21.501   6.530 -38.079  0.00  0.00    +0.000 C 
ATOM      7  C3  UNL     1     -22.688   6.358 -38.995  0.00  0.00    +0.000 C 
ATOM      8  C4  UNL     1     -23.721   7.255 -38.326  0.00  0.00    +0.000 C 
ENDBRANCH   3   8
ENDBRANCH   1   3
BRANCH   1   9
ATOM      9  C6  UNL     1     -26.292   6.043 -40.035  0.00  0.00    +0.000 C 
BRANCH   9  10
ATOM     10  C7  UNL     1     -26.509   4.731 -39.320  0.00  0.00    +0.000 A 
ATOM     11  C8  UNL     1     -25.422   3.891 -39.034  0.00  0.00    +0.000 A 
ATOM     12  C9  UNL     1     -25.615   2.676 -38.376  0.00  0.00    +0.000 A 
ATOM     13  C10 UNL     1     -26.898   2.285 -37.997  0.00  0.00    +0.000 A 
ATOM     14  C11 UNL     1     -27.987   3.111 -38.272  0.00  0.00    +0.000 A 
ATOM     15  C12 UNL     1     -27.794   4.328 -38.930  0.00  0.00    +0.000 A 
ENDBRANCH   9  10
ENDBRANCH   1   9
TORSDOF 4
ENDMDL
MODEL 6
REMARK VINA RESULT:    -4.211      5.540      6.997
REMARK INTER + INTRA:          -5.611
REMARK INTER:                  -5.421
REMARK INTRA:                  -0.190
REMARK UNBOUND:                -0.415
REMARK  Name = /home/anacleto/Desktop/manuscript_Mpro/naturecomm/supplementary_file_S2/6-chemical-library/molecular_docking/3D_ligand_structure/928.pdb
REMARK  4 active torsions:
REMARK  status: ('A' for Active; 'I' for Inactive)
REMARK    1  A    between atoms: C4_5  and  C5_6
REMARK    2  A    between atoms: C5_6  and  N1_7
REMARK    3  A    between atoms: N1_7  and  C6_8
REMARK    4  A    between atoms: C6_8  and  C7_9
REMARK                            x       y       z     vdW  Elec       q    Type
REMARK                         _______ _______ _______ _____ _____    ______ ____
ROOT
ATOM      1  N1  UNL     1     -23.440   6.019 -39.106  0.00  0.00    +0.000 NA
ATOM      2  H10 UNL     1     -23.265   6.857 -39.656  0.00  0.00    +0.000 HD
ENDROOT
BRANCH   1   3
ATOM      3  C5  UNL     1     -24.839   5.977 -38.661  0.00  0.00    +0.000 C 
BRANCH   3   8
ATOM      4  O1  UNL     1     -27.031   4.877 -38.904  0.00  0.00    +0.000 OA
ATOM      5  C1  UNL     1     -27.542   3.646 -38.377  0.00  0.00    +0.000 C 
ATOM      6  C2  UNL     1     -26.473   2.599 -38.606  0.00  0.00    +0.000 C 
ATOM      7  C3  UNL     1     -25.211   3.412 -38.456  0.00  0.00    +0.000 C 
ATOM      8  C4  UNL     1     -25.613   4.724 -39.116  0.00  0.00    +0.000 C 
ENDBRANCH   3   8
ENDBRANCH   1   3
BRANCH   1   9
ATOM      9  C6  UNL     1     -22.519   6.003 -37.970  0.00  0.00    +0.000 C 
BRANCH   9  10
ATOM     10  C7  UNL     1     -21.467   7.076 -38.114  0.00  0.00    +0.000 A 
ATOM     11  C8  UNL     1     -20.379   6.889 -38.982  0.00  0.00    +0.000 A 
ATOM     12  C9  UNL     1     -19.402   7.876 -39.118  0.00  0.00    +0.000 A 
ATOM     13  C10 UNL     1     -19.498   9.059 -38.388  0.00  0.00    +0.000 A 
ATOM     14  C11 UNL     1     -20.575   9.258 -37.525  0.00  0.00    +0.000 A 
ATOM     15  C12 UNL     1     -21.555   8.272 -37.388  0.00  0.00    +0.000 A 
ENDBRANCH   9  10
ENDBRANCH   1   9
TORSDOF 4
ENDMDL
MODEL 7
REMARK VINA RESULT:    -4.047      1.536      2.147
REMARK INTER + INTRA:          -5.408
REMARK INTER:                  -4.766
REMARK INTRA:                  -0.642
REMARK UNBOUND:                -0.415
REMARK  Name = /home/anacleto/Desktop/manuscript_Mpro/naturecomm/supplementary_file_S2/6-chemical-library/molecular_docking/3D_ligand_structure/928.pdb
REMARK  4 active torsions:
REMARK  status: ('A' for Active; 'I' for Inactive)
REMARK    1  A    between atoms: C4_5  and  C5_6
REMARK    2  A    between atoms: C5_6  and  N1_7
REMARK    3  A    between atoms: N1_7  and  C6_8
REMARK    4  A    between atoms: C6_8  and  C7_9
REMARK                            x       y       z     vdW  Elec       q    Type
REMARK                         _______ _______ _______ _____ _____    ______ ____
ROOT
ATOM      1  N1  UNL     1     -28.387   2.950 -38.310  0.00  0.00    +0.000 NA
ATOM      2  H10 UNL     1     -29.019   2.320 -37.821  0.00  0.00    +0.000 HD
ENDROOT
BRANCH   1   3
ATOM      3  C5  UNL     1     -29.035   3.502 -39.507  0.00  0.00    +0.000 C 
BRANCH   3   8
ATOM      4  O1  UNL     1     -28.238   5.747 -40.138  0.00  0.00    +0.000 OA
ATOM      5  C1  UNL     1     -27.890   6.891 -39.348  0.00  0.00    +0.000 C 
ATOM      6  C2  UNL     1     -28.995   7.064 -38.328  0.00  0.00    +0.000 C 
ATOM      7  C3  UNL     1     -29.395   5.633 -38.063  0.00  0.00    +0.000 C 
ATOM      8  C4  UNL     1     -29.279   5.023 -39.454  0.00  0.00    +0.000 C 
ENDBRANCH   3   8
ENDBRANCH   1   3
BRANCH   1   9
ATOM      9  C6  UNL     1     -27.168   2.220 -38.653  0.00  0.00    +0.000 C 
BRANCH   9  10
ATOM     10  C7  UNL     1     -26.128   3.151 -39.230  0.00  0.00    +0.000 A 
ATOM     11  C8  UNL     1     -25.565   4.163 -38.437  0.00  0.00    +0.000 A 
ATOM     12  C9  UNL     1     -24.605   5.028 -38.964  0.00  0.00    +0.000 A 
ATOM     13  C10 UNL     1     -24.197   4.892 -40.289  0.00  0.00    +0.000 A 
ATOM     14  C11 UNL     1     -24.746   3.889 -41.087  0.00  0.00    +0.000 A 
ATOM     15  C12 UNL     1     -25.706   3.022 -40.560  0.00  0.00    +0.000 A 
ENDBRANCH   9  10
ENDBRANCH   1   9
TORSDOF 4
ENDMDL
MODEL 8
REMARK VINA RESULT:    -3.970      1.694      3.129
REMARK INTER + INTRA:          -5.313
REMARK INTER:                  -4.922
REMARK INTRA:                  -0.391
REMARK UNBOUND:                -0.415
REMARK  Name = /home/anacleto/Desktop/manuscript_Mpro/naturecomm/supplementary_file_S2/6-chemical-library/molecular_docking/3D_ligand_structure/928.pdb
REMARK  4 active torsions:
REMARK  status: ('A' for Active; 'I' for Inactive)
REMARK    1  A    between atoms: C4_5  and  C5_6
REMARK    2  A    between atoms: C5_6  and  N1_7
REMARK    3  A    between atoms: N1_7  and  C6_8
REMARK    4  A    between atoms: C6_8  and  C7_9
REMARK                            x       y       z     vdW  Elec       q    Type
REMARK                         _______ _______ _______ _____ _____    ______ ____
ROOT
ATOM      1  N1  UNL     1     -28.263   2.649 -38.322  0.00  0.00    +0.000 NA
ATOM      2  H10 UNL     1     -28.421   2.184 -39.213  0.00  0.00    +0.000 HD
ENDROOT
BRANCH   1   3
ATOM      3  C5  UNL     1     -28.679   4.056 -38.394  0.00  0.00    +0.000 C 
BRANCH   3   8
ATOM      4  O1  UNL     1     -30.869   4.700 -39.324  0.00  0.00    +0.000 OA
ATOM      5  C1  UNL     1     -31.705   4.079 -40.309  0.00  0.00    +0.000 C 
ATOM      6  C2  UNL     1     -30.804   3.702 -41.466  0.00  0.00    +0.000 C 
ATOM      7  C3  UNL     1     -29.516   3.366 -40.756  0.00  0.00    +0.000 C 
ATOM      8  C4  UNL     1     -29.494   4.414 -39.652  0.00  0.00    +0.000 C 
ENDBRANCH   3   8
ENDBRANCH   1   3
BRANCH   1   9
ATOM      9  C6  UNL     1     -26.848   2.530 -37.975  0.00  0.00    +0.000 C 
BRANCH   9  10
ATOM     10  C7  UNL     1     -25.979   3.180 -39.025  0.00  0.00    +0.000 A 
ATOM     11  C8  UNL     1     -25.852   2.601 -40.297  0.00  0.00    +0.000 A 
ATOM     12  C9  UNL     1     -25.049   3.195 -41.271  0.00  0.00    +0.000 A 
ATOM     13  C10 UNL     1     -24.362   4.373 -40.985  0.00  0.00    +0.000 A 
ATOM     14  C11 UNL     1     -24.482   4.960 -39.727  0.00  0.00    +0.000 A 
ATOM     15  C12 UNL     1     -25.287   4.368 -38.751  0.00  0.00    +0.000 A 
ENDBRANCH   9  10
ENDBRANCH   1   9
TORSDOF 4
ENDMDL
MODEL 9
REMARK VINA RESULT:    -3.951      8.553     10.312
REMARK INTER + INTRA:          -5.290
REMARK INTER:                  -4.875
REMARK INTRA:                  -0.415
REMARK UNBOUND:                -0.415
REMARK  Name = /home/anacleto/Desktop/manuscript_Mpro/naturecomm/supplementary_file_S2/6-chemical-library/molecular_docking/3D_ligand_structure/928.pdb
REMARK  4 active torsions:
REMARK  status: ('A' for Active; 'I' for Inactive)
REMARK    1  A    between atoms: C4_5  and  C5_6
REMARK    2  A    between atoms: C5_6  and  N1_7
REMARK    3  A    between atoms: N1_7  and  C6_8
REMARK    4  A    between atoms: C6_8  and  C7_9
REMARK                            x       y       z     vdW  Elec       q    Type
REMARK                         _______ _______ _______ _____ _____    ______ ____
ROOT
ATOM      1  N1  UNL     1     -19.684   9.399 -37.572  0.00  0.00    +0.000 NA
ATOM      2  H10 UNL     1     -19.411   9.604 -36.613  0.00  0.00    +0.000 HD
ENDROOT
BRANCH   1   3
ATOM      3  C5  UNL     1     -18.843  10.146 -38.517  0.00  0.00    +0.000 C 
BRANCH   3   8
ATOM      4  O1  UNL     1     -17.098  10.063 -40.256  0.00  0.00    +0.000 OA
ATOM      5  C1  UNL     1     -17.056   9.412 -41.532  0.00  0.00    +0.000 C 
ATOM      6  C2  UNL     1     -17.559   8.001 -41.315  0.00  0.00    +0.000 C 
ATOM      7  C3  UNL     1     -18.582   8.204 -40.225  0.00  0.00    +0.000 C 
ATOM      8  C4  UNL     1     -17.906   9.265 -39.367  0.00  0.00    +0.000 C 
ENDBRANCH   3   8
ENDBRANCH   1   3
BRANCH   1   9
ATOM      9  C6  UNL     1     -21.097   9.731 -37.740  0.00  0.00    +0.000 C 
BRANCH   9  10
ATOM     10  C7  UNL     1     -21.930   8.481 -37.891  0.00  0.00    +0.000 A 
ATOM     11  C8  UNL     1     -21.321   7.216 -37.869  0.00  0.00    +0.000 A 
ATOM     12  C9  UNL     1     -22.084   6.057 -38.011  0.00  0.00    +0.000 A 
ATOM     13  C10 UNL     1     -23.464   6.147 -38.177  0.00  0.00    +0.000 A 
ATOM     14  C11 UNL     1     -24.083   7.396 -38.197  0.00  0.00    +0.000 A 
ATOM     15  C12 UNL     1     -23.320   8.558 -38.055  0.00  0.00    +0.000 A 
ENDBRANCH   9  10
ENDBRANCH   1   9
TORSDOF 4
ENDMDL
