MODEL 1
REMARK VINA RESULT:    -3.211      0.000      0.000
REMARK INTER + INTRA:          -3.211
REMARK INTER:                  -3.211
REMARK INTRA:                   0.000
REMARK UNBOUND:                 0.000
REMARK  Name = /home/anacleto/Desktop/manuscript_Mpro/naturecomm/supplementary_file_S2/6-chemical-library/molecular_docking/3D_ligand_structure/265.pdb
REMARK  0 active torsions:
REMARK  status: ('A' for Active; 'I' for Inactive)
REMARK                            x       y       z     vdW  Elec       q    Type
REMARK                         _______ _______ _______ _____ _____    ______ ____
ROOT
ATOM      1  S1  UNL     1     -25.697  -5.334 -25.390  0.00  0.00    +0.000 S 
ATOM      2  C1  UNL     1     -27.399  -6.012 -25.137  0.00  0.00    +0.000 C 
ATOM      3  C2  UNL     1     -28.281  -5.483 -26.254  0.00  0.00    +0.000 C 
ATOM      4  O1  UNL     1     -29.467  -5.693 -26.449  0.00  0.00    +0.000 OA
ATOM      5  N1  UNL     1     -27.508  -4.681 -27.069  0.00  0.00    +0.000 N 
ATOM      6  C3  UNL     1     -26.201  -4.494 -26.790  0.00  0.00    +0.000 A 
ATOM      7  N2  UNL     1     -27.862  -4.001 -28.178  0.00  0.00    +0.000 NA
ATOM      8  C4  UNL     1     -26.688  -3.431 -28.497  0.00  0.00    +0.000 A 
ATOM      9  N3  UNL     1     -25.631  -3.712 -27.660  0.00  0.00    +0.000 NA
ENDROOT
TORSDOF 0
ENDMDL
MODEL 2
REMARK VINA RESULT:    -3.139      2.184      2.845
REMARK INTER + INTRA:          -3.139
REMARK INTER:                  -3.139
REMARK INTRA:                   0.000
REMARK UNBOUND:                 0.000
REMARK  Name = /home/anacleto/Desktop/manuscript_Mpro/naturecomm/supplementary_file_S2/6-chemical-library/molecular_docking/3D_ligand_structure/265.pdb
REMARK  0 active torsions:
REMARK  status: ('A' for Active; 'I' for Inactive)
REMARK                            x       y       z     vdW  Elec       q    Type
REMARK                         _______ _______ _______ _____ _____    ______ ____
ROOT
ATOM      1  S1  UNL     1     -25.639  -5.008 -26.016  0.00  0.00    +0.000 S 
ATOM      2  C1  UNL     1     -27.148  -4.314 -26.829  0.00  0.00    +0.000 C 
ATOM      3  C2  UNL     1     -26.705  -3.572 -28.077  0.00  0.00    +0.000 C 
ATOM      4  O1  UNL     1     -27.392  -2.974 -28.888  0.00  0.00    +0.000 OA
ATOM      5  N1  UNL     1     -25.332  -3.671 -28.172  0.00  0.00    +0.000 N 
ATOM      6  C3  UNL     1     -24.637  -4.349 -27.234  0.00  0.00    +0.000 A 
ATOM      7  N2  UNL     1     -24.504  -3.170 -29.110  0.00  0.00    +0.000 NA
ATOM      8  C4  UNL     1     -23.320  -3.604 -28.645  0.00  0.00    +0.000 A 
ATOM      9  N3  UNL     1     -23.360  -4.340 -27.482  0.00  0.00    +0.000 NA
ENDROOT
TORSDOF 0
ENDMDL
MODEL 3
REMARK VINA RESULT:    -3.137      2.651      3.387
REMARK INTER + INTRA:          -3.137
REMARK INTER:                  -3.137
REMARK INTRA:                   0.000
REMARK UNBOUND:                 0.000
REMARK  Name = /home/anacleto/Desktop/manuscript_Mpro/naturecomm/supplementary_file_S2/6-chemical-library/molecular_docking/3D_ligand_structure/265.pdb
REMARK  0 active torsions:
REMARK  status: ('A' for Active; 'I' for Inactive)
REMARK                            x       y       z     vdW  Elec       q    Type
REMARK                         _______ _______ _______ _____ _____    ______ ____
ROOT
ATOM      1  S1  UNL     1     -24.824  -5.178 -26.130  0.00  0.00    +0.000 S 
ATOM      2  C1  UNL     1     -23.639  -4.429 -27.338  0.00  0.00    +0.000 C 
ATOM      3  C2  UNL     1     -24.446  -3.636 -28.350  0.00  0.00    +0.000 C 
ATOM      4  O1  UNL     1     -24.044  -2.995 -29.306  0.00  0.00    +0.000 OA
ATOM      5  N1  UNL     1     -25.781  -3.749 -28.020  0.00  0.00    +0.000 N 
ATOM      6  C3  UNL     1     -26.152  -4.478 -26.946  0.00  0.00    +0.000 A 
ATOM      7  N2  UNL     1     -26.858  -3.218 -28.631  0.00  0.00    +0.000 NA
ATOM      8  C4  UNL     1     -27.840  -3.688 -27.843  0.00  0.00    +0.000 A 
ATOM      9  N3  UNL     1     -27.443  -4.474 -26.785  0.00  0.00    +0.000 NA
ENDROOT
TORSDOF 0
ENDMDL
MODEL 4
REMARK VINA RESULT:    -3.125     17.299     17.679
REMARK INTER + INTRA:          -3.125
REMARK INTER:                  -3.125
REMARK INTRA:                   0.000
REMARK UNBOUND:                 0.000
REMARK  Name = /home/anacleto/Desktop/manuscript_Mpro/naturecomm/supplementary_file_S2/6-chemical-library/molecular_docking/3D_ligand_structure/265.pdb
REMARK  0 active torsions:
REMARK  status: ('A' for Active; 'I' for Inactive)
REMARK                            x       y       z     vdW  Elec       q    Type
REMARK                         _______ _______ _______ _____ _____    ______ ____
ROOT
ATOM      1  S1  UNL     1     -21.379   6.820 -38.306  0.00  0.00    +0.000 S 
ATOM      2  C1  UNL     1     -23.111   6.451 -38.842  0.00  0.00    +0.000 C 
ATOM      3  C2  UNL     1     -23.992   7.602 -38.390  0.00  0.00    +0.000 C 
ATOM      4  O1  UNL     1     -25.193   7.744 -38.545  0.00  0.00    +0.000 OA
ATOM      5  N1  UNL     1     -23.197   8.522 -37.736  0.00  0.00    +0.000 N 
ATOM      6  C3  UNL     1     -21.873   8.296 -37.602  0.00  0.00    +0.000 A 
ATOM      7  N2  UNL     1     -23.541   9.694 -37.167  0.00  0.00    +0.000 NA
ATOM      8  C4  UNL     1     -22.345  10.104 -36.712  0.00  0.00    +0.000 A 
ATOM      9  N3  UNL     1     -21.283   9.264 -36.962  0.00  0.00    +0.000 NA
ENDROOT
TORSDOF 0
ENDMDL
MODEL 5
REMARK VINA RESULT:    -3.124     18.239     18.959
REMARK INTER + INTRA:          -3.124
REMARK INTER:                  -3.124
REMARK INTRA:                   0.000
REMARK UNBOUND:                 0.000
REMARK  Name = /home/anacleto/Desktop/manuscript_Mpro/naturecomm/supplementary_file_S2/6-chemical-library/molecular_docking/3D_ligand_structure/265.pdb
REMARK  0 active torsions:
REMARK  status: ('A' for Active; 'I' for Inactive)
REMARK                            x       y       z     vdW  Elec       q    Type
REMARK                         _______ _______ _______ _____ _____    ______ ____
ROOT
ATOM      1  S1  UNL     1     -21.924  10.161 -37.412  0.00  0.00    +0.000 S 
ATOM      2  C1  UNL     1     -22.529   8.428 -37.644  0.00  0.00    +0.000 C 
ATOM      3  C2  UNL     1     -21.374   7.599 -38.175  0.00  0.00    +0.000 C 
ATOM      4  O1  UNL     1     -21.358   6.413 -38.459  0.00  0.00    +0.000 OA
ATOM      5  N1  UNL     1     -20.274   8.424 -38.302  0.00  0.00    +0.000 N 
ATOM      6  C3  UNL     1     -20.367   9.728 -37.968  0.00  0.00    +0.000 A 
ATOM      7  N2  UNL     1     -19.033   8.129 -38.734  0.00  0.00    +0.000 NA
ATOM      8  C4  UNL     1     -18.445   9.332 -38.623  0.00  0.00    +0.000 A 
ATOM      9  N3  UNL     1     -19.240  10.352 -38.150  0.00  0.00    +0.000 NA
ENDROOT
TORSDOF 0
ENDMDL
MODEL 6
REMARK VINA RESULT:    -3.105     18.262     19.001
REMARK INTER + INTRA:          -3.105
REMARK INTER:                  -3.105
REMARK INTRA:                   0.000
REMARK UNBOUND:                 0.000
REMARK  Name = /home/anacleto/Desktop/manuscript_Mpro/naturecomm/supplementary_file_S2/6-chemical-library/molecular_docking/3D_ligand_structure/265.pdb
REMARK  0 active torsions:
REMARK  status: ('A' for Active; 'I' for Inactive)
REMARK                            x       y       z     vdW  Elec       q    Type
REMARK                         _______ _______ _______ _____ _____    ______ ____
ROOT
ATOM      1  S1  UNL     1     -21.196   6.860 -38.700  0.00  0.00    +0.000 S 
ATOM      2  C1  UNL     1     -22.301   7.961 -37.706  0.00  0.00    +0.000 C 
ATOM      3  C2  UNL     1     -21.537   9.239 -37.408  0.00  0.00    +0.000 C 
ATOM      4  O1  UNL     1     -21.908  10.216 -36.779  0.00  0.00    +0.000 OA
ATOM      5  N1  UNL     1     -20.285   9.136 -37.980  0.00  0.00    +0.000 N 
ATOM      6  C3  UNL     1     -19.944   8.022 -38.661  0.00  0.00    +0.000 A 
ATOM      7  N2  UNL     1     -19.270  10.022 -37.975  0.00  0.00    +0.000 NA
ATOM      8  C4  UNL     1     -18.353   9.344 -38.686  0.00  0.00    +0.000 A 
ATOM      9  N3  UNL     1     -18.732   8.098 -39.131  0.00  0.00    +0.000 NA
ENDROOT
TORSDOF 0
ENDMDL
MODEL 7
REMARK VINA RESULT:    -3.052     19.248     19.488
REMARK INTER + INTRA:          -3.052
REMARK INTER:                  -3.052
REMARK INTRA:                   0.000
REMARK UNBOUND:                 0.000
REMARK  Name = /home/anacleto/Desktop/manuscript_Mpro/naturecomm/supplementary_file_S2/6-chemical-library/molecular_docking/3D_ligand_structure/265.pdb
REMARK  0 active torsions:
REMARK  status: ('A' for Active; 'I' for Inactive)
REMARK                            x       y       z     vdW  Elec       q    Type
REMARK                         _______ _______ _______ _____ _____    ______ ____
ROOT
ATOM      1  S1  UNL     1     -34.979  13.459 -30.763  0.00  0.00    +0.000 S 
ATOM      2  C1  UNL     1     -36.280  12.877 -29.584  0.00  0.00    +0.000 C 
ATOM      3  C2  UNL     1     -37.017  11.723 -30.239  0.00  0.00    +0.000 C 
ATOM      4  O1  UNL     1     -37.943  11.064 -29.795  0.00  0.00    +0.000 OA
ATOM      5  N1  UNL     1     -36.462  11.508 -31.485  0.00  0.00    +0.000 N 
ATOM      6  C3  UNL     1     -35.439  12.279 -31.909  0.00  0.00    +0.000 A 
ATOM      7  N2  UNL     1     -36.791  10.595 -32.418  0.00  0.00    +0.000 NA
ATOM      8  C4  UNL     1     -35.901  10.897 -33.379  0.00  0.00    +0.000 A 
ATOM      9  N3  UNL     1     -35.043  11.938 -33.101  0.00  0.00    +0.000 NA
ENDROOT
TORSDOF 0
ENDMDL
MODEL 8
REMARK VINA RESULT:    -3.045     17.251     18.107
REMARK INTER + INTRA:          -3.045
REMARK INTER:                  -3.045
REMARK INTRA:                   0.000
REMARK UNBOUND:                 0.000
REMARK  Name = /home/anacleto/Desktop/manuscript_Mpro/naturecomm/supplementary_file_S2/6-chemical-library/molecular_docking/3D_ligand_structure/265.pdb
REMARK  0 active torsions:
REMARK  status: ('A' for Active; 'I' for Inactive)
REMARK                            x       y       z     vdW  Elec       q    Type
REMARK                         _______ _______ _______ _____ _____    ______ ____
ROOT
ATOM      1  S1  UNL     1     -22.982   9.749 -37.314  0.00  0.00    +0.000 S 
ATOM      2  C1  UNL     1     -21.155   9.942 -37.527  0.00  0.00    +0.000 C 
ATOM      3  C2  UNL     1     -20.603   8.620 -38.029  0.00  0.00    +0.000 C 
ATOM      4  O1  UNL     1     -19.448   8.331 -38.294  0.00  0.00    +0.000 OA
ATOM      5  N1  UNL     1     -21.654   7.733 -38.151  0.00  0.00    +0.000 N 
ATOM      6  C3  UNL     1     -22.907   8.124 -37.839  0.00  0.00    +0.000 A 
ATOM      7  N2  UNL     1     -21.642   6.449 -38.559  0.00  0.00    +0.000 NA
ATOM      8  C4  UNL     1     -22.948   6.150 -38.456  0.00  0.00    +0.000 A 
ATOM      9  N3  UNL     1     -23.768   7.164 -38.013  0.00  0.00    +0.000 NA
ENDROOT
TORSDOF 0
ENDMDL
MODEL 9
REMARK VINA RESULT:    -3.025     18.043     18.664
REMARK INTER + INTRA:          -3.025
REMARK INTER:                  -3.025
REMARK INTRA:                   0.000
REMARK UNBOUND:                 0.000
REMARK  Name = /home/anacleto/Desktop/manuscript_Mpro/naturecomm/supplementary_file_S2/6-chemical-library/molecular_docking/3D_ligand_structure/265.pdb
REMARK  0 active torsions:
REMARK  status: ('A' for Active; 'I' for Inactive)
REMARK                            x       y       z     vdW  Elec       q    Type
REMARK                         _______ _______ _______ _____ _____    ______ ____
ROOT
ATOM      1  S1  UNL     1     -21.686   6.802 -38.646  0.00  0.00    +0.000 S 
ATOM      2  C1  UNL     1     -20.033   7.632 -38.674  0.00  0.00    +0.000 C 
ATOM      3  C2  UNL     1     -20.207   9.034 -38.118  0.00  0.00    +0.000 C 
ATOM      4  O1  UNL     1     -19.363   9.902 -37.968  0.00  0.00    +0.000 OA
ATOM      5  N1  UNL     1     -21.536   9.203 -37.786  0.00  0.00    +0.000 N 
ATOM      6  C3  UNL     1     -22.414   8.198 -37.981  0.00  0.00    +0.000 A 
ATOM      7  N2  UNL     1     -22.153  10.281 -37.262  0.00  0.00    +0.000 NA
ATOM      8  C4  UNL     1     -23.413   9.822 -37.177  0.00  0.00    +0.000 A 
ATOM      9  N3  UNL     1     -23.617   8.532 -37.613  0.00  0.00    +0.000 NA
ENDROOT
TORSDOF 0
ENDMDL
