MODEL 1
REMARK VINA RESULT:    -4.165      0.000      0.000
REMARK INTER + INTRA:          -4.165
REMARK INTER:                  -4.165
REMARK INTRA:                   0.000
REMARK UNBOUND:                 0.000
REMARK  Name = /home/anacleto/Desktop/manuscript_Mpro/naturecomm/supplementary_file_S2/6-chemical-library/molecular_docking/3D_ligand_structure/1193.pdb
REMARK  0 active torsions:
REMARK  status: ('A' for Active; 'I' for Inactive)
REMARK                            x       y       z     vdW  Elec       q    Type
REMARK                         _______ _______ _______ _____ _____    ______ ____
ROOT
ATOM      1  N1  UNL     1      14.295  10.800  -4.265  0.00  0.00    +0.000 NA
ATOM      2  C1  UNL     1      13.488  10.555  -5.315  0.00  0.00    +0.000 A 
ATOM      3  C2  UNL     1      13.534  11.263  -6.487  0.00  0.00    +0.000 A 
ATOM      4  C3  UNL     1      14.476  12.258  -6.522  0.00  0.00    +0.000 A 
ATOM      5  N2  UNL     1      15.302  12.536  -5.496  0.00  0.00    +0.000 NA
ATOM      6  C4  UNL     1      15.192  11.796  -4.378  0.00  0.00    +0.000 A 
ATOM      7  N3  UNL     1      16.062  12.046  -3.314  0.00  0.00    +0.000 N 
ATOM      8  C5  UNL     1      16.605  13.413  -3.300  0.00  0.00    +0.000 C 
ATOM      9  C6  UNL     1      17.611  13.567  -2.148  0.00  0.00    +0.000 C 
ATOM     10  O1  UNL     1      17.030  13.205  -0.886  0.00  0.00    +0.000 OA
ATOM     11  C7  UNL     1      16.604  11.834  -0.920  0.00  0.00    +0.000 C 
ATOM     12  C8  UNL     1      15.550  11.594  -2.011  0.00  0.00    +0.000 C 
ENDROOT
TORSDOF 0
ENDMDL
MODEL 2
REMARK VINA RESULT:    -4.105      1.103      2.165
REMARK INTER + INTRA:          -4.105
REMARK INTER:                  -4.105
REMARK INTRA:                   0.000
REMARK UNBOUND:                 0.000
REMARK  Name = /home/anacleto/Desktop/manuscript_Mpro/naturecomm/supplementary_file_S2/6-chemical-library/molecular_docking/3D_ligand_structure/1193.pdb
REMARK  0 active torsions:
REMARK  status: ('A' for Active; 'I' for Inactive)
REMARK                            x       y       z     vdW  Elec       q    Type
REMARK                         _______ _______ _______ _____ _____    ______ ____
ROOT
ATOM      1  N1  UNL     1      15.709  11.890  -5.932  0.00  0.00    +0.000 NA
ATOM      2  C1  UNL     1      14.880  11.623  -6.959  0.00  0.00    +0.000 A 
ATOM      3  C2  UNL     1      13.683  10.972  -6.815  0.00  0.00    +0.000 A 
ATOM      4  C3  UNL     1      13.378  10.603  -5.532  0.00  0.00    +0.000 A 
ATOM      5  N2  UNL     1      14.178  10.850  -4.477  0.00  0.00    +0.000 NA
ATOM      6  C4  UNL     1      15.339  11.492  -4.701  0.00  0.00    +0.000 A 
ATOM      7  N3  UNL     1      16.168  11.789  -3.617  0.00  0.00    +0.000 N 
ATOM      8  C5  UNL     1      15.975  10.900  -2.462  0.00  0.00    +0.000 C 
ATOM      9  C6  UNL     1      16.865  11.353  -1.294  0.00  0.00    +0.000 C 
ATOM     10  O1  UNL     1      18.245  11.438  -1.683  0.00  0.00    +0.000 OA
ATOM     11  C7  UNL     1      18.394  12.391  -2.748  0.00  0.00    +0.000 C 
ATOM     12  C8  UNL     1      17.577  11.989  -3.986  0.00  0.00    +0.000 C 
ENDROOT
TORSDOF 0
ENDMDL
MODEL 3
REMARK VINA RESULT:    -4.087      2.483      4.680
REMARK INTER + INTRA:          -4.087
REMARK INTER:                  -4.087
REMARK INTRA:                   0.000
REMARK UNBOUND:                 0.000
REMARK  Name = /home/anacleto/Desktop/manuscript_Mpro/naturecomm/supplementary_file_S2/6-chemical-library/molecular_docking/3D_ligand_structure/1193.pdb
REMARK  0 active torsions:
REMARK  status: ('A' for Active; 'I' for Inactive)
REMARK                            x       y       z     vdW  Elec       q    Type
REMARK                         _______ _______ _______ _____ _____    ______ ____
ROOT
ATOM      1  N1  UNL     1      15.355  11.268  -2.513  0.00  0.00    +0.000 NA
ATOM      2  C1  UNL     1      16.134  11.197  -1.417  0.00  0.00    +0.000 A 
ATOM      3  C2  UNL     1      17.489  11.396  -1.437  0.00  0.00    +0.000 A 
ATOM      4  C3  UNL     1      18.011  11.678  -2.671  0.00  0.00    +0.000 A 
ATOM      5  N2  UNL     1      17.270  11.758  -3.792  0.00  0.00    +0.000 NA
ATOM      6  C4  UNL     1      15.945  11.548  -3.690  0.00  0.00    +0.000 A 
ATOM      7  N3  UNL     1      15.151  11.660  -4.834  0.00  0.00    +0.000 N 
ATOM      8  C5  UNL     1      15.886  11.437  -6.089  0.00  0.00    +0.000 C 
ATOM      9  C6  UNL     1      14.955  11.663  -7.290  0.00  0.00    +0.000 C 
ATOM     10  O1  UNL     1      13.775  10.849  -7.205  0.00  0.00    +0.000 OA
ATOM     11  C7  UNL     1      13.043  11.173  -6.012  0.00  0.00    +0.000 C 
ATOM     12  C8  UNL     1      13.881  10.925  -4.749  0.00  0.00    +0.000 C 
ENDROOT
TORSDOF 0
ENDMDL
MODEL 4
REMARK VINA RESULT:    -3.904      2.395      4.990
REMARK INTER + INTRA:          -3.904
REMARK INTER:                  -3.904
REMARK INTRA:                   0.000
REMARK UNBOUND:                 0.000
REMARK  Name = /home/anacleto/Desktop/manuscript_Mpro/naturecomm/supplementary_file_S2/6-chemical-library/molecular_docking/3D_ligand_structure/1193.pdb
REMARK  0 active torsions:
REMARK  status: ('A' for Active; 'I' for Inactive)
REMARK                            x       y       z     vdW  Elec       q    Type
REMARK                         _______ _______ _______ _____ _____    ______ ____
ROOT
ATOM      1  N1  UNL     1      17.541  11.996  -3.578  0.00  0.00    +0.000 NA
ATOM      2  C1  UNL     1      18.195  12.240  -2.426  0.00  0.00    +0.000 A 
ATOM      3  C2  UNL     1      17.701  11.912  -1.191  0.00  0.00    +0.000 A 
ATOM      4  C3  UNL     1      16.472  11.307  -1.204  0.00  0.00    +0.000 A 
ATOM      5  N2  UNL     1      15.785  11.044  -2.331  0.00  0.00    +0.000 NA
ATOM      6  C4  UNL     1      16.337  11.399  -3.505  0.00  0.00    +0.000 A 
ATOM      7  N3  UNL     1      15.656  11.105  -4.689  0.00  0.00    +0.000 N 
ATOM      8  C5  UNL     1      14.202  10.963  -4.517  0.00  0.00    +0.000 C 
ATOM      9  C6  UNL     1      13.552  10.560  -5.850  0.00  0.00    +0.000 C 
ATOM     10  O1  UNL     1      13.883  11.482  -6.900  0.00  0.00    +0.000 OA
ATOM     11  C7  UNL     1      15.306  11.511  -7.094  0.00  0.00    +0.000 C 
ATOM     12  C8  UNL     1      16.042  11.959  -5.822  0.00  0.00    +0.000 C 
ENDROOT
TORSDOF 0
ENDMDL
MODEL 5
REMARK VINA RESULT:    -3.855      2.113      2.882
REMARK INTER + INTRA:          -3.855
REMARK INTER:                  -3.855
REMARK INTRA:                   0.000
REMARK UNBOUND:                 0.000
REMARK  Name = /home/anacleto/Desktop/manuscript_Mpro/naturecomm/supplementary_file_S2/6-chemical-library/molecular_docking/3D_ligand_structure/1193.pdb
REMARK  0 active torsions:
REMARK  status: ('A' for Active; 'I' for Inactive)
REMARK                            x       y       z     vdW  Elec       q    Type
REMARK                         _______ _______ _______ _____ _____    ______ ____
ROOT
ATOM      1  N1  UNL     1      14.315  13.523  -4.201  0.00  0.00    +0.000 NA
ATOM      2  C1  UNL     1      13.960  12.555  -5.068  0.00  0.00    +0.000 A 
ATOM      3  C2  UNL     1      14.254  11.230  -4.884  0.00  0.00    +0.000 A 
ATOM      4  C3  UNL     1      14.946  10.947  -3.735  0.00  0.00    +0.000 A 
ATOM      5  N2  UNL     1      15.319  11.883  -2.843  0.00  0.00    +0.000 NA
ATOM      6  C4  UNL     1      14.995  13.164  -3.097  0.00  0.00    +0.000 A 
ATOM      7  N3  UNL     1      15.342  14.147  -2.168  0.00  0.00    +0.000 N 
ATOM      8  C5  UNL     1      16.486  13.782  -1.317  0.00  0.00    +0.000 C 
ATOM      9  C6  UNL     1      16.739  14.883  -0.276  0.00  0.00    +0.000 C 
ATOM     10  O1  UNL     1      16.917  16.167  -0.896  0.00  0.00    +0.000 OA
ATOM     11  C7  UNL     1      15.736  16.520  -1.633  0.00  0.00    +0.000 C 
ATOM     12  C8  UNL     1      15.432  15.499  -2.740  0.00  0.00    +0.000 C 
ENDROOT
TORSDOF 0
ENDMDL
MODEL 6
REMARK VINA RESULT:    -3.825      3.582      6.281
REMARK INTER + INTRA:          -3.825
REMARK INTER:                  -3.825
REMARK INTRA:                   0.000
REMARK UNBOUND:                 0.000
REMARK  Name = /home/anacleto/Desktop/manuscript_Mpro/naturecomm/supplementary_file_S2/6-chemical-library/molecular_docking/3D_ligand_structure/1193.pdb
REMARK  0 active torsions:
REMARK  status: ('A' for Active; 'I' for Inactive)
REMARK                            x       y       z     vdW  Elec       q    Type
REMARK                         _______ _______ _______ _____ _____    ______ ____
ROOT
ATOM      1  N1  UNL     1      18.430  14.088  -0.437  0.00  0.00    +0.000 NA
ATOM      2  C1  UNL     1      19.561  14.429   0.208  0.00  0.00    +0.000 A 
ATOM      3  C2  UNL     1      19.704  15.587   0.926  0.00  0.00    +0.000 A 
ATOM      4  C3  UNL     1      18.597  16.392   0.946  0.00  0.00    +0.000 A 
ATOM      5  N2  UNL     1      17.446  16.091   0.315  0.00  0.00    +0.000 NA
ATOM      6  C4  UNL     1      17.386  14.935  -0.372  0.00  0.00    +0.000 A 
ATOM      7  N3  UNL     1      16.191  14.586  -1.006  0.00  0.00    +0.000 N 
ATOM      8  C5  UNL     1      15.334  15.736  -1.331  0.00  0.00    +0.000 C 
ATOM      9  C6  UNL     1      14.013  15.250  -1.945  0.00  0.00    +0.000 C 
ATOM     10  O1  UNL     1      14.238  14.407  -3.086  0.00  0.00    +0.000 OA
ATOM     11  C7  UNL     1      14.996  13.251  -2.696  0.00  0.00    +0.000 C 
ATOM     12  C8  UNL     1      16.365  13.639  -2.117  0.00  0.00    +0.000 C 
ENDROOT
TORSDOF 0
ENDMDL
MODEL 7
REMARK VINA RESULT:    -3.800     15.123     16.734
REMARK INTER + INTRA:          -3.800
REMARK INTER:                  -3.800
REMARK INTRA:                   0.000
REMARK UNBOUND:                 0.000
REMARK  Name = /home/anacleto/Desktop/manuscript_Mpro/naturecomm/supplementary_file_S2/6-chemical-library/molecular_docking/3D_ligand_structure/1193.pdb
REMARK  0 active torsions:
REMARK  status: ('A' for Active; 'I' for Inactive)
REMARK                            x       y       z     vdW  Elec       q    Type
REMARK                         _______ _______ _______ _____ _____    ______ ____
ROOT
ATOM      1  N1  UNL     1      19.089   5.020  10.302  0.00  0.00    +0.000 NA
ATOM      2  C1  UNL     1      19.575   4.933   9.048  0.00  0.00    +0.000 A 
ATOM      3  C2  UNL     1      20.036   6.010   8.339  0.00  0.00    +0.000 A 
ATOM      4  C3  UNL     1      19.970   7.207   9.002  0.00  0.00    +0.000 A 
ATOM      5  N2  UNL     1      19.492   7.339  10.254  0.00  0.00    +0.000 NA
ATOM      6  C4  UNL     1      19.056   6.233  10.883  0.00  0.00    +0.000 A 
ATOM      7  N3  UNL     1      18.587   6.341  12.194  0.00  0.00    +0.000 N 
ATOM      8  C5  UNL     1      18.099   7.685  12.541  0.00  0.00    +0.000 C 
ATOM      9  C6  UNL     1      17.685   7.729  14.020  0.00  0.00    +0.000 C 
ATOM     10  O1  UNL     1      16.722   6.710  14.330  0.00  0.00    +0.000 OA
ATOM     11  C7  UNL     1      17.282   5.413  14.067  0.00  0.00    +0.000 C 
ATOM     12  C8  UNL     1      17.677   5.256  12.591  0.00  0.00    +0.000 C 
ENDROOT
TORSDOF 0
ENDMDL
MODEL 8
REMARK VINA RESULT:    -3.747      2.609      5.186
REMARK INTER + INTRA:          -3.747
REMARK INTER:                  -3.747
REMARK INTRA:                   0.000
REMARK UNBOUND:                 0.000
REMARK  Name = /home/anacleto/Desktop/manuscript_Mpro/naturecomm/supplementary_file_S2/6-chemical-library/molecular_docking/3D_ligand_structure/1193.pdb
REMARK  0 active torsions:
REMARK  status: ('A' for Active; 'I' for Inactive)
REMARK                            x       y       z     vdW  Elec       q    Type
REMARK                         _______ _______ _______ _____ _____    ______ ____
ROOT
ATOM      1  N1  UNL     1      15.856  15.372  -2.336  0.00  0.00    +0.000 NA
ATOM      2  C1  UNL     1      16.291  16.177  -1.347  0.00  0.00    +0.000 A 
ATOM      3  C2  UNL     1      16.894  15.716  -0.206  0.00  0.00    +0.000 A 
ATOM      4  C3  UNL     1      17.030  14.355  -0.136  0.00  0.00    +0.000 A 
ATOM      5  N2  UNL     1      16.610  13.515  -1.101  0.00  0.00    +0.000 NA
ATOM      6  C4  UNL     1      16.025  14.045  -2.190  0.00  0.00    +0.000 A 
ATOM      7  N3  UNL     1      15.613  13.195  -3.219  0.00  0.00    +0.000 N 
ATOM      8  C5  UNL     1      15.346  11.817  -2.778  0.00  0.00    +0.000 C 
ATOM      9  C6  UNL     1      14.982  10.940  -3.986  0.00  0.00    +0.000 C 
ATOM     10  O1  UNL     1      13.882  11.490  -4.728  0.00  0.00    +0.000 OA
ATOM     11  C7  UNL     1      14.229  12.795  -5.218  0.00  0.00    +0.000 C 
ATOM     12  C8  UNL     1      14.558  13.763  -4.071  0.00  0.00    +0.000 C 
ENDROOT
TORSDOF 0
ENDMDL
MODEL 9
REMARK VINA RESULT:    -3.647     15.459     16.859
REMARK INTER + INTRA:          -3.647
REMARK INTER:                  -3.647
REMARK INTRA:                   0.000
REMARK UNBOUND:                 0.000
REMARK  Name = /home/anacleto/Desktop/manuscript_Mpro/naturecomm/supplementary_file_S2/6-chemical-library/molecular_docking/3D_ligand_structure/1193.pdb
REMARK  0 active torsions:
REMARK  status: ('A' for Active; 'I' for Inactive)
REMARK                            x       y       z     vdW  Elec       q    Type
REMARK                         _______ _______ _______ _____ _____    ______ ____
ROOT
ATOM      1  N1  UNL     1      20.376   7.190  10.399  0.00  0.00    +0.000 NA
ATOM      2  C1  UNL     1      21.015   6.881   9.254  0.00  0.00    +0.000 A 
ATOM      3  C2  UNL     1      20.642   5.849   8.434  0.00  0.00    +0.000 A 
ATOM      4  C3  UNL     1      19.552   5.138   8.862  0.00  0.00    +0.000 A 
ATOM      5  N2  UNL     1      18.885   5.413   9.999  0.00  0.00    +0.000 NA
ATOM      6  C4  UNL     1      19.315   6.441  10.751  0.00  0.00    +0.000 A 
ATOM      7  N3  UNL     1      18.616   6.765  11.917  0.00  0.00    +0.000 N 
ATOM      8  C5  UNL     1      17.858   5.641  12.486  0.00  0.00    +0.000 C 
ATOM      9  C6  UNL     1      17.059   6.112  13.711  0.00  0.00    +0.000 C 
ATOM     10  O1  UNL     1      17.907   6.738  14.687  0.00  0.00    +0.000 OA
ATOM     11  C7  UNL     1      18.549   7.886  14.110  0.00  0.00    +0.000 C 
ATOM     12  C8  UNL     1      19.419   7.503  12.904  0.00  0.00    +0.000 C 
ENDROOT
TORSDOF 0
ENDMDL
