MODEL 1
REMARK VINA RESULT:    -3.587      0.000      0.000
REMARK INTER + INTRA:          -3.587
REMARK INTER:                  -3.587
REMARK INTRA:                   0.000
REMARK UNBOUND:                 0.000
REMARK  Name = /home/anacleto/Desktop/manuscript_Mpro/naturecomm/supplementary_file_S2/6-chemical-library/molecular_docking/3D_ligand_structure/21.pdb
REMARK  0 active torsions:
REMARK  status: ('A' for Active; 'I' for Inactive)
REMARK                            x       y       z     vdW  Elec       q    Type
REMARK                         _______ _______ _______ _____ _____    ______ ____
ROOT
ATOM      1  N1  UNL     1      13.661  10.286  -4.625  0.00  0.00    +0.000 NA
ATOM      2  C1  UNL     1      14.801  11.011  -4.016  0.00  0.00    +0.000 C 
ATOM      3  C2  UNL     1      14.588  12.491  -4.309  0.00  0.00    +0.000 C 
ATOM      4  C3  UNL     1      14.130  12.563  -5.755  0.00  0.00    +0.000 C 
ATOM      5  S1  UNL     1      12.997  11.193  -5.913  0.00  0.00    +0.000 S 
ATOM      6  O1  UNL     1      13.285  10.452  -7.117  0.00  0.00    +0.000 OA
ATOM      7  O2  UNL     1      11.668  11.604  -5.530  0.00  0.00    +0.000 OA
ATOM      8  H1  UNL     1      13.913   9.354  -4.967  0.00  0.00    +0.000 HD
ENDROOT
TORSDOF 0
ENDMDL
MODEL 2
REMARK VINA RESULT:    -3.160      2.907      3.264
REMARK INTER + INTRA:          -3.160
REMARK INTER:                  -3.160
REMARK INTRA:                   0.000
REMARK UNBOUND:                 0.000
REMARK  Name = /home/anacleto/Desktop/manuscript_Mpro/naturecomm/supplementary_file_S2/6-chemical-library/molecular_docking/3D_ligand_structure/21.pdb
REMARK  0 active torsions:
REMARK  status: ('A' for Active; 'I' for Inactive)
REMARK                            x       y       z     vdW  Elec       q    Type
REMARK                         _______ _______ _______ _____ _____    ______ ____
ROOT
ATOM      1  N1  UNL     1      14.547  10.533  -4.038  0.00  0.00    +0.000 NA
ATOM      2  C1  UNL     1      13.467  10.668  -5.043  0.00  0.00    +0.000 C 
ATOM      3  C2  UNL     1      13.799  11.895  -5.885  0.00  0.00    +0.000 C 
ATOM      4  C3  UNL     1      14.268  12.954  -4.903  0.00  0.00    +0.000 C 
ATOM      5  S1  UNL     1      15.288  12.048  -3.752  0.00  0.00    +0.000 S 
ATOM      6  O1  UNL     1      14.947  12.413  -2.399  0.00  0.00    +0.000 OA
ATOM      7  O2  UNL     1      16.644  11.979  -4.240  0.00  0.00    +0.000 OA
ATOM      8  H1  UNL     1      14.223  10.146  -3.147  0.00  0.00    +0.000 HD
ENDROOT
TORSDOF 0
ENDMDL
MODEL 3
REMARK VINA RESULT:    -3.093      1.432      2.137
REMARK INTER + INTRA:          -3.093
REMARK INTER:                  -3.093
REMARK INTRA:                   0.000
REMARK UNBOUND:                 0.000
REMARK  Name = /home/anacleto/Desktop/manuscript_Mpro/naturecomm/supplementary_file_S2/6-chemical-library/molecular_docking/3D_ligand_structure/21.pdb
REMARK  0 active torsions:
REMARK  status: ('A' for Active; 'I' for Inactive)
REMARK                            x       y       z     vdW  Elec       q    Type
REMARK                         _______ _______ _______ _____ _____    ______ ____
ROOT
ATOM      1  N1  UNL     1      13.819  13.106  -5.117  0.00  0.00    +0.000 NA
ATOM      2  C1  UNL     1      14.615  12.845  -3.895  0.00  0.00    +0.000 C 
ATOM      3  C2  UNL     1      15.169  11.431  -4.023  0.00  0.00    +0.000 C 
ATOM      4  C3  UNL     1      14.026  10.589  -4.563  0.00  0.00    +0.000 C 
ATOM      5  S1  UNL     1      13.270  11.635  -5.795  0.00  0.00    +0.000 S 
ATOM      6  O1  UNL     1      11.836  11.629  -5.633  0.00  0.00    +0.000 OA
ATOM      7  O2  UNL     1      13.928  11.458  -7.066  0.00  0.00    +0.000 OA
ATOM      8  H1  UNL     1      13.015  13.718  -4.951  0.00  0.00    +0.000 HD
ENDROOT
TORSDOF 0
ENDMDL
MODEL 4
REMARK VINA RESULT:    -2.970     17.527     17.847
REMARK INTER + INTRA:          -2.970
REMARK INTER:                  -2.970
REMARK INTRA:                   0.000
REMARK UNBOUND:                 0.000
REMARK  Name = /home/anacleto/Desktop/manuscript_Mpro/naturecomm/supplementary_file_S2/6-chemical-library/molecular_docking/3D_ligand_structure/21.pdb
REMARK  0 active torsions:
REMARK  status: ('A' for Active; 'I' for Inactive)
REMARK                            x       y       z     vdW  Elec       q    Type
REMARK                         _______ _______ _______ _____ _____    ______ ____
ROOT
ATOM      1  N1  UNL     1      21.368   7.523  10.540  0.00  0.00    +0.000 NA
ATOM      2  C1  UNL     1      21.180   7.603   9.072  0.00  0.00    +0.000 C 
ATOM      3  C2  UNL     1      19.679   7.535   8.816  0.00  0.00    +0.000 C 
ATOM      4  C3  UNL     1      19.151   6.457   9.746  0.00  0.00    +0.000 C 
ATOM      5  S1  UNL     1      20.038   6.734  11.270  0.00  0.00    +0.000 S 
ATOM      6  O1  UNL     1      20.544   5.482  11.779  0.00  0.00    +0.000 OA
ATOM      7  O2  UNL     1      19.338   7.699  12.081  0.00  0.00    +0.000 OA
ATOM      8  H1  UNL     1      22.231   7.043  10.810  0.00  0.00    +0.000 HD
ENDROOT
TORSDOF 0
ENDMDL
MODEL 5
REMARK VINA RESULT:    -2.922      2.289      2.483
REMARK INTER + INTRA:          -2.922
REMARK INTER:                  -2.922
REMARK INTRA:                   0.000
REMARK UNBOUND:                 0.000
REMARK  Name = /home/anacleto/Desktop/manuscript_Mpro/naturecomm/supplementary_file_S2/6-chemical-library/molecular_docking/3D_ligand_structure/21.pdb
REMARK  0 active torsions:
REMARK  status: ('A' for Active; 'I' for Inactive)
REMARK                            x       y       z     vdW  Elec       q    Type
REMARK                         _______ _______ _______ _____ _____    ______ ____
ROOT
ATOM      1  N1  UNL     1      14.950  11.011  -2.792  0.00  0.00    +0.000 NA
ATOM      2  C1  UNL     1      16.371  10.593  -2.755  0.00  0.00    +0.000 C 
ATOM      3  C2  UNL     1      17.043  11.203  -3.980  0.00  0.00    +0.000 C 
ATOM      4  C3  UNL     1      16.065  11.007  -5.125  0.00  0.00    +0.000 C 
ATOM      5  S1  UNL     1      14.476  11.366  -4.396  0.00  0.00    +0.000 S 
ATOM      6  O1  UNL     1      13.523  10.347  -4.768  0.00  0.00    +0.000 OA
ATOM      7  O2  UNL     1      14.202  12.779  -4.478  0.00  0.00    +0.000 OA
ATOM      8  H1  UNL     1      14.314  10.310  -2.402  0.00  0.00    +0.000 HD
ENDROOT
TORSDOF 0
ENDMDL
MODEL 6
REMARK VINA RESULT:    -2.880     17.299     17.505
REMARK INTER + INTRA:          -2.880
REMARK INTER:                  -2.880
REMARK INTRA:                   0.000
REMARK UNBOUND:                 0.000
REMARK  Name = /home/anacleto/Desktop/manuscript_Mpro/naturecomm/supplementary_file_S2/6-chemical-library/molecular_docking/3D_ligand_structure/21.pdb
REMARK  0 active torsions:
REMARK  status: ('A' for Active; 'I' for Inactive)
REMARK                            x       y       z     vdW  Elec       q    Type
REMARK                         _______ _______ _______ _____ _____    ______ ____
ROOT
ATOM      1  N1  UNL     1      21.294   7.575   9.845  0.00  0.00    +0.000 NA
ATOM      2  C1  UNL     1      20.300   7.897   8.794  0.00  0.00    +0.000 C 
ATOM      3  C2  UNL     1      19.477   6.635   8.565  0.00  0.00    +0.000 C 
ATOM      4  C3  UNL     1      20.473   5.489   8.556  0.00  0.00    +0.000 C 
ATOM      5  S1  UNL     1      21.600   5.893   9.881  0.00  0.00    +0.000 S 
ATOM      6  O1  UNL     1      22.962   5.722   9.437  0.00  0.00    +0.000 OA
ATOM      7  O2  UNL     1      21.100   5.376  11.131  0.00  0.00    +0.000 OA
ATOM      8  H1  UNL     1      22.181   8.074   9.727  0.00  0.00    +0.000 HD
ENDROOT
TORSDOF 0
ENDMDL
MODEL 7
REMARK VINA RESULT:    -2.805     19.676     19.954
REMARK INTER + INTRA:          -2.805
REMARK INTER:                  -2.805
REMARK INTRA:                   0.000
REMARK UNBOUND:                 0.000
REMARK  Name = /home/anacleto/Desktop/manuscript_Mpro/naturecomm/supplementary_file_S2/6-chemical-library/molecular_docking/3D_ligand_structure/21.pdb
REMARK  0 active torsions:
REMARK  status: ('A' for Active; 'I' for Inactive)
REMARK                            x       y       z     vdW  Elec       q    Type
REMARK                         _______ _______ _______ _____ _____    ______ ____
ROOT
ATOM      1  N1  UNL     1      22.873  15.873  10.358  0.00  0.00    +0.000 NA
ATOM      2  C1  UNL     1      22.507  15.852  11.794  0.00  0.00    +0.000 C 
ATOM      3  C2  UNL     1      23.494  16.763  12.513  0.00  0.00    +0.000 C 
ATOM      4  C3  UNL     1      24.854  16.452  11.915  0.00  0.00    +0.000 C 
ATOM      5  S1  UNL     1      24.523  16.279  10.169  0.00  0.00    +0.000 S 
ATOM      6  O1  UNL     1      25.172  15.094   9.661  0.00  0.00    +0.000 OA
ATOM      7  O2  UNL     1      24.594  17.565   9.522  0.00  0.00    +0.000 OA
ATOM      8  H1  UNL     1      22.690  14.984   9.883  0.00  0.00    +0.000 HD
ENDROOT
TORSDOF 0
ENDMDL
MODEL 8
REMARK VINA RESULT:    -2.792     20.202     20.490
REMARK INTER + INTRA:          -2.792
REMARK INTER:                  -2.792
REMARK INTRA:                   0.000
REMARK UNBOUND:                 0.000
REMARK  Name = /home/anacleto/Desktop/manuscript_Mpro/naturecomm/supplementary_file_S2/6-chemical-library/molecular_docking/3D_ligand_structure/21.pdb
REMARK  0 active torsions:
REMARK  status: ('A' for Active; 'I' for Inactive)
REMARK                            x       y       z     vdW  Elec       q    Type
REMARK                         _______ _______ _______ _____ _____    ______ ____
ROOT
ATOM      1  N1  UNL     1      23.509  14.303  12.341  0.00  0.00    +0.000 NA
ATOM      2  C1  UNL     1      23.716  14.865  13.696  0.00  0.00    +0.000 C 
ATOM      3  C2  UNL     1      23.339  16.340  13.625  0.00  0.00    +0.000 C 
ATOM      4  C3  UNL     1      23.932  16.854  12.325  0.00  0.00    +0.000 C 
ATOM      5  S1  UNL     1      23.619  15.537  11.162  0.00  0.00    +0.000 S 
ATOM      6  O1  UNL     1      24.812  15.259  10.399  0.00  0.00    +0.000 OA
ATOM      7  O2  UNL     1      22.316  15.702  10.567  0.00  0.00    +0.000 OA
ATOM      8  H1  UNL     1      24.172  13.558  12.108  0.00  0.00    +0.000 HD
ENDROOT
TORSDOF 0
ENDMDL
MODEL 9
REMARK VINA RESULT:    -2.709     20.178     20.560
REMARK INTER + INTRA:          -2.709
REMARK INTER:                  -2.709
REMARK INTRA:                   0.000
REMARK UNBOUND:                 0.000
REMARK  Name = /home/anacleto/Desktop/manuscript_Mpro/naturecomm/supplementary_file_S2/6-chemical-library/molecular_docking/3D_ligand_structure/21.pdb
REMARK  0 active torsions:
REMARK  status: ('A' for Active; 'I' for Inactive)
REMARK                            x       y       z     vdW  Elec       q    Type
REMARK                         _______ _______ _______ _____ _____    ______ ____
ROOT
ATOM      1  N1  UNL     1      22.417  16.319  10.951  0.00  0.00    +0.000 NA
ATOM      2  C1  UNL     1      23.779  16.102  10.409  0.00  0.00    +0.000 C 
ATOM      3  C2  UNL     1      24.622  15.543  11.549  0.00  0.00    +0.000 C 
ATOM      4  C3  UNL     1      24.248  16.355  12.776  0.00  0.00    +0.000 C 
ATOM      5  S1  UNL     1      22.476  16.533  12.646  0.00  0.00    +0.000 S 
ATOM      6  O1  UNL     1      22.100  17.905  12.891  0.00  0.00    +0.000 OA
ATOM      7  O2  UNL     1      21.819  15.406  13.261  0.00  0.00    +0.000 OA
ATOM      8  H1  UNL     1      21.938  17.120  10.529  0.00  0.00    +0.000 HD
ENDROOT
TORSDOF 0
ENDMDL
