MODEL 1
REMARK VINA RESULT:    -4.292      0.000      0.000
REMARK INTER + INTRA:          -4.633
REMARK INTER:                  -4.556
REMARK INTRA:                  -0.077
REMARK UNBOUND:                -0.090
REMARK  Name = /home/anacleto/Desktop/manuscript_Mpro/naturecomm/supplementary_file_S2/6-chemical-library/molecular_docking/3D_ligand_structure/1323.pdb
REMARK  1 active torsions:
REMARK  status: ('A' for Active; 'I' for Inactive)
REMARK    1  A    between atoms: C2_5  and  C3_6
REMARK                            x       y       z     vdW  Elec       q    Type
REMARK                         _______ _______ _______ _____ _____    ______ ____
ROOT
ATOM      1  C3  UNL     1      14.988  11.110  -4.740  0.00  0.00    +0.000 A 
ATOM      2  C4  UNL     1      13.682  10.649  -4.968  0.00  0.00    +0.000 A 
ATOM      3  C5  UNL     1      13.156  10.603  -6.262  0.00  0.00    +0.000 A 
ATOM      4  C6  UNL     1      13.928  11.019  -7.345  0.00  0.00    +0.000 A 
ATOM      5  C7  UNL     1      15.226  11.479  -7.137  0.00  0.00    +0.000 A 
ATOM      6  C8  UNL     1      15.752  11.524  -5.843  0.00  0.00    +0.000 A 
ENDROOT
BRANCH   1  11
ATOM      7  O1  UNL     1      16.726  10.473  -3.190  0.00  0.00    +0.000 OA
ATOM      8  N1  UNL     1      17.079  10.682  -1.854  0.00  0.00    +0.000 NA
ATOM      9  C1  UNL     1      16.103  11.477  -1.411  0.00  0.00    +0.000 A 
ATOM     10  N2  UNL     1      15.147  11.805  -2.329  0.00  0.00    +0.000 NA
ATOM     11  C2  UNL     1      15.567  11.171  -3.403  0.00  0.00    +0.000 A 
ENDBRANCH   1  11
TORSDOF 1
ENDMDL
MODEL 2
REMARK VINA RESULT:    -4.266      0.060      1.455
REMARK INTER + INTRA:          -4.606
REMARK INTER:                  -4.530
REMARK INTRA:                  -0.076
REMARK UNBOUND:                -0.090
REMARK  Name = /home/anacleto/Desktop/manuscript_Mpro/naturecomm/supplementary_file_S2/6-chemical-library/molecular_docking/3D_ligand_structure/1323.pdb
REMARK  1 active torsions:
REMARK  status: ('A' for Active; 'I' for Inactive)
REMARK    1  A    between atoms: C2_5  and  C3_6
REMARK                            x       y       z     vdW  Elec       q    Type
REMARK                         _______ _______ _______ _____ _____    ______ ____
ROOT
ATOM      1  C3  UNL     1      15.013  11.098  -4.770  0.00  0.00    +0.000 A 
ATOM      2  C4  UNL     1      15.774  11.468  -5.890  0.00  0.00    +0.000 A 
ATOM      3  C5  UNL     1      15.226  11.413  -7.175  0.00  0.00    +0.000 A 
ATOM      4  C6  UNL     1      13.912  10.988  -7.357  0.00  0.00    +0.000 A 
ATOM      5  C7  UNL     1      13.143  10.618  -6.256  0.00  0.00    +0.000 A 
ATOM      6  C8  UNL     1      13.690  10.673  -4.972  0.00  0.00    +0.000 A 
ENDROOT
BRANCH   1  11
ATOM      7  O1  UNL     1      16.689  10.419  -3.170  0.00  0.00    +0.000 OA
ATOM      8  N1  UNL     1      17.007  10.619  -1.823  0.00  0.00    +0.000 NA
ATOM      9  C1  UNL     1      16.037  11.436  -1.408  0.00  0.00    +0.000 A 
ATOM     10  N2  UNL     1      15.117  11.788  -2.354  0.00  0.00    +0.000 NA
ATOM     11  C2  UNL     1      15.553  11.144  -3.416  0.00  0.00    +0.000 A 
ENDBRANCH   1  11
TORSDOF 1
ENDMDL
MODEL 3
REMARK VINA RESULT:    -4.119     15.349     16.657
REMARK INTER + INTRA:          -4.450
REMARK INTER:                  -4.377
REMARK INTRA:                  -0.073
REMARK UNBOUND:                -0.090
REMARK  Name = /home/anacleto/Desktop/manuscript_Mpro/naturecomm/supplementary_file_S2/6-chemical-library/molecular_docking/3D_ligand_structure/1323.pdb
REMARK  1 active torsions:
REMARK  status: ('A' for Active; 'I' for Inactive)
REMARK    1  A    between atoms: C2_5  and  C3_6
REMARK                            x       y       z     vdW  Elec       q    Type
REMARK                         _______ _______ _______ _____ _____    ______ ____
ROOT
ATOM      1  C3  UNL     1      19.147   6.794  10.796  0.00  0.00    +0.000 A 
ATOM      2  C4  UNL     1      18.841   5.471  10.441  0.00  0.00    +0.000 A 
ATOM      3  C5  UNL     1      18.917   5.052   9.109  0.00  0.00    +0.000 A 
ATOM      4  C6  UNL     1      19.299   5.951   8.116  0.00  0.00    +0.000 A 
ATOM      5  C7  UNL     1      19.606   7.268   8.450  0.00  0.00    +0.000 A 
ATOM      6  C8  UNL     1      19.530   7.685   9.781  0.00  0.00    +0.000 A 
ENDROOT
BRANCH   1  11
ATOM      7  O1  UNL     1      17.832   7.435  12.716  0.00  0.00    +0.000 OA
ATOM      8  N1  UNL     1      18.024   7.883  14.027  0.00  0.00    +0.000 NA
ATOM      9  C1  UNL     1      19.354   7.930  14.132  0.00  0.00    +0.000 A 
ATOM     10  N2  UNL     1      20.048   7.557  13.016  0.00  0.00    +0.000 NA
ATOM     11  C2  UNL     1      19.078   7.262  12.175  0.00  0.00    +0.000 A 
ENDBRANCH   1  11
TORSDOF 1
ENDMDL
MODEL 4
REMARK VINA RESULT:    -3.949     15.091     16.240
REMARK INTER + INTRA:          -4.270
REMARK INTER:                  -4.192
REMARK INTRA:                  -0.079
REMARK UNBOUND:                -0.090
REMARK  Name = /home/anacleto/Desktop/manuscript_Mpro/naturecomm/supplementary_file_S2/6-chemical-library/molecular_docking/3D_ligand_structure/1323.pdb
REMARK  1 active torsions:
REMARK  status: ('A' for Active; 'I' for Inactive)
REMARK    1  A    between atoms: C2_5  and  C3_6
REMARK                            x       y       z     vdW  Elec       q    Type
REMARK                         _______ _______ _______ _____ _____    ______ ____
ROOT
ATOM      1  C3  UNL     1      21.581   6.012   9.188  0.00  0.00    +0.000 A 
ATOM      2  C4  UNL     1      20.627   5.188   8.572  0.00  0.00    +0.000 A 
ATOM      3  C5  UNL     1      19.391   5.703   8.171  0.00  0.00    +0.000 A 
ATOM      4  C6  UNL     1      19.093   7.047   8.382  0.00  0.00    +0.000 A 
ATOM      5  C7  UNL     1      20.028   7.879   8.993  0.00  0.00    +0.000 A 
ATOM      6  C8  UNL     1      21.264   7.364   9.393  0.00  0.00    +0.000 A 
ENDROOT
BRANCH   1  11
ATOM      7  O1  UNL     1      23.589   4.756   8.718  0.00  0.00    +0.000 OA
ATOM      8  N1  UNL     1      24.781   4.392   9.352  0.00  0.00    +0.000 NA
ATOM      9  C1  UNL     1      24.662   4.959  10.555  0.00  0.00    +0.000 A 
ATOM     10  N2  UNL     1      23.507   5.657  10.766  0.00  0.00    +0.000 NA
ATOM     11  C2  UNL     1      22.880   5.507   9.618  0.00  0.00    +0.000 A 
ENDBRANCH   1  11
TORSDOF 1
ENDMDL
MODEL 5
REMARK VINA RESULT:    -3.922     15.057     17.550
REMARK INTER + INTRA:          -4.242
REMARK INTER:                  -4.170
REMARK INTRA:                  -0.072
REMARK UNBOUND:                -0.090
REMARK  Name = /home/anacleto/Desktop/manuscript_Mpro/naturecomm/supplementary_file_S2/6-chemical-library/molecular_docking/3D_ligand_structure/1323.pdb
REMARK  1 active torsions:
REMARK  status: ('A' for Active; 'I' for Inactive)
REMARK    1  A    between atoms: C2_5  and  C3_6
REMARK                            x       y       z     vdW  Elec       q    Type
REMARK                         _______ _______ _______ _____ _____    ______ ____
ROOT
ATOM      1  C3  UNL     1      19.164   7.077  12.007  0.00  0.00    +0.000 A 
ATOM      2  C4  UNL     1      17.954   7.356  12.660  0.00  0.00    +0.000 A 
ATOM      3  C5  UNL     1      17.944   7.868  13.961  0.00  0.00    +0.000 A 
ATOM      4  C6  UNL     1      19.145   8.108  14.625  0.00  0.00    +0.000 A 
ATOM      5  C7  UNL     1      20.356   7.837  13.992  0.00  0.00    +0.000 A 
ATOM      6  C8  UNL     1      20.364   7.326  12.692  0.00  0.00    +0.000 A 
ENDROOT
BRANCH   1  11
ATOM      7  O1  UNL     1      19.021   7.428   9.622  0.00  0.00    +0.000 OA
ATOM      8  N1  UNL     1      19.106   6.689   8.439  0.00  0.00    +0.000 NA
ATOM      9  C1  UNL     1      19.335   5.450   8.879  0.00  0.00    +0.000 A 
ATOM     10  N2  UNL     1      19.407   5.309  10.236  0.00  0.00    +0.000 NA
ATOM     11  C2  UNL     1      19.209   6.543  10.651  0.00  0.00    +0.000 A 
ENDBRANCH   1  11
TORSDOF 1
ENDMDL
MODEL 6
REMARK VINA RESULT:    -3.891      2.233      4.604
REMARK INTER + INTRA:          -4.209
REMARK INTER:                  -4.136
REMARK INTRA:                  -0.073
REMARK UNBOUND:                -0.090
REMARK  Name = /home/anacleto/Desktop/manuscript_Mpro/naturecomm/supplementary_file_S2/6-chemical-library/molecular_docking/3D_ligand_structure/1323.pdb
REMARK  1 active torsions:
REMARK  status: ('A' for Active; 'I' for Inactive)
REMARK    1  A    between atoms: C2_5  and  C3_6
REMARK                            x       y       z     vdW  Elec       q    Type
REMARK                         _______ _______ _______ _____ _____    ______ ____
ROOT
ATOM      1  C3  UNL     1      15.751  11.136  -3.533  0.00  0.00    +0.000 A 
ATOM      2  C4  UNL     1      16.997  10.515  -3.714  0.00  0.00    +0.000 A 
ATOM      3  C5  UNL     1      17.941  10.495  -2.683  0.00  0.00    +0.000 A 
ATOM      4  C6  UNL     1      17.652  11.096  -1.460  0.00  0.00    +0.000 A 
ATOM      5  C7  UNL     1      16.421  11.716  -1.264  0.00  0.00    +0.000 A 
ATOM      6  C8  UNL     1      15.478  11.736  -2.294  0.00  0.00    +0.000 A 
ENDROOT
BRANCH   1  11
ATOM      7  O1  UNL     1      14.970  12.021  -5.640  0.00  0.00    +0.000 OA
ATOM      8  N1  UNL     1      13.882  11.883  -6.506  0.00  0.00    +0.000 NA
ATOM      9  C1  UNL     1      13.124  10.975  -5.887  0.00  0.00    +0.000 A 
ATOM     10  N2  UNL     1      13.614  10.508  -4.700  0.00  0.00    +0.000 NA
ATOM     11  C2  UNL     1      14.744  11.175  -4.587  0.00  0.00    +0.000 A 
ENDBRANCH   1  11
TORSDOF 1
ENDMDL
MODEL 7
REMARK VINA RESULT:    -3.820      3.736      6.672
REMARK INTER + INTRA:          -4.134
REMARK INTER:                  -4.052
REMARK INTRA:                  -0.082
REMARK UNBOUND:                -0.090
REMARK  Name = /home/anacleto/Desktop/manuscript_Mpro/naturecomm/supplementary_file_S2/6-chemical-library/molecular_docking/3D_ligand_structure/1323.pdb
REMARK  1 active torsions:
REMARK  status: ('A' for Active; 'I' for Inactive)
REMARK    1  A    between atoms: C2_5  and  C3_6
REMARK                            x       y       z     vdW  Elec       q    Type
REMARK                         _______ _______ _______ _____ _____    ______ ____
ROOT
ATOM      1  C3  UNL     1      17.741  13.975  -0.377  0.00  0.00    +0.000 A 
ATOM      2  C4  UNL     1      17.293  15.229   0.066  0.00  0.00    +0.000 A 
ATOM      3  C5  UNL     1      18.175  16.131   0.669  0.00  0.00    +0.000 A 
ATOM      4  C6  UNL     1      19.515  15.790   0.838  0.00  0.00    +0.000 A 
ATOM      5  C7  UNL     1      19.976  14.549   0.405  0.00  0.00    +0.000 A 
ATOM      6  C8  UNL     1      19.094  13.649  -0.199  0.00  0.00    +0.000 A 
ENDROOT
BRANCH   1  11
ATOM      7  O1  UNL     1      15.880  13.509  -1.842  0.00  0.00    +0.000 OA
ATOM      8  N1  UNL     1      15.161  12.409  -2.321  0.00  0.00    +0.000 NA
ATOM      9  C1  UNL     1      15.769  11.378  -1.730  0.00  0.00    +0.000 A 
ATOM     10  N2  UNL     1      16.815  11.700  -0.912  0.00  0.00    +0.000 NA
ATOM     11  C2  UNL     1      16.848  13.012  -1.010  0.00  0.00    +0.000 A 
ENDBRANCH   1  11
TORSDOF 1
ENDMDL
MODEL 8
REMARK VINA RESULT:    -3.742     14.695     15.949
REMARK INTER + INTRA:          -4.051
REMARK INTER:                  -3.978
REMARK INTRA:                  -0.074
REMARK UNBOUND:                -0.090
REMARK  Name = /home/anacleto/Desktop/manuscript_Mpro/naturecomm/supplementary_file_S2/6-chemical-library/molecular_docking/3D_ligand_structure/1323.pdb
REMARK  1 active torsions:
REMARK  status: ('A' for Active; 'I' for Inactive)
REMARK    1  A    between atoms: C2_5  and  C3_6
REMARK                            x       y       z     vdW  Elec       q    Type
REMARK                         _______ _______ _______ _____ _____    ______ ____
ROOT
ATOM      1  C3  UNL     1      21.309   4.462   8.598  0.00  0.00    +0.000 A 
ATOM      2  C4  UNL     1      20.811   3.372   9.330  0.00  0.00    +0.000 A 
ATOM      3  C5  UNL     1      21.408   2.112   9.229  0.00  0.00    +0.000 A 
ATOM      4  C6  UNL     1      22.509   1.925   8.396  0.00  0.00    +0.000 A 
ATOM      5  C7  UNL     1      23.016   2.996   7.663  0.00  0.00    +0.000 A 
ATOM      6  C8  UNL     1      22.419   4.255   7.764  0.00  0.00    +0.000 A 
ENDROOT
BRANCH   1  11
ATOM      7  O1  UNL     1      19.447   5.939   8.174  0.00  0.00    +0.000 OA
ATOM      8  N1  UNL     1      19.095   7.278   8.365  0.00  0.00    +0.000 NA
ATOM      9  C1  UNL     1      20.176   7.786   8.961  0.00  0.00    +0.000 A 
ATOM     10  N2  UNL     1      21.199   6.906   9.176  0.00  0.00    +0.000 NA
ATOM     11  C2  UNL     1      20.710   5.789   8.680  0.00  0.00    +0.000 A 
ENDBRANCH   1  11
TORSDOF 1
ENDMDL
MODEL 9
REMARK VINA RESULT:    -3.643     15.382     16.874
REMARK INTER + INTRA:          -3.946
REMARK INTER:                  -3.856
REMARK INTRA:                  -0.090
REMARK UNBOUND:                -0.090
REMARK  Name = /home/anacleto/Desktop/manuscript_Mpro/naturecomm/supplementary_file_S2/6-chemical-library/molecular_docking/3D_ligand_structure/1323.pdb
REMARK  1 active torsions:
REMARK  status: ('A' for Active; 'I' for Inactive)
REMARK    1  A    between atoms: C2_5  and  C3_6
REMARK                            x       y       z     vdW  Elec       q    Type
REMARK                         _______ _______ _______ _____ _____    ______ ____
ROOT
ATOM      1  C3  UNL     1      21.010   6.582  10.363  0.00  0.00    +0.000 A 
ATOM      2  C4  UNL     1      19.791   7.268  10.253  0.00  0.00    +0.000 A 
ATOM      3  C5  UNL     1      18.969   7.091   9.136  0.00  0.00    +0.000 A 
ATOM      4  C6  UNL     1      19.356   6.227   8.115  0.00  0.00    +0.000 A 
ATOM      5  C7  UNL     1      20.562   5.537   8.207  0.00  0.00    +0.000 A 
ATOM      6  C8  UNL     1      21.383   5.714   9.324  0.00  0.00    +0.000 A 
ENDROOT
BRANCH   1  11
ATOM      7  O1  UNL     1      23.098   6.099  11.475  0.00  0.00    +0.000 OA
ATOM      8  N1  UNL     1      23.752   6.402  12.673  0.00  0.00    +0.000 NA
ATOM      9  C1  UNL     1      22.874   7.189  13.299  0.00  0.00    +0.000 A 
ATOM     10  N2  UNL     1      21.711   7.429  12.624  0.00  0.00    +0.000 NA
ATOM     11  C2  UNL     1      21.890   6.743  11.514  0.00  0.00    +0.000 A 
ENDBRANCH   1  11
TORSDOF 1
ENDMDL
