MODEL 1
REMARK VINA RESULT:    -5.051      0.000      0.000
REMARK INTER + INTRA:          -6.601
REMARK INTER:                  -6.300
REMARK INTRA:                  -0.300
REMARK UNBOUND:                -0.369
REMARK  Name = /home/anacleto/Desktop/manuscript_Mpro/naturecomm/supplementary_file_S2/6-chemical-library/molecular_docking/3D_ligand_structure/674.pdb
REMARK  4 active torsions:
REMARK  status: ('A' for Active; 'I' for Inactive)
REMARK    1  A    between atoms: C4_5  and  N1_6
REMARK    2  A    between atoms: C5_7  and  C6_9
REMARK    3  A    between atoms: C6_9  and  N2_10
REMARK    4  A    between atoms: N2_10  and  C7_11
REMARK                            x       y       z     vdW  Elec       q    Type
REMARK                         _______ _______ _______ _____ _____    ______ ____
ROOT
ATOM      1  N1  UNL     1     -24.492   4.456 -38.162  0.00  0.00    +0.000 N 
ATOM      2  C5  UNL     1     -23.839   5.652 -38.389  0.00  0.00    +0.000 C 
ATOM      3  O2  UNL     1     -24.163   6.444 -39.269  0.00  0.00    +0.000 OA
ATOM      4  H8  UNL     1     -24.234   3.986 -37.296  0.00  0.00    +0.000 HD
ENDROOT
BRANCH   1   9
ATOM      5  C1  UNL     1     -25.534   3.329 -40.147  0.00  0.00    +0.000 C 
ATOM      6  O1  UNL     1     -26.658   2.440 -40.279  0.00  0.00    +0.000 OA
ATOM      7  C2  UNL     1     -27.476   2.579 -39.111  0.00  0.00    +0.000 C 
ATOM      8  C3  UNL     1     -26.593   3.177 -38.041  0.00  0.00    +0.000 C 
ATOM      9  C4  UNL     1     -25.719   4.113 -38.846  0.00  0.00    +0.000 C 
ENDBRANCH   1   9
BRANCH   2  10
ATOM     10  C6  UNL     1     -22.638   5.873 -37.460  0.00  0.00    +0.000 C 
BRANCH  10  11
ATOM     11  N2  UNL     1     -21.421   6.104 -38.266  0.00  0.00    +0.000 N 
ATOM     12  H11 UNL     1     -20.701   5.430 -38.002  0.00  0.00    +0.000 HD
BRANCH  11  13
ATOM     13  C7  UNL     1     -20.873   7.399 -38.250  0.00  0.00    +0.000 A 
ATOM     14  C8  UNL     1     -19.617   7.713 -38.784  0.00  0.00    +0.000 A 
ATOM     15  C9  UNL     1     -19.088   9.005 -38.676  0.00  0.00    +0.000 A 
ATOM     16  C10 UNL     1     -19.794   9.998 -38.002  0.00  0.00    +0.000 A 
ATOM     17  C11 UNL     1     -21.022   9.693 -37.423  0.00  0.00    +0.000 A 
ATOM     18  C12 UNL     1     -21.545   8.402 -37.532  0.00  0.00    +0.000 A 
ENDBRANCH  11  13
ENDBRANCH  10  11
ENDBRANCH   2  10
TORSDOF 4
ENDMDL
MODEL 2
REMARK VINA RESULT:    -4.742      1.928      7.337
REMARK INTER + INTRA:          -6.220
REMARK INTER:                  -5.971
REMARK INTRA:                  -0.249
REMARK UNBOUND:                -0.369
REMARK  Name = /home/anacleto/Desktop/manuscript_Mpro/naturecomm/supplementary_file_S2/6-chemical-library/molecular_docking/3D_ligand_structure/674.pdb
REMARK  4 active torsions:
REMARK  status: ('A' for Active; 'I' for Inactive)
REMARK    1  A    between atoms: C4_5  and  N1_6
REMARK    2  A    between atoms: C5_7  and  C6_9
REMARK    3  A    between atoms: C6_9  and  N2_10
REMARK    4  A    between atoms: N2_10  and  C7_11
REMARK                            x       y       z     vdW  Elec       q    Type
REMARK                         _______ _______ _______ _____ _____    ______ ____
ROOT
ATOM      1  N1  UNL     1     -22.127   7.498 -38.726  0.00  0.00    +0.000 N 
ATOM      2  C5  UNL     1     -22.795   6.409 -38.201  0.00  0.00    +0.000 C 
ATOM      3  O2  UNL     1     -22.258   5.561 -37.495  0.00  0.00    +0.000 OA
ATOM      4  H8  UNL     1     -22.728   8.209 -39.140  0.00  0.00    +0.000 HD
ENDROOT
BRANCH   1   9
ATOM      5  C1  UNL     1     -19.710   7.455 -39.397  0.00  0.00    +0.000 C 
ATOM      6  O1  UNL     1     -18.659   8.434 -39.302  0.00  0.00    +0.000 OA
ATOM      7  C2  UNL     1     -19.041   9.405 -38.319  0.00  0.00    +0.000 C 
ATOM      8  C3  UNL     1     -20.541   9.300 -38.177  0.00  0.00    +0.000 C 
ATOM      9  C4  UNL     1     -20.767   7.814 -38.351  0.00  0.00    +0.000 C 
ENDBRANCH   1   9
BRANCH   2  10
ATOM     10  C6  UNL     1     -24.269   6.338 -38.625  0.00  0.00    +0.000 C 
BRANCH  10  11
ATOM     11  N2  UNL     1     -24.529   5.053 -39.308  0.00  0.00    +0.000 N 
ATOM     12  H11 UNL     1     -24.598   5.206 -40.315  0.00  0.00    +0.000 HD
BRANCH  11  13
ATOM     13  C7  UNL     1     -25.639   4.306 -38.874  0.00  0.00    +0.000 A 
ATOM     14  C8  UNL     1     -25.559   2.966 -38.475  0.00  0.00    +0.000 A 
ATOM     15  C9  UNL     1     -26.708   2.248 -38.121  0.00  0.00    +0.000 A 
ATOM     16  C10 UNL     1     -27.961   2.849 -38.194  0.00  0.00    +0.000 A 
ATOM     17  C11 UNL     1     -28.066   4.165 -38.635  0.00  0.00    +0.000 A 
ATOM     18  C12 UNL     1     -26.917   4.877 -38.987  0.00  0.00    +0.000 A 
ENDBRANCH  11  13
ENDBRANCH  10  11
ENDBRANCH   2  10
TORSDOF 4
ENDMDL
MODEL 3
REMARK VINA RESULT:    -4.591      1.735      2.395
REMARK INTER + INTRA:          -6.034
REMARK INTER:                  -5.698
REMARK INTRA:                  -0.336
REMARK UNBOUND:                -0.369
REMARK  Name = /home/anacleto/Desktop/manuscript_Mpro/naturecomm/supplementary_file_S2/6-chemical-library/molecular_docking/3D_ligand_structure/674.pdb
REMARK  4 active torsions:
REMARK  status: ('A' for Active; 'I' for Inactive)
REMARK    1  A    between atoms: C4_5  and  N1_6
REMARK    2  A    between atoms: C5_7  and  C6_9
REMARK    3  A    between atoms: C6_9  and  N2_10
REMARK    4  A    between atoms: N2_10  and  C7_11
REMARK                            x       y       z     vdW  Elec       q    Type
REMARK                         _______ _______ _______ _____ _____    ______ ____
ROOT
ATOM      1  N1  UNL     1     -25.143   4.897 -39.197  0.00  0.00    +0.000 N 
ATOM      2  C5  UNL     1     -24.324   5.172 -40.274  0.00  0.00    +0.000 C 
ATOM      3  O2  UNL     1     -24.238   4.449 -41.262  0.00  0.00    +0.000 OA
ATOM      4  H8  UNL     1     -25.250   5.663 -38.534  0.00  0.00    +0.000 HD
ENDROOT
BRANCH   1   9
ATOM      5  C1  UNL     1     -25.714   2.607 -38.345  0.00  0.00    +0.000 C 
ATOM      6  O1  UNL     1     -26.937   2.034 -37.846  0.00  0.00    +0.000 OA
ATOM      7  C2  UNL     1     -28.027   2.847 -38.297  0.00  0.00    +0.000 C 
ATOM      8  C3  UNL     1     -27.438   4.193 -38.647  0.00  0.00    +0.000 C 
ATOM      9  C4  UNL     1     -26.092   3.805 -39.217  0.00  0.00    +0.000 C 
ENDBRANCH   1   9
BRANCH   2  10
ATOM     10  C6  UNL     1     -23.497   6.452 -40.096  0.00  0.00    +0.000 C 
BRANCH  10  11
ATOM     11  N2  UNL     1     -22.805   6.420 -38.790  0.00  0.00    +0.000 N 
ATOM     12  H11 UNL     1     -23.224   5.703 -38.196  0.00  0.00    +0.000 HD
BRANCH  11  13
ATOM     13  C7  UNL     1     -22.724   7.627 -38.074  0.00  0.00    +0.000 A 
ATOM     14  C8  UNL     1     -23.787   8.533 -37.963  0.00  0.00    +0.000 A 
ATOM     15  C9  UNL     1     -23.629   9.756 -37.300  0.00  0.00    +0.000 A 
ATOM     16  C10 UNL     1     -22.394  10.108 -36.763  0.00  0.00    +0.000 A 
ATOM     17  C11 UNL     1     -21.313   9.244 -36.905  0.00  0.00    +0.000 A 
ATOM     18  C12 UNL     1     -21.475   8.025 -37.569  0.00  0.00    +0.000 A 
ENDBRANCH  11  13
ENDBRANCH  10  11
ENDBRANCH   2  10
TORSDOF 4
ENDMDL
MODEL 4
REMARK VINA RESULT:    -4.428      2.488      3.587
REMARK INTER + INTRA:          -5.833
REMARK INTER:                  -5.564
REMARK INTRA:                  -0.268
REMARK UNBOUND:                -0.369
REMARK  Name = /home/anacleto/Desktop/manuscript_Mpro/naturecomm/supplementary_file_S2/6-chemical-library/molecular_docking/3D_ligand_structure/674.pdb
REMARK  4 active torsions:
REMARK  status: ('A' for Active; 'I' for Inactive)
REMARK    1  A    between atoms: C4_5  and  N1_6
REMARK    2  A    between atoms: C5_7  and  C6_9
REMARK    3  A    between atoms: C6_9  and  N2_10
REMARK    4  A    between atoms: N2_10  and  C7_11
REMARK                            x       y       z     vdW  Elec       q    Type
REMARK                         _______ _______ _______ _____ _____    ______ ____
ROOT
ATOM      1  N1  UNL     1     -27.505   4.578 -39.564  0.00  0.00    +0.000 N 
ATOM      2  C5  UNL     1     -26.484   4.080 -38.777  0.00  0.00    +0.000 C 
ATOM      3  O2  UNL     1     -26.671   3.365 -37.797  0.00  0.00    +0.000 OA
ATOM      4  H8  UNL     1     -27.201   5.003 -40.438  0.00  0.00    +0.000 HD
ENDROOT
BRANCH   1   9
ATOM      5  C1  UNL     1     -29.713   5.061 -38.476  0.00  0.00    +0.000 C 
ATOM      6  O1  UNL     1     -31.064   5.045 -38.973  0.00  0.00    +0.000 OA
ATOM      7  C2  UNL     1     -31.091   4.253 -40.167  0.00  0.00    +0.000 C 
ATOM      8  C3  UNL     1     -29.669   4.203 -40.677  0.00  0.00    +0.000 C 
ATOM      9  C4  UNL     1     -28.878   4.160 -39.388  0.00  0.00    +0.000 C 
ENDBRANCH   1   9
BRANCH   2  10
ATOM     10  C6  UNL     1     -25.092   4.548 -39.222  0.00  0.00    +0.000 C 
BRANCH  10  11
ATOM     11  N2  UNL     1     -24.276   4.884 -38.035  0.00  0.00    +0.000 N 
ATOM     12  H11 UNL     1     -24.874   4.934 -37.209  0.00  0.00    +0.000 HD
BRANCH  11  13
ATOM     13  C7  UNL     1     -23.483   6.042 -38.106  0.00  0.00    +0.000 A 
ATOM     14  C8  UNL     1     -22.099   6.045 -37.896  0.00  0.00    +0.000 A 
ATOM     15  C9  UNL     1     -21.368   7.239 -37.905  0.00  0.00    +0.000 A 
ATOM     16  C10 UNL     1     -22.016   8.456 -38.094  0.00  0.00    +0.000 A 
ATOM     17  C11 UNL     1     -23.397   8.479 -38.256  0.00  0.00    +0.000 A 
ATOM     18  C12 UNL     1     -24.123   7.285 -38.245  0.00  0.00    +0.000 A 
ENDBRANCH  11  13
ENDBRANCH  10  11
ENDBRANCH   2  10
TORSDOF 4
ENDMDL
MODEL 5
REMARK VINA RESULT:    -4.420      2.444      6.947
REMARK INTER + INTRA:          -5.822
REMARK INTER:                  -5.462
REMARK INTRA:                  -0.361
REMARK UNBOUND:                -0.369
REMARK  Name = /home/anacleto/Desktop/manuscript_Mpro/naturecomm/supplementary_file_S2/6-chemical-library/molecular_docking/3D_ligand_structure/674.pdb
REMARK  4 active torsions:
REMARK  status: ('A' for Active; 'I' for Inactive)
REMARK    1  A    between atoms: C4_5  and  N1_6
REMARK    2  A    between atoms: C5_7  and  C6_9
REMARK    3  A    between atoms: C6_9  and  N2_10
REMARK    4  A    between atoms: N2_10  and  C7_11
REMARK                            x       y       z     vdW  Elec       q    Type
REMARK                         _______ _______ _______ _____ _____    ______ ____
ROOT
ATOM      1  N1  UNL     1     -23.882   7.186 -38.914  0.00  0.00    +0.000 N 
ATOM      2  C5  UNL     1     -25.100   7.777 -38.636  0.00  0.00    +0.000 C 
ATOM      3  O2  UNL     1     -25.247   8.670 -37.808  0.00  0.00    +0.000 OA
ATOM      4  H8  UNL     1     -23.874   6.591 -39.740  0.00  0.00    +0.000 HD
ENDROOT
BRANCH   1   9
ATOM      5  C1  UNL     1     -21.566   6.631 -38.127  0.00  0.00    +0.000 C 
ATOM      6  O1  UNL     1     -20.290   7.260 -38.344  0.00  0.00    +0.000 OA
ATOM      7  C2  UNL     1     -20.525   8.611 -38.763  0.00  0.00    +0.000 C 
ATOM      8  C3  UNL     1     -21.941   8.654 -39.287  0.00  0.00    +0.000 C 
ATOM      9  C4  UNL     1     -22.646   7.689 -38.359  0.00  0.00    +0.000 C 
ENDBRANCH   1   9
BRANCH   2  10
ATOM     10  C6  UNL     1     -26.263   7.173 -39.436  0.00  0.00    +0.000 C 
BRANCH  10  11
ATOM     11  N2  UNL     1     -25.845   5.885 -40.028  0.00  0.00    +0.000 N 
ATOM     12  H11 UNL     1     -26.088   5.867 -41.020  0.00  0.00    +0.000 HD
BRANCH  11  13
ATOM     13  C7  UNL     1     -26.314   4.711 -39.413  0.00  0.00    +0.000 A 
ATOM     14  C8  UNL     1     -27.651   4.511 -39.049  0.00  0.00    +0.000 A 
ATOM     15  C9  UNL     1     -28.050   3.352 -38.372  0.00  0.00    +0.000 A 
ATOM     16  C10 UNL     1     -27.111   2.388 -38.019  0.00  0.00    +0.000 A 
ATOM     17  C11 UNL     1     -25.770   2.591 -38.328  0.00  0.00    +0.000 A 
ATOM     18  C12 UNL     1     -25.376   3.749 -39.003  0.00  0.00    +0.000 A 
ENDBRANCH  11  13
ENDBRANCH  10  11
ENDBRANCH   2  10
TORSDOF 4
ENDMDL
MODEL 6
REMARK VINA RESULT:    -4.419      2.168      2.849
REMARK INTER + INTRA:          -5.821
REMARK INTER:                  -5.445
REMARK INTRA:                  -0.376
REMARK UNBOUND:                -0.369
REMARK  Name = /home/anacleto/Desktop/manuscript_Mpro/naturecomm/supplementary_file_S2/6-chemical-library/molecular_docking/3D_ligand_structure/674.pdb
REMARK  4 active torsions:
REMARK  status: ('A' for Active; 'I' for Inactive)
REMARK    1  A    between atoms: C4_5  and  N1_6
REMARK    2  A    between atoms: C5_7  and  C6_9
REMARK    3  A    between atoms: C6_9  and  N2_10
REMARK    4  A    between atoms: N2_10  and  C7_11
REMARK                            x       y       z     vdW  Elec       q    Type
REMARK                         _______ _______ _______ _____ _____    ______ ____
ROOT
ATOM      1  N1  UNL     1     -26.559   5.612 -39.413  0.00  0.00    +0.000 N 
ATOM      2  C5  UNL     1     -26.885   6.926 -39.134  0.00  0.00    +0.000 C 
ATOM      3  O2  UNL     1     -27.980   7.276 -38.708  0.00  0.00    +0.000 OA
ATOM      4  H8  UNL     1     -25.570   5.445 -39.588  0.00  0.00    +0.000 HD
ENDROOT
BRANCH   1   9
ATOM      5  C1  UNL     1     -27.766   3.567 -40.223  0.00  0.00    +0.000 C 
ATOM      6  O1  UNL     1     -27.926   2.250 -39.665  0.00  0.00    +0.000 OA
ATOM      7  C2  UNL     1     -27.648   2.324 -38.261  0.00  0.00    +0.000 C 
ATOM      8  C3  UNL     1     -26.830   3.577 -38.054  0.00  0.00    +0.000 C 
ATOM      9  C4  UNL     1     -27.439   4.518 -39.070  0.00  0.00    +0.000 C 
ENDBRANCH   1   9
BRANCH   2  10
ATOM     10  C6  UNL     1     -25.753   7.912 -39.454  0.00  0.00    +0.000 C 
BRANCH  10  11
ATOM     11  N2  UNL     1     -25.031   8.261 -38.212  0.00  0.00    +0.000 N 
ATOM     12  H11 UNL     1     -25.139   9.258 -38.020  0.00  0.00    +0.000 HD
BRANCH  11  13
ATOM     13  C7  UNL     1     -23.669   7.919 -38.141  0.00  0.00    +0.000 A 
ATOM     14  C8  UNL     1     -23.186   6.623 -38.362  0.00  0.00    +0.000 A 
ATOM     15  C9  UNL     1     -21.828   6.321 -38.206  0.00  0.00    +0.000 A 
ATOM     16  C10 UNL     1     -20.934   7.304 -37.792  0.00  0.00    +0.000 A 
ATOM     17  C11 UNL     1     -21.403   8.586 -37.520  0.00  0.00    +0.000 A 
ATOM     18  C12 UNL     1     -22.759   8.882 -37.677  0.00  0.00    +0.000 A 
ENDBRANCH  11  13
ENDBRANCH  10  11
ENDBRANCH   2  10
TORSDOF 4
ENDMDL
MODEL 7
REMARK VINA RESULT:    -4.322     16.002     18.273
REMARK INTER + INTRA:          -5.701
REMARK INTER:                  -5.418
REMARK INTRA:                  -0.283
REMARK UNBOUND:                -0.369
REMARK  Name = /home/anacleto/Desktop/manuscript_Mpro/naturecomm/supplementary_file_S2/6-chemical-library/molecular_docking/3D_ligand_structure/674.pdb
REMARK  4 active torsions:
REMARK  status: ('A' for Active; 'I' for Inactive)
REMARK    1  A    between atoms: C4_5  and  N1_6
REMARK    2  A    between atoms: C5_7  and  C6_9
REMARK    3  A    between atoms: C6_9  and  N2_10
REMARK    4  A    between atoms: N2_10  and  C7_11
REMARK                            x       y       z     vdW  Elec       q    Type
REMARK                         _______ _______ _______ _____ _____    ______ ____
ROOT
ATOM      1  N1  UNL     1     -37.597  -2.548 -34.048  0.00  0.00    +0.000 N 
ATOM      2  C5  UNL     1     -38.751  -2.828 -33.342  0.00  0.00    +0.000 C 
ATOM      3  O2  UNL     1     -39.880  -2.658 -33.793  0.00  0.00    +0.000 OA
ATOM      4  H8  UNL     1     -36.741  -2.901 -33.624  0.00  0.00    +0.000 HD
ENDROOT
BRANCH   1   9
ATOM      5  C1  UNL     1     -38.070  -0.740 -35.723  0.00  0.00    +0.000 C 
ATOM      6  O1  UNL     1     -37.357  -0.286 -36.887  0.00  0.00    +0.000 OA
ATOM      7  C2  UNL     1     -36.457  -1.325 -37.293  0.00  0.00    +0.000 C 
ATOM      8  C3  UNL     1     -36.257  -2.211 -36.086  0.00  0.00    +0.000 C 
ATOM      9  C4  UNL     1     -37.627  -2.178 -35.446  0.00  0.00    +0.000 C 
ENDBRANCH   1   9
BRANCH   2  10
ATOM     10  C6  UNL     1     -38.484  -3.332 -31.917  0.00  0.00    +0.000 C 
BRANCH  10  11
ATOM     11  N2  UNL     1     -39.368  -2.628 -30.965  0.00  0.00    +0.000 N 
ATOM     12  H11 UNL     1     -40.228  -2.346 -31.438  0.00  0.00    +0.000 HD
BRANCH  11  13
ATOM     13  C7  UNL     1     -38.829  -1.524 -30.282  0.00  0.00    +0.000 A 
ATOM     14  C8  UNL     1     -39.409  -0.249 -30.295  0.00  0.00    +0.000 A 
ATOM     15  C9  UNL     1     -38.790   0.833 -29.657  0.00  0.00    +0.000 A 
ATOM     16  C10 UNL     1     -37.563   0.665 -29.022  0.00  0.00    +0.000 A 
ATOM     17  C11 UNL     1     -36.947  -0.582 -29.040  0.00  0.00    +0.000 A 
ATOM     18  C12 UNL     1     -37.567  -1.659 -29.679  0.00  0.00    +0.000 A 
ENDBRANCH  11  13
ENDBRANCH  10  11
ENDBRANCH   2  10
TORSDOF 4
ENDMDL
MODEL 8
REMARK VINA RESULT:    -4.236     14.943     16.189
REMARK INTER + INTRA:          -5.595
REMARK INTER:                  -5.226
REMARK INTRA:                  -0.369
REMARK UNBOUND:                -0.369
REMARK  Name = /home/anacleto/Desktop/manuscript_Mpro/naturecomm/supplementary_file_S2/6-chemical-library/molecular_docking/3D_ligand_structure/674.pdb
REMARK  4 active torsions:
REMARK  status: ('A' for Active; 'I' for Inactive)
REMARK    1  A    between atoms: C4_5  and  N1_6
REMARK    2  A    between atoms: C5_7  and  C6_9
REMARK    3  A    between atoms: C6_9  and  N2_10
REMARK    4  A    between atoms: N2_10  and  C7_11
REMARK                            x       y       z     vdW  Elec       q    Type
REMARK                         _______ _______ _______ _____ _____    ______ ____
ROOT
ATOM      1  N1  UNL     1     -23.196  -4.032 -27.464  0.00  0.00    +0.000 N 
ATOM      2  C5  UNL     1     -22.131  -4.643 -28.097  0.00  0.00    +0.000 C 
ATOM      3  O2  UNL     1     -22.128  -5.824 -28.433  0.00  0.00    +0.000 OA
ATOM      4  H8  UNL     1     -23.133  -3.018 -27.406  0.00  0.00    +0.000 HD
ENDROOT
BRANCH   1   9
ATOM      5  C1  UNL     1     -24.829  -5.024 -25.838  0.00  0.00    +0.000 C 
ATOM      6  O1  UNL     1     -26.260  -4.928 -25.719  0.00  0.00    +0.000 OA
ATOM      7  C2  UNL     1     -26.784  -4.498 -26.982  0.00  0.00    +0.000 C 
ATOM      8  C3  UNL     1     -25.638  -3.848 -27.720  0.00  0.00    +0.000 C 
ATOM      9  C4  UNL     1     -24.466  -4.701 -27.289  0.00  0.00    +0.000 C 
ENDBRANCH   1   9
BRANCH   2  10
ATOM     10  C6  UNL     1     -20.929  -3.710 -28.300  0.00  0.00    +0.000 C 
BRANCH  10  11
ATOM     11  N2  UNL     1     -19.712  -4.512 -28.546  0.00  0.00    +0.000 N 
ATOM     12  H11 UNL     1     -19.963  -5.385 -29.012  0.00  0.00    +0.000 HD
BRANCH  11  13
ATOM     13  C7  UNL     1     -18.892  -4.795 -27.439  0.00  0.00    +0.000 A 
ATOM     14  C8  UNL     1     -18.552  -6.094 -27.042  0.00  0.00    +0.000 A 
ATOM     15  C9  UNL     1     -17.792  -6.321 -25.887  0.00  0.00    +0.000 A 
ATOM     16  C10 UNL     1     -17.388  -5.253 -25.092  0.00  0.00    +0.000 A 
ATOM     17  C11 UNL     1     -17.758  -3.959 -25.443  0.00  0.00    +0.000 A 
ATOM     18  C12 UNL     1     -18.517  -3.736 -26.595  0.00  0.00    +0.000 A 
ENDBRANCH  11  13
ENDBRANCH  10  11
ENDBRANCH   2  10
TORSDOF 4
ENDMDL
MODEL 9
REMARK VINA RESULT:    -4.217     14.773     16.505
REMARK INTER + INTRA:          -5.572
REMARK INTER:                  -5.380
REMARK INTRA:                  -0.192
REMARK UNBOUND:                -0.369
REMARK  Name = /home/anacleto/Desktop/manuscript_Mpro/naturecomm/supplementary_file_S2/6-chemical-library/molecular_docking/3D_ligand_structure/674.pdb
REMARK  4 active torsions:
REMARK  status: ('A' for Active; 'I' for Inactive)
REMARK    1  A    between atoms: C4_5  and  N1_6
REMARK    2  A    between atoms: C5_7  and  C6_9
REMARK    3  A    between atoms: C6_9  and  N2_10
REMARK    4  A    between atoms: N2_10  and  C7_11
REMARK                            x       y       z     vdW  Elec       q    Type
REMARK                         _______ _______ _______ _____ _____    ______ ____
ROOT
ATOM      1  N1  UNL     1     -24.882  -3.594 -25.763  0.00  0.00    +0.000 N 
ATOM      2  C5  UNL     1     -25.751  -4.442 -26.423  0.00  0.00    +0.000 C 
ATOM      3  O2  UNL     1     -26.000  -5.583 -26.047  0.00  0.00    +0.000 OA
ATOM      4  H8  UNL     1     -24.907  -2.626 -26.080  0.00  0.00    +0.000 HD
ENDROOT
BRANCH   1   9
ATOM      5  C1  UNL     1     -22.995  -4.703 -24.537  0.00  0.00    +0.000 C 
ATOM      6  O1  UNL     1     -22.208  -4.304 -23.400  0.00  0.00    +0.000 OA
ATOM      7  C2  UNL     1     -22.931  -3.288 -22.693  0.00  0.00    +0.000 C 
ATOM      8  C3  UNL     1     -23.924  -2.711 -23.673  0.00  0.00    +0.000 C 
ATOM      9  C4  UNL     1     -24.315  -3.932 -24.477  0.00  0.00    +0.000 C 
ENDBRANCH   1   9
BRANCH   2  10
ATOM     10  C6  UNL     1     -26.342  -3.830 -27.701  0.00  0.00    +0.000 C 
BRANCH  10  11
ATOM     11  N2  UNL     1     -25.256  -3.265 -28.530  0.00  0.00    +0.000 N 
ATOM     12  H11 UNL     1     -25.649  -2.858 -29.380  0.00  0.00    +0.000 HD
BRANCH  11  13
ATOM     13  C7  UNL     1     -24.195  -4.121 -28.872  0.00  0.00    +0.000 A 
ATOM     14  C8  UNL     1     -22.852  -3.833 -28.599  0.00  0.00    +0.000 A 
ATOM     15  C9  UNL     1     -21.827  -4.686 -29.027  0.00  0.00    +0.000 A 
ATOM     16  C10 UNL     1     -22.128  -5.826 -29.766  0.00  0.00    +0.000 A 
ATOM     17  C11 UNL     1     -23.452  -6.104 -30.090  0.00  0.00    +0.000 A 
ATOM     18  C12 UNL     1     -24.471  -5.249 -29.661  0.00  0.00    +0.000 A 
ENDBRANCH  11  13
ENDBRANCH  10  11
ENDBRANCH   2  10
TORSDOF 4
ENDMDL
