MODEL 1
REMARK VINA RESULT:    -4.087      0.000      0.000
REMARK INTER + INTRA:          -4.584
REMARK INTER:                  -4.462
REMARK INTRA:                  -0.122
REMARK UNBOUND:                -0.020
REMARK  Name = /home/anacleto/Desktop/manuscript_Mpro/naturecomm/supplementary_file_S2/6-chemical-library/molecular_docking/3D_ligand_structure/1283.pdb
REMARK  2 active torsions:
REMARK  status: ('A' for Active; 'I' for Inactive)
REMARK    1  A    between atoms: C2_5  and  C3_6
REMARK    2  A    between atoms: C3_6  and  C4_7
REMARK                            x       y       z     vdW  Elec       q    Type
REMARK                         _______ _______ _______ _____ _____    ______ ____
ROOT
ATOM      1  C3  UNL     1     -24.915   4.935 -39.736  0.00  0.00    +0.000 C 
ENDROOT
BRANCH   1   6
ATOM      2  O1  UNL     1     -22.901   6.281 -39.890  0.00  0.00    +0.000 OA
ATOM      3  N1  UNL     1     -21.866   6.736 -39.068  0.00  0.00    +0.000 NA
ATOM      4  C1  UNL     1     -22.177   6.215 -37.878  0.00  0.00    +0.000 A 
ATOM      5  N2  UNL     1     -23.317   5.462 -37.845  0.00  0.00    +0.000 NA
ATOM      6  C2  UNL     1     -23.722   5.535 -39.094  0.00  0.00    +0.000 A 
ENDBRANCH   1   6
BRANCH   1   7
ATOM      7  C4  UNL     1     -25.828   4.249 -38.721  0.00  0.00    +0.000 C 
ATOM      8  C5  UNL     1     -27.304   4.347 -39.101  0.00  0.00    +0.000 C 
ATOM      9  C6  UNL     1     -27.977   3.283 -38.241  0.00  0.00    +0.000 C 
ATOM     10  C7  UNL     1     -26.907   2.226 -37.965  0.00  0.00    +0.000 C 
ATOM     11  C8  UNL     1     -25.625   2.737 -38.618  0.00  0.00    +0.000 C 
ENDBRANCH   1   7
TORSDOF 2
ENDMDL
MODEL 2
REMARK VINA RESULT:    -3.890      2.728      6.084
REMARK INTER + INTRA:          -4.365
REMARK INTER:                  -4.239
REMARK INTRA:                  -0.126
REMARK UNBOUND:                -0.020
REMARK  Name = /home/anacleto/Desktop/manuscript_Mpro/naturecomm/supplementary_file_S2/6-chemical-library/molecular_docking/3D_ligand_structure/1283.pdb
REMARK  2 active torsions:
REMARK  status: ('A' for Active; 'I' for Inactive)
REMARK    1  A    between atoms: C2_5  and  C3_6
REMARK    2  A    between atoms: C3_6  and  C4_7
REMARK                            x       y       z     vdW  Elec       q    Type
REMARK                         _______ _______ _______ _____ _____    ______ ____
ROOT
ATOM      1  C3  UNL     1     -21.847   6.328 -37.934  0.00  0.00    +0.000 C 
ENDROOT
BRANCH   1   6
ATOM      2  O1  UNL     1     -23.889   5.022 -38.058  0.00  0.00    +0.000 OA
ATOM      3  N1  UNL     1     -25.109   5.026 -38.740  0.00  0.00    +0.000 NA
ATOM      4  C1  UNL     1     -25.008   6.101 -39.526  0.00  0.00    +0.000 A 
ATOM      5  N2  UNL     1     -23.839   6.799 -39.422  0.00  0.00    +0.000 NA
ATOM      6  C2  UNL     1     -23.191   6.103 -38.514  0.00  0.00    +0.000 A 
ENDBRANCH   1   6
BRANCH   1   7
ATOM      7  C4  UNL     1     -21.236   7.650 -38.398  0.00  0.00    +0.000 C 
ATOM      8  C5  UNL     1     -21.208   8.702 -37.292  0.00  0.00    +0.000 C 
ATOM      9  C6  UNL     1     -20.218   9.744 -37.800  0.00  0.00    +0.000 C 
ATOM     10  C7  UNL     1     -19.260   8.997 -38.729  0.00  0.00    +0.000 C 
ATOM     11  C8  UNL     1     -19.759   7.555 -38.785  0.00  0.00    +0.000 C 
ENDBRANCH   1   7
TORSDOF 2
ENDMDL
MODEL 3
REMARK VINA RESULT:    -3.829     14.584     15.783
REMARK INTER + INTRA:          -4.297
REMARK INTER:                  -4.166
REMARK INTRA:                  -0.131
REMARK UNBOUND:                -0.020
REMARK  Name = /home/anacleto/Desktop/manuscript_Mpro/naturecomm/supplementary_file_S2/6-chemical-library/molecular_docking/3D_ligand_structure/1283.pdb
REMARK  2 active torsions:
REMARK  status: ('A' for Active; 'I' for Inactive)
REMARK    1  A    between atoms: C2_5  and  C3_6
REMARK    2  A    between atoms: C3_6  and  C4_7
REMARK                            x       y       z     vdW  Elec       q    Type
REMARK                         _______ _______ _______ _____ _____    ______ ____
ROOT
ATOM      1  C3  UNL     1     -24.276  -4.056 -26.591  0.00  0.00    +0.000 C 
ENDROOT
BRANCH   1   6
ATOM      2  O1  UNL     1     -22.820  -4.649 -24.742  0.00  0.00    +0.000 OA
ATOM      3  N1  UNL     1     -22.551  -4.241 -23.432  0.00  0.00    +0.000 NA
ATOM      4  C1  UNL     1     -23.405  -3.230 -23.253  0.00  0.00    +0.000 A 
ATOM      5  N2  UNL     1     -24.205  -2.938 -24.321  0.00  0.00    +0.000 NA
ATOM      6  C2  UNL     1     -23.809  -3.829 -25.203  0.00  0.00    +0.000 A 
ENDBRANCH   1   6
BRANCH   1   7
ATOM      7  C4  UNL     1     -25.780  -3.826 -26.734  0.00  0.00    +0.000 C 
ATOM      8  C5  UNL     1     -26.214  -3.681 -28.191  0.00  0.00    +0.000 C 
ATOM      9  C6  UNL     1     -27.724  -3.887 -28.147  0.00  0.00    +0.000 C 
ATOM     10  C7  UNL     1     -27.993  -4.770 -26.928  0.00  0.00    +0.000 C 
ATOM     11  C8  UNL     1     -26.640  -4.999 -26.261  0.00  0.00    +0.000 C 
ENDBRANCH   1   7
TORSDOF 2
ENDMDL
MODEL 4
REMARK VINA RESULT:    -3.813     27.322     28.239
REMARK INTER + INTRA:          -4.279
REMARK INTER:                  -4.164
REMARK INTRA:                  -0.114
REMARK UNBOUND:                -0.020
REMARK  Name = /home/anacleto/Desktop/manuscript_Mpro/naturecomm/supplementary_file_S2/6-chemical-library/molecular_docking/3D_ligand_structure/1283.pdb
REMARK  2 active torsions:
REMARK  status: ('A' for Active; 'I' for Inactive)
REMARK    1  A    between atoms: C2_5  and  C3_6
REMARK    2  A    between atoms: C3_6  and  C4_7
REMARK                            x       y       z     vdW  Elec       q    Type
REMARK                         _______ _______ _______ _____ _____    ______ ____
ROOT
ATOM      1  C3  UNL     1     -37.373   7.178 -14.196  0.00  0.00    +0.000 C 
ENDROOT
BRANCH   1   6
ATOM      2  O1  UNL     1     -38.420   5.267 -13.127  0.00  0.00    +0.000 OA
ATOM      3  N1  UNL     1     -38.513   3.882 -13.289  0.00  0.00    +0.000 NA
ATOM      4  C1  UNL     1     -37.768   3.658 -14.375  0.00  0.00    +0.000 A 
ATOM      5  N2  UNL     1     -37.198   4.764 -14.937  0.00  0.00    +0.000 NA
ATOM      6  C2  UNL     1     -37.626   5.719 -14.142  0.00  0.00    +0.000 A 
ENDBRANCH   1   6
BRANCH   1   7
ATOM      7  C4  UNL     1     -38.516   7.932 -14.876  0.00  0.00    +0.000 C 
ATOM      8  C5  UNL     1     -39.479   8.564 -13.872  0.00  0.00    +0.000 C 
ATOM      9  C6  UNL     1     -40.256   9.581 -14.699  0.00  0.00    +0.000 C 
ATOM     10  C7  UNL     1     -39.331   9.986 -15.847  0.00  0.00    +0.000 C 
ATOM     11  C8  UNL     1     -38.067   9.145 -15.692  0.00  0.00    +0.000 C 
ENDBRANCH   1   7
TORSDOF 2
ENDMDL
MODEL 5
REMARK VINA RESULT:    -3.808     14.313     15.549
REMARK INTER + INTRA:          -4.273
REMARK INTER:                  -4.168
REMARK INTRA:                  -0.104
REMARK UNBOUND:                -0.020
REMARK  Name = /home/anacleto/Desktop/manuscript_Mpro/naturecomm/supplementary_file_S2/6-chemical-library/molecular_docking/3D_ligand_structure/1283.pdb
REMARK  2 active torsions:
REMARK  status: ('A' for Active; 'I' for Inactive)
REMARK    1  A    between atoms: C2_5  and  C3_6
REMARK    2  A    between atoms: C3_6  and  C4_7
REMARK                            x       y       z     vdW  Elec       q    Type
REMARK                         _______ _______ _______ _____ _____    ______ ____
ROOT
ATOM      1  C3  UNL     1     -36.418  10.829 -32.338  0.00  0.00    +0.000 C 
ENDROOT
BRANCH   1   6
ATOM      2  O1  UNL     1     -37.514  12.819 -31.482  0.00  0.00    +0.000 OA
ATOM      3  N1  UNL     1     -38.194  13.244 -30.338  0.00  0.00    +0.000 NA
ATOM      4  C1  UNL     1     -38.169  12.161 -29.555  0.00  0.00    +0.000 A 
ATOM      5  N2  UNL     1     -37.537  11.070 -30.080  0.00  0.00    +0.000 NA
ATOM      6  C2  UNL     1     -37.157  11.520 -31.256  0.00  0.00    +0.000 A 
ENDBRANCH   1   6
BRANCH   1   7
ATOM      7  C4  UNL     1     -35.241  11.661 -32.849  0.00  0.00    +0.000 C 
ATOM      8  C5  UNL     1     -33.987  10.820 -33.080  0.00  0.00    +0.000 C 
ATOM      9  C6  UNL     1     -33.108  11.705 -33.956  0.00  0.00    +0.000 C 
ATOM     10  C7  UNL     1     -34.063  12.617 -34.726  0.00  0.00    +0.000 C 
ATOM     11  C8  UNL     1     -35.466  12.282 -34.228  0.00  0.00    +0.000 C 
ENDBRANCH   1   7
TORSDOF 2
ENDMDL
MODEL 6
REMARK VINA RESULT:    -3.789      4.004      5.154
REMARK INTER + INTRA:          -4.252
REMARK INTER:                  -4.206
REMARK INTRA:                  -0.046
REMARK UNBOUND:                -0.020
REMARK  Name = /home/anacleto/Desktop/manuscript_Mpro/naturecomm/supplementary_file_S2/6-chemical-library/molecular_docking/3D_ligand_structure/1283.pdb
REMARK  2 active torsions:
REMARK  status: ('A' for Active; 'I' for Inactive)
REMARK    1  A    between atoms: C2_5  and  C3_6
REMARK    2  A    between atoms: C3_6  and  C4_7
REMARK                            x       y       z     vdW  Elec       q    Type
REMARK                         _______ _______ _______ _____ _____    ______ ____
ROOT
ATOM      1  C3  UNL     1     -28.494   4.008 -40.380  0.00  0.00    +0.000 C 
ENDROOT
BRANCH   1   6
ATOM      2  O1  UNL     1     -30.444   4.651 -39.087  0.00  0.00    +0.000 OA
ATOM      3  N1  UNL     1     -30.822   5.617 -38.150  0.00  0.00    +0.000 NA
ATOM      4  C1  UNL     1     -29.711   6.344 -38.004  0.00  0.00    +0.000 A 
ATOM      5  N2  UNL     1     -28.643   5.944 -38.756  0.00  0.00    +0.000 NA
ATOM      6  C2  UNL     1     -29.139   4.909 -39.397  0.00  0.00    +0.000 A 
ENDBRANCH   1   6
BRANCH   1   7
ATOM      7  C4  UNL     1     -27.523   3.034 -39.713  0.00  0.00    +0.000 C 
ATOM      8  C5  UNL     1     -26.130   3.633 -39.525  0.00  0.00    +0.000 C 
ATOM      9  C6  UNL     1     -25.470   2.715 -38.504  0.00  0.00    +0.000 C 
ATOM     10  C7  UNL     1     -26.608   2.118 -37.676  0.00  0.00    +0.000 C 
ATOM     11  C8  UNL     1     -27.902   2.656 -38.281  0.00  0.00    +0.000 C 
ENDBRANCH   1   7
TORSDOF 2
ENDMDL
MODEL 7
REMARK VINA RESULT:    -3.777      2.590      4.897
REMARK INTER + INTRA:          -4.238
REMARK INTER:                  -4.133
REMARK INTRA:                  -0.105
REMARK UNBOUND:                -0.020
REMARK  Name = /home/anacleto/Desktop/manuscript_Mpro/naturecomm/supplementary_file_S2/6-chemical-library/molecular_docking/3D_ligand_structure/1283.pdb
REMARK  2 active torsions:
REMARK  status: ('A' for Active; 'I' for Inactive)
REMARK    1  A    between atoms: C2_5  and  C3_6
REMARK    2  A    between atoms: C3_6  and  C4_7
REMARK                            x       y       z     vdW  Elec       q    Type
REMARK                         _______ _______ _______ _____ _____    ______ ____
ROOT
ATOM      1  C3  UNL     1     -25.555   5.531 -39.172  0.00  0.00    +0.000 C 
ENDROOT
BRANCH   1   6
ATOM      2  O1  UNL     1     -27.526   4.271 -38.526  0.00  0.00    +0.000 OA
ATOM      3  N1  UNL     1     -27.874   2.975 -38.135  0.00  0.00    +0.000 NA
ATOM      4  C1  UNL     1     -26.703   2.333 -38.154  0.00  0.00    +0.000 A 
ATOM      5  N2  UNL     1     -25.624   3.086 -38.520  0.00  0.00    +0.000 NA
ATOM      6  C2  UNL     1     -26.177   4.258 -38.738  0.00  0.00    +0.000 A 
ENDBRANCH   1   6
BRANCH   1   7
ATOM      7  C4  UNL     1     -24.029   5.467 -39.125  0.00  0.00    +0.000 C 
ATOM      8  C5  UNL     1     -23.371   6.524 -40.009  0.00  0.00    +0.000 C 
ATOM      9  C6  UNL     1     -21.932   6.578 -39.511  0.00  0.00    +0.000 C 
ATOM     10  C7  UNL     1     -21.977   6.141 -38.046  0.00  0.00    +0.000 C 
ATOM     11  C8  UNL     1     -23.432   5.785 -37.753  0.00  0.00    +0.000 C 
ENDBRANCH   1   7
TORSDOF 2
ENDMDL
MODEL 8
REMARK VINA RESULT:    -3.744      3.863      5.301
REMARK INTER + INTRA:          -4.201
REMARK INTER:                  -4.086
REMARK INTRA:                  -0.115
REMARK UNBOUND:                -0.020
REMARK  Name = /home/anacleto/Desktop/manuscript_Mpro/naturecomm/supplementary_file_S2/6-chemical-library/molecular_docking/3D_ligand_structure/1283.pdb
REMARK  2 active torsions:
REMARK  status: ('A' for Active; 'I' for Inactive)
REMARK    1  A    between atoms: C2_5  and  C3_6
REMARK    2  A    between atoms: C3_6  and  C4_7
REMARK                            x       y       z     vdW  Elec       q    Type
REMARK                         _______ _______ _______ _____ _____    ______ ____
ROOT
ATOM      1  C3  UNL     1     -21.161   8.306 -37.181  0.00  0.00    +0.000 C 
ENDROOT
BRANCH   1   6
ATOM      2  O1  UNL     1     -19.132   8.502 -38.499  0.00  0.00    +0.000 OA
ATOM      3  N1  UNL     1     -18.354   9.493 -39.103  0.00  0.00    +0.000 NA
ATOM      4  C1  UNL     1     -19.010  10.616 -38.799  0.00  0.00    +0.000 A 
ATOM      5  N2  UNL     1     -20.143  10.453 -38.054  0.00  0.00    +0.000 NA
ATOM      6  C2  UNL     1     -20.175   9.148 -37.898  0.00  0.00    +0.000 A 
ENDBRANCH   1   6
BRANCH   1   7
ATOM      7  C4  UNL     1     -22.119   7.603 -38.142  0.00  0.00    +0.000 C 
ATOM      8  C5  UNL     1     -22.255   6.111 -37.846  0.00  0.00    +0.000 C 
ATOM      9  C6  UNL     1     -23.518   5.701 -38.594  0.00  0.00    +0.000 C 
ATOM     10  C7  UNL     1     -24.382   6.959 -38.683  0.00  0.00    +0.000 C 
ATOM     11  C8  UNL     1     -23.569   8.080 -38.041  0.00  0.00    +0.000 C 
ENDBRANCH   1   7
TORSDOF 2
ENDMDL
MODEL 9
REMARK VINA RESULT:    -3.711      5.179      6.397
REMARK INTER + INTRA:          -4.165
REMARK INTER:                  -4.145
REMARK INTRA:                  -0.020
REMARK UNBOUND:                -0.020
REMARK  Name = /home/anacleto/Desktop/manuscript_Mpro/naturecomm/supplementary_file_S2/6-chemical-library/molecular_docking/3D_ligand_structure/1283.pdb
REMARK  2 active torsions:
REMARK  status: ('A' for Active; 'I' for Inactive)
REMARK    1  A    between atoms: C2_5  and  C3_6
REMARK    2  A    between atoms: C3_6  and  C4_7
REMARK                            x       y       z     vdW  Elec       q    Type
REMARK                         _______ _______ _______ _____ _____    ______ ____
ROOT
ATOM      1  C3  UNL     1     -21.864   9.782 -36.694  0.00  0.00    +0.000 C 
ENDROOT
BRANCH   1   6
ATOM      2  O1  UNL     1     -24.207   9.974 -37.299  0.00  0.00    +0.000 OA
ATOM      3  N1  UNL     1     -24.996  10.506 -38.322  0.00  0.00    +0.000 NA
ATOM      4  C1  UNL     1     -24.093  11.032 -39.154  0.00  0.00    +0.000 A 
ATOM      5  N2  UNL     1     -22.789  10.895 -38.771  0.00  0.00    +0.000 NA
ATOM      6  C2  UNL     1     -22.911  10.245 -37.635  0.00  0.00    +0.000 A 
ENDBRANCH   1   6
BRANCH   1   7
ATOM      7  C4  UNL     1     -21.204   8.486 -37.165  0.00  0.00    +0.000 C 
ATOM      8  C5  UNL     1     -22.175   7.572 -37.909  0.00  0.00    +0.000 C 
ATOM      9  C6  UNL     1     -21.268   6.588 -38.639  0.00  0.00    +0.000 C 
ATOM     10  C7  UNL     1     -19.945   7.322 -38.865  0.00  0.00    +0.000 C 
ATOM     11  C8  UNL     1     -20.099   8.689 -38.203  0.00  0.00    +0.000 C 
ENDBRANCH   1   7
TORSDOF 2
ENDMDL
