MODEL 1
REMARK VINA RESULT:    -4.012      0.000      0.000
REMARK INTER + INTRA:          -4.652
REMARK INTER:                  -4.464
REMARK INTRA:                  -0.188
REMARK UNBOUND:                -0.171
REMARK  Name = /home/anacleto/Desktop/manuscript_Mpro/naturecomm/supplementary_file_S2/6-chemical-library/molecular_docking/3D_ligand_structure/1163.pdb
REMARK  2 active torsions:
REMARK  status: ('A' for Active; 'I' for Inactive)
REMARK    1  A    between atoms: C3_5  and  C4_6
REMARK    2  A    between atoms: C4_6  and  N2_7
REMARK                            x       y       z     vdW  Elec       q    Type
REMARK                         _______ _______ _______ _____ _____    ______ ____
ROOT
ATOM      1  C4  UNL     1      14.659  12.408  -3.795  0.00  0.00    +0.000 C 
ENDROOT
BRANCH   1   2
ATOM      2  N2  UNL     1      14.888  11.106  -4.448  0.00  0.00    +0.000 NA
ATOM      3  C5  UNL     1      13.612  10.512  -4.905  0.00  0.00    +0.000 C 
ATOM      4  C6  UNL     1      13.007  11.194  -6.145  0.00  0.00    +0.000 C 
ATOM      5  O1  UNL     1      13.938  11.219  -7.233  0.00  0.00    +0.000 OA
ATOM      6  C7  UNL     1      15.151  11.881  -6.850  0.00  0.00    +0.000 C 
ATOM      7  C8  UNL     1      15.789  11.209  -5.623  0.00  0.00    +0.000 C 
ENDBRANCH   1   2
BRANCH   1  12
ATOM      8  N1  UNL     1      15.854  11.438  -1.835  0.00  0.00    +0.000 NA
ATOM      9  C1  UNL     1      16.633  11.783  -0.833  0.00  0.00    +0.000 A 
ATOM     10  S1  UNL     1      17.046  13.443  -0.729  0.00  0.00    +0.000 S 
ATOM     11  C2  UNL     1      16.111  13.741  -2.134  0.00  0.00    +0.000 A 
ATOM     12  C3  UNL     1      15.545  12.564  -2.592  0.00  0.00    +0.000 A 
ENDBRANCH   1  12
TORSDOF 2
ENDMDL
MODEL 2
REMARK VINA RESULT:    -3.835      3.318      5.093
REMARK INTER + INTRA:          -4.454
REMARK INTER:                  -4.257
REMARK INTRA:                  -0.197
REMARK UNBOUND:                -0.171
REMARK  Name = /home/anacleto/Desktop/manuscript_Mpro/naturecomm/supplementary_file_S2/6-chemical-library/molecular_docking/3D_ligand_structure/1163.pdb
REMARK  2 active torsions:
REMARK  status: ('A' for Active; 'I' for Inactive)
REMARK    1  A    between atoms: C3_5  and  C4_6
REMARK    2  A    between atoms: C4_6  and  N2_7
REMARK                            x       y       z     vdW  Elec       q    Type
REMARK                         _______ _______ _______ _____ _____    ______ ____
ROOT
ATOM      1  C4  UNL     1      15.090  11.989  -3.400  0.00  0.00    +0.000 C 
ENDROOT
BRANCH   1   2
ATOM      2  N2  UNL     1      15.726  10.814  -2.775  0.00  0.00    +0.000 NA
ATOM      3  C5  UNL     1      17.043  10.537  -3.390  0.00  0.00    +0.000 C 
ATOM      4  C6  UNL     1      18.148  11.532  -2.990  0.00  0.00    +0.000 C 
ATOM      5  O1  UNL     1      18.292  11.609  -1.568  0.00  0.00    +0.000 OA
ATOM      6  C7  UNL     1      17.052  11.976  -0.949  0.00  0.00    +0.000 C 
ATOM      7  C8  UNL     1      15.932  10.987  -1.316  0.00  0.00    +0.000 C 
ENDBRANCH   1   2
BRANCH   1  12
ATOM      8  N1  UNL     1      15.090  12.339  -5.868  0.00  0.00    +0.000 NA
ATOM      9  C1  UNL     1      14.517  11.902  -6.967  0.00  0.00    +0.000 A 
ATOM     10  S1  UNL     1      13.353  10.659  -6.774  0.00  0.00    +0.000 S 
ATOM     11  C2  UNL     1      13.625  10.698  -5.083  0.00  0.00    +0.000 A 
ATOM     12  C3  UNL     1      14.579  11.651  -4.771  0.00  0.00    +0.000 A 
ENDBRANCH   1  12
TORSDOF 2
ENDMDL
MODEL 3
REMARK VINA RESULT:    -3.747      3.176      5.090
REMARK INTER + INTRA:          -4.356
REMARK INTER:                  -4.162
REMARK INTRA:                  -0.194
REMARK UNBOUND:                -0.171
REMARK  Name = /home/anacleto/Desktop/manuscript_Mpro/naturecomm/supplementary_file_S2/6-chemical-library/molecular_docking/3D_ligand_structure/1163.pdb
REMARK  2 active torsions:
REMARK  status: ('A' for Active; 'I' for Inactive)
REMARK    1  A    between atoms: C3_5  and  C4_6
REMARK    2  A    between atoms: C4_6  and  N2_7
REMARK                            x       y       z     vdW  Elec       q    Type
REMARK                         _______ _______ _______ _____ _____    ______ ____
ROOT
ATOM      1  C4  UNL     1      16.158  11.491  -3.640  0.00  0.00    +0.000 C 
ENDROOT
BRANCH   1   2
ATOM      2  N2  UNL     1      15.362  11.840  -2.448  0.00  0.00    +0.000 NA
ATOM      3  C5  UNL     1      15.993  11.311  -1.218  0.00  0.00    +0.000 C 
ATOM      4  C6  UNL     1      17.256  12.073  -0.780  0.00  0.00    +0.000 C 
ATOM      5  O1  UNL     1      16.993  13.471  -0.618  0.00  0.00    +0.000 OA
ATOM      6  C7  UNL     1      16.474  14.036  -1.829  0.00  0.00    +0.000 C 
ATOM      7  C8  UNL     1      15.198  13.305  -2.282  0.00  0.00    +0.000 C 
ENDBRANCH   1   2
BRANCH   1  12
ATOM      8  N1  UNL     1      14.047  10.655  -4.668  0.00  0.00    +0.000 NA
ATOM      9  C1  UNL     1      13.425  10.583  -5.824  0.00  0.00    +0.000 A 
ATOM     10  S1  UNL     1      14.240  11.269  -7.167  0.00  0.00    +0.000 S 
ATOM     11  C2  UNL     1      15.535  11.701  -6.132  0.00  0.00    +0.000 A 
ATOM     12  C3  UNL     1      15.269  11.298  -4.835  0.00  0.00    +0.000 A 
ENDBRANCH   1  12
TORSDOF 2
ENDMDL
MODEL 4
REMARK VINA RESULT:    -3.660      1.888      2.023
REMARK INTER + INTRA:          -4.259
REMARK INTER:                  -4.063
REMARK INTRA:                  -0.196
REMARK UNBOUND:                -0.171
REMARK  Name = /home/anacleto/Desktop/manuscript_Mpro/naturecomm/supplementary_file_S2/6-chemical-library/molecular_docking/3D_ligand_structure/1163.pdb
REMARK  2 active torsions:
REMARK  status: ('A' for Active; 'I' for Inactive)
REMARK    1  A    between atoms: C3_5  and  C4_6
REMARK    2  A    between atoms: C4_6  and  N2_7
REMARK                            x       y       z     vdW  Elec       q    Type
REMARK                         _______ _______ _______ _____ _____    ______ ____
ROOT
ATOM      1  C4  UNL     1      14.536  13.447  -4.664  0.00  0.00    +0.000 C 
ENDROOT
BRANCH   1   2
ATOM      2  N2  UNL     1      15.310  12.211  -4.884  0.00  0.00    +0.000 NA
ATOM      3  C5  UNL     1      14.676  11.063  -4.196  0.00  0.00    +0.000 C 
ATOM      4  C6  UNL     1      13.390  10.554  -4.872  0.00  0.00    +0.000 C 
ATOM      5  O1  UNL     1      13.619  10.220  -6.245  0.00  0.00    +0.000 OA
ATOM      6  C7  UNL     1      14.139  11.347  -6.964  0.00  0.00    +0.000 C 
ATOM      7  C8  UNL     1      15.436  11.866  -6.321  0.00  0.00    +0.000 C 
ENDBRANCH   1   2
BRANCH   1  12
ATOM      8  N1  UNL     1      16.396  14.194  -3.182  0.00  0.00    +0.000 NA
ATOM      9  C1  UNL     1      16.621  14.873  -2.079  0.00  0.00    +0.000 A 
ATOM     10  S1  UNL     1      15.243  15.526  -1.296  0.00  0.00    +0.000 S 
ATOM     11  C2  UNL     1      14.254  14.852  -2.522  0.00  0.00    +0.000 A 
ATOM     12  C3  UNL     1      15.029  14.174  -3.446  0.00  0.00    +0.000 A 
ENDBRANCH   1  12
TORSDOF 2
ENDMDL
MODEL 5
REMARK VINA RESULT:    -3.630     14.688     15.821
REMARK INTER + INTRA:          -4.226
REMARK INTER:                  -4.060
REMARK INTRA:                  -0.166
REMARK UNBOUND:                -0.171
REMARK  Name = /home/anacleto/Desktop/manuscript_Mpro/naturecomm/supplementary_file_S2/6-chemical-library/molecular_docking/3D_ligand_structure/1163.pdb
REMARK  2 active torsions:
REMARK  status: ('A' for Active; 'I' for Inactive)
REMARK    1  A    between atoms: C3_5  and  C4_6
REMARK    2  A    between atoms: C4_6  and  N2_7
REMARK                            x       y       z     vdW  Elec       q    Type
REMARK                         _______ _______ _______ _____ _____    ______ ____
ROOT
ATOM      1  C4  UNL     1      19.000   4.848   9.895  0.00  0.00    +0.000 C 
ENDROOT
BRANCH   1   2
ATOM      2  N2  UNL     1      19.474   5.331   8.585  0.00  0.00    +0.000 NA
ATOM      3  C5  UNL     1      19.083   6.742   8.369  0.00  0.00    +0.000 C 
ATOM      4  C6  UNL     1      19.891   7.755   9.201  0.00  0.00    +0.000 C 
ATOM      5  O1  UNL     1      21.298   7.610   8.978  0.00  0.00    +0.000 OA
ATOM      6  C7  UNL     1      21.726   6.275   9.277  0.00  0.00    +0.000 C 
ATOM      7  C8  UNL     1      20.949   5.241   8.446  0.00  0.00    +0.000 C 
ENDBRANCH   1   2
BRANCH   1  12
ATOM      8  N1  UNL     1      17.386   3.611   8.454  0.00  0.00    +0.000 NA
ATOM      9  C1  UNL     1      16.304   2.868   8.526  0.00  0.00    +0.000 A 
ATOM     10  S1  UNL     1      15.694   2.567  10.100  0.00  0.00    +0.000 S 
ATOM     11  C2  UNL     1      16.972   3.505  10.750  0.00  0.00    +0.000 A 
ATOM     12  C3  UNL     1      17.779   3.987   9.734  0.00  0.00    +0.000 A 
ENDBRANCH   1  12
TORSDOF 2
ENDMDL
MODEL 6
REMARK VINA RESULT:    -3.595      3.517      5.354
REMARK INTER + INTRA:          -4.186
REMARK INTER:                  -4.018
REMARK INTRA:                  -0.168
REMARK UNBOUND:                -0.171
REMARK  Name = /home/anacleto/Desktop/manuscript_Mpro/naturecomm/supplementary_file_S2/6-chemical-library/molecular_docking/3D_ligand_structure/1163.pdb
REMARK  2 active torsions:
REMARK  status: ('A' for Active; 'I' for Inactive)
REMARK    1  A    between atoms: C3_5  and  C4_6
REMARK    2  A    between atoms: C4_6  and  N2_7
REMARK                            x       y       z     vdW  Elec       q    Type
REMARK                         _______ _______ _______ _____ _____    ______ ____
ROOT
ATOM      1  C4  UNL     1      14.932  14.002  -4.570  0.00  0.00    +0.000 C 
ENDROOT
BRANCH   1   2
ATOM      2  N2  UNL     1      14.424  13.779  -3.204  0.00  0.00    +0.000 NA
ATOM      3  C5  UNL     1      15.471  13.185  -2.342  0.00  0.00    +0.000 C 
ATOM      4  C6  UNL     1      16.581  14.168  -1.929  0.00  0.00    +0.000 C 
ATOM      5  O1  UNL     1      16.039  15.328  -1.289  0.00  0.00    +0.000 OA
ATOM      6  C7  UNL     1      15.093  15.986  -2.143  0.00  0.00    +0.000 C 
ATOM      7  C8  UNL     1      13.960  15.031  -2.558  0.00  0.00    +0.000 C 
ENDBRANCH   1   2
BRANCH   1  12
ATOM      8  N1  UNL     1      15.357  12.558  -6.557  0.00  0.00    +0.000 NA
ATOM      9  C1  UNL     1      14.841  11.548  -7.222  0.00  0.00    +0.000 A 
ATOM     10  S1  UNL     1      13.373  10.908  -6.611  0.00  0.00    +0.000 S 
ATOM     11  C2  UNL     1      13.416  12.070  -5.353  0.00  0.00    +0.000 A 
ATOM     12  C3  UNL     1      14.539  12.870  -5.475  0.00  0.00    +0.000 A 
ENDBRANCH   1  12
TORSDOF 2
ENDMDL
MODEL 7
REMARK VINA RESULT:    -3.582     15.139     16.742
REMARK INTER + INTRA:          -4.172
REMARK INTER:                  -4.012
REMARK INTRA:                  -0.160
REMARK UNBOUND:                -0.171
REMARK  Name = /home/anacleto/Desktop/manuscript_Mpro/naturecomm/supplementary_file_S2/6-chemical-library/molecular_docking/3D_ligand_structure/1163.pdb
REMARK  2 active torsions:
REMARK  status: ('A' for Active; 'I' for Inactive)
REMARK    1  A    between atoms: C3_5  and  C4_6
REMARK    2  A    between atoms: C4_6  and  N2_7
REMARK                            x       y       z     vdW  Elec       q    Type
REMARK                         _______ _______ _______ _____ _____    ______ ____
ROOT
ATOM      1  C4  UNL     1      19.295   7.273  10.970  0.00  0.00    +0.000 C 
ENDROOT
BRANCH   1   2
ATOM      2  N2  UNL     1      19.451   5.839  10.667  0.00  0.00    +0.000 NA
ATOM      3  C5  UNL     1      18.769   5.488   9.401  0.00  0.00    +0.000 C 
ATOM      4  C6  UNL     1      19.492   5.985   8.137  0.00  0.00    +0.000 C 
ATOM      5  O1  UNL     1      20.846   5.522   8.093  0.00  0.00    +0.000 OA
ATOM      6  C7  UNL     1      21.564   5.934   9.263  0.00  0.00    +0.000 C 
ATOM      7  C8  UNL     1      20.874   5.435  10.544  0.00  0.00    +0.000 C 
ENDBRANCH   1   2
BRANCH   1  12
ATOM      8  N1  UNL     1      19.866   7.948  13.300  0.00  0.00    +0.000 NA
ATOM      9  C1  UNL     1      19.336   8.053  14.499  0.00  0.00    +0.000 A 
ATOM     10  S1  UNL     1      17.687   7.606  14.641  0.00  0.00    +0.000 S 
ATOM     11  C2  UNL     1      17.666   7.237  12.967  0.00  0.00    +0.000 A 
ATOM     12  C3  UNL     1      18.909   7.475  12.407  0.00  0.00    +0.000 A 
ENDBRANCH   1  12
TORSDOF 2
ENDMDL
MODEL 8
REMARK VINA RESULT:    -3.424      3.441      5.338
REMARK INTER + INTRA:          -3.995
REMARK INTER:                  -3.855
REMARK INTRA:                  -0.140
REMARK UNBOUND:                -0.171
REMARK  Name = /home/anacleto/Desktop/manuscript_Mpro/naturecomm/supplementary_file_S2/6-chemical-library/molecular_docking/3D_ligand_structure/1163.pdb
REMARK  2 active torsions:
REMARK  status: ('A' for Active; 'I' for Inactive)
REMARK    1  A    between atoms: C3_5  and  C4_6
REMARK    2  A    between atoms: C4_6  and  N2_7
REMARK                            x       y       z     vdW  Elec       q    Type
REMARK                         _______ _______ _______ _____ _____    ______ ____
ROOT
ATOM      1  C4  UNL     1      15.348  12.901  -2.420  0.00  0.00    +0.000 C 
ENDROOT
BRANCH   1   2
ATOM      2  N2  UNL     1      16.370  13.941  -2.638  0.00  0.00    +0.000 NA
ATOM      3  C5  UNL     1      15.899  15.255  -2.143  0.00  0.00    +0.000 C 
ATOM      4  C6  UNL     1      15.882  15.383  -0.609  0.00  0.00    +0.000 C 
ATOM      5  O1  UNL     1      17.167  15.094  -0.047  0.00  0.00    +0.000 OA
ATOM      6  C7  UNL     1      17.607  13.783  -0.427  0.00  0.00    +0.000 C 
ATOM      7  C8  UNL     1      17.651  13.632  -1.957  0.00  0.00    +0.000 C 
ENDBRANCH   1   2
BRANCH   1  12
ATOM      8  N1  UNL     1      14.602  11.008  -3.860  0.00  0.00    +0.000 NA
ATOM      9  C1  UNL     1      14.166  10.750  -5.073  0.00  0.00    +0.000 A 
ATOM     10  S1  UNL     1      14.006  12.095  -6.124  0.00  0.00    +0.000 S 
ATOM     11  C2  UNL     1      14.565  13.116  -4.867  0.00  0.00    +0.000 A 
ATOM     12  C3  UNL     1      14.838  12.373  -3.731  0.00  0.00    +0.000 A 
ENDBRANCH   1  12
TORSDOF 2
ENDMDL
MODEL 9
REMARK VINA RESULT:    -3.398     15.229     16.823
REMARK INTER + INTRA:          -3.966
REMARK INTER:                  -3.795
REMARK INTRA:                  -0.171
REMARK UNBOUND:                -0.171
REMARK  Name = /home/anacleto/Desktop/manuscript_Mpro/naturecomm/supplementary_file_S2/6-chemical-library/molecular_docking/3D_ligand_structure/1163.pdb
REMARK  2 active torsions:
REMARK  status: ('A' for Active; 'I' for Inactive)
REMARK    1  A    between atoms: C3_5  and  C4_6
REMARK    2  A    between atoms: C4_6  and  N2_7
REMARK                            x       y       z     vdW  Elec       q    Type
REMARK                         _______ _______ _______ _____ _____    ______ ____
ROOT
ATOM      1  C4  UNL     1      19.447   5.743  11.567  0.00  0.00    +0.000 C 
ENDROOT
BRANCH   1   2
ATOM      2  N2  UNL     1      19.926   6.828  10.692  0.00  0.00    +0.000 NA
ATOM      3  C5  UNL     1      21.330   6.596  10.283  0.00  0.00    +0.000 C 
ATOM      4  C6  UNL     1      21.506   5.477   9.241  0.00  0.00    +0.000 C 
ATOM      5  O1  UNL     1      20.704   5.714   8.079  0.00  0.00    +0.000 OA
ATOM      6  C7  UNL     1      19.320   5.843   8.432  0.00  0.00    +0.000 C 
ATOM      7  C8  UNL     1      19.111   6.968   9.460  0.00  0.00    +0.000 C 
ENDBRANCH   1   2
BRANCH   1  12
ATOM      8  N1  UNL     1      17.399   5.446  12.958  0.00  0.00    +0.000 NA
ATOM      9  C1  UNL     1      16.648   6.082  13.829  0.00  0.00    +0.000 A 
ATOM     10  S1  UNL     1      17.141   7.672  14.239  0.00  0.00    +0.000 S 
ATOM     11  C2  UNL     1      18.469   7.512  13.168  0.00  0.00    +0.000 A 
ATOM     12  C3  UNL     1      18.454   6.265  12.567  0.00  0.00    +0.000 A 
ENDBRANCH   1  12
TORSDOF 2
ENDMDL
