MODEL 1
REMARK VINA RESULT:    -4.793      0.000      0.000
REMARK INTER + INTRA:          -5.113
REMARK INTER:                  -4.989
REMARK INTRA:                  -0.124
REMARK UNBOUND:                -0.040
REMARK  Name = /home/anacleto/Desktop/manuscript_Mpro/naturecomm/supplementary_file_S2/6-chemical-library/molecular_docking/3D_ligand_structure/933.pdb
REMARK  1 active torsions:
REMARK  status: ('A' for Active; 'I' for Inactive)
REMARK    1  A    between atoms: C5_7  and  C6_9
REMARK                            x       y       z     vdW  Elec       q    Type
REMARK                         _______ _______ _______ _____ _____    ______ ____
ROOT
ATOM      1  C1  UNL     1     -31.202   3.944 -40.611  0.00  0.00    +0.000 C 
ATOM      2  C2  UNL     1     -32.092   5.124 -40.177  0.00  0.00    +0.000 C 
ATOM      3  N1  UNL     1     -32.038   5.370 -38.727  0.00  0.00    +0.000 NA
ATOM      4  C3  UNL     1     -30.652   5.649 -38.298  0.00  0.00    +0.000 C 
ATOM      5  C4  UNL     1     -29.537   5.164 -39.250  0.00  0.00    +0.000 C 
ATOM      6  N2  UNL     1     -29.909   3.915 -39.923  0.00  0.00    +0.000 N 
ATOM      7  C5  UNL     1     -29.023   2.903 -40.279  0.00  0.00    +0.000 C 
ATOM      8  O1  UNL     1     -29.272   2.069 -41.148  0.00  0.00    +0.000 OA
ATOM      9  H5  UNL     1     -32.339   4.512 -38.264  0.00  0.00    +0.000 HD
ENDROOT
BRANCH   7  10
ATOM     10  C6  UNL     1     -27.734   2.792 -39.580  0.00  0.00    +0.000 A 
ATOM     11  C7  UNL     1     -27.644   2.347 -38.260  0.00  0.00    +0.000 A 
ATOM     12  C8  UNL     1     -26.387   2.235 -37.670  0.00  0.00    +0.000 A 
ATOM     13  C9  UNL     1     -25.272   2.561 -38.429  0.00  0.00    +0.000 A 
ATOM     14  N3  UNL     1     -25.330   2.974 -39.715  0.00  0.00    +0.000 NA
ATOM     15  C10 UNL     1     -26.563   3.064 -40.271  0.00  0.00    +0.000 A 
ENDBRANCH   7  10
TORSDOF 1
ENDMDL
MODEL 2
REMARK VINA RESULT:    -4.634      7.870     10.334
REMARK INTER + INTRA:          -4.945
REMARK INTER:                  -4.892
REMARK INTRA:                  -0.052
REMARK UNBOUND:                -0.040
REMARK  Name = /home/anacleto/Desktop/manuscript_Mpro/naturecomm/supplementary_file_S2/6-chemical-library/molecular_docking/3D_ligand_structure/933.pdb
REMARK  1 active torsions:
REMARK  status: ('A' for Active; 'I' for Inactive)
REMARK    1  A    between atoms: C5_7  and  C6_9
REMARK                            x       y       z     vdW  Elec       q    Type
REMARK                         _______ _______ _______ _____ _____    ______ ____
ROOT
ATOM      1  C1  UNL     1     -19.091  10.109 -37.982  0.00  0.00    +0.000 C 
ATOM      2  C2  UNL     1     -17.802  10.071 -38.825  0.00  0.00    +0.000 C 
ATOM      3  N1  UNL     1     -17.315   8.701 -39.053  0.00  0.00    +0.000 NA
ATOM      4  C3  UNL     1     -18.344   7.890 -39.737  0.00  0.00    +0.000 C 
ATOM      5  C4  UNL     1     -19.795   8.407 -39.632  0.00  0.00    +0.000 C 
ATOM      6  N2  UNL     1     -20.044   9.055 -38.340  0.00  0.00    +0.000 N 
ATOM      7  C5  UNL     1     -21.254   9.036 -37.654  0.00  0.00    +0.000 C 
ATOM      8  O1  UNL     1     -21.554   9.865 -36.798  0.00  0.00    +0.000 OA
ATOM      9  H5  UNL     1     -17.150   8.283 -38.136  0.00  0.00    +0.000 HD
ENDROOT
BRANCH   7  10
ATOM     10  C6  UNL     1     -22.224   7.966 -37.932  0.00  0.00    +0.000 A 
ATOM     11  C7  UNL     1     -21.939   6.623 -37.677  0.00  0.00    +0.000 A 
ATOM     12  C8  UNL     1     -22.917   5.666 -37.934  0.00  0.00    +0.000 A 
ATOM     13  C9  UNL     1     -24.144   6.091 -38.424  0.00  0.00    +0.000 A 
ATOM     14  N3  UNL     1     -24.453   7.386 -38.659  0.00  0.00    +0.000 NA
ATOM     15  C10 UNL     1     -23.490   8.301 -38.390  0.00  0.00    +0.000 A 
ENDBRANCH   7  10
TORSDOF 1
ENDMDL
MODEL 3
REMARK VINA RESULT:    -4.350      5.791      7.325
REMARK INTER + INTRA:          -4.644
REMARK INTER:                  -4.530
REMARK INTRA:                  -0.113
REMARK UNBOUND:                -0.040
REMARK  Name = /home/anacleto/Desktop/manuscript_Mpro/naturecomm/supplementary_file_S2/6-chemical-library/molecular_docking/3D_ligand_structure/933.pdb
REMARK  1 active torsions:
REMARK  status: ('A' for Active; 'I' for Inactive)
REMARK    1  A    between atoms: C5_7  and  C6_9
REMARK                            x       y       z     vdW  Elec       q    Type
REMARK                         _______ _______ _______ _____ _____    ______ ____
ROOT
ATOM      1  C1  UNL     1     -21.943   8.767 -37.231  0.00  0.00    +0.000 C 
ATOM      2  C2  UNL     1     -22.429  10.175 -36.839  0.00  0.00    +0.000 C 
ATOM      3  N1  UNL     1     -23.267  10.794 -37.879  0.00  0.00    +0.000 NA
ATOM      4  C3  UNL     1     -24.449   9.954 -38.163  0.00  0.00    +0.000 C 
ATOM      5  C4  UNL     1     -24.342   8.471 -37.748  0.00  0.00    +0.000 C 
ATOM      6  N2  UNL     1     -22.974   7.967 -37.897  0.00  0.00    +0.000 N 
ATOM      7  C5  UNL     1     -22.633   6.666 -38.255  0.00  0.00    +0.000 C 
ATOM      8  O1  UNL     1     -21.535   6.169 -38.014  0.00  0.00    +0.000 OA
ATOM      9  H5  UNL     1     -22.707  10.839 -38.731  0.00  0.00    +0.000 HD
ENDROOT
BRANCH   7  10
ATOM     10  C6  UNL     1     -23.610   5.837 -38.978  0.00  0.00    +0.000 A 
ATOM     11  C7  UNL     1     -24.440   4.928 -38.320  0.00  0.00    +0.000 A 
ATOM     12  C8  UNL     1     -25.366   4.200 -39.063  0.00  0.00    +0.000 A 
ATOM     13  C9  UNL     1     -25.432   4.420 -40.431  0.00  0.00    +0.000 A 
ATOM     14  N3  UNL     1     -24.656   5.310 -41.090  0.00  0.00    +0.000 NA
ATOM     15  C10 UNL     1     -23.771   6.015 -40.344  0.00  0.00    +0.000 A 
ENDBRANCH   7  10
TORSDOF 1
ENDMDL
MODEL 4
REMARK VINA RESULT:    -4.229      3.195      4.229
REMARK INTER + INTRA:          -4.516
REMARK INTER:                  -4.374
REMARK INTRA:                  -0.142
REMARK UNBOUND:                -0.040
REMARK  Name = /home/anacleto/Desktop/manuscript_Mpro/naturecomm/supplementary_file_S2/6-chemical-library/molecular_docking/3D_ligand_structure/933.pdb
REMARK  1 active torsions:
REMARK  status: ('A' for Active; 'I' for Inactive)
REMARK    1  A    between atoms: C5_7  and  C6_9
REMARK                            x       y       z     vdW  Elec       q    Type
REMARK                         _______ _______ _______ _____ _____    ______ ____
ROOT
ATOM      1  C1  UNL     1     -28.654   8.137 -38.061  0.00  0.00    +0.000 C 
ATOM      2  C2  UNL     1     -27.595   9.221 -38.339  0.00  0.00    +0.000 C 
ATOM      3  N1  UNL     1     -26.219   8.718 -38.191  0.00  0.00    +0.000 NA
ATOM      4  C3  UNL     1     -25.978   7.583 -39.107  0.00  0.00    +0.000 C 
ATOM      5  C4  UNL     1     -27.235   6.853 -39.626  0.00  0.00    +0.000 C 
ATOM      6  N2  UNL     1     -28.300   6.830 -38.618  0.00  0.00    +0.000 N 
ATOM      7  C5  UNL     1     -29.217   5.798 -38.446  0.00  0.00    +0.000 C 
ATOM      8  O1  UNL     1     -30.298   5.949 -37.880  0.00  0.00    +0.000 OA
ATOM      9  H5  UNL     1     -26.126   8.371 -37.236  0.00  0.00    +0.000 HD
ENDROOT
BRANCH   7  10
ATOM     10  C6  UNL     1     -28.888   4.450 -38.935  0.00  0.00    +0.000 A 
ATOM     11  C7  UNL     1     -27.998   3.614 -38.259  0.00  0.00    +0.000 A 
ATOM     12  C8  UNL     1     -27.758   2.338 -38.761  0.00  0.00    +0.000 A 
ATOM     13  C9  UNL     1     -28.428   1.945 -39.911  0.00  0.00    +0.000 A 
ATOM     14  N3  UNL     1     -29.311   2.726 -40.573  0.00  0.00    +0.000 NA
ATOM     15  C10 UNL     1     -29.537   3.960 -40.058  0.00  0.00    +0.000 A 
ENDBRANCH   7  10
TORSDOF 1
ENDMDL
MODEL 5
REMARK VINA RESULT:    -4.224      7.572      8.790
REMARK INTER + INTRA:          -4.511
REMARK INTER:                  -4.462
REMARK INTRA:                  -0.049
REMARK UNBOUND:                -0.040
REMARK  Name = /home/anacleto/Desktop/manuscript_Mpro/naturecomm/supplementary_file_S2/6-chemical-library/molecular_docking/3D_ligand_structure/933.pdb
REMARK  1 active torsions:
REMARK  status: ('A' for Active; 'I' for Inactive)
REMARK    1  A    between atoms: C5_7  and  C6_9
REMARK                            x       y       z     vdW  Elec       q    Type
REMARK                         _______ _______ _______ _____ _____    ______ ____
ROOT
ATOM      1  C1  UNL     1     -24.166   7.784 -37.918  0.00  0.00    +0.000 C 
ATOM      2  C2  UNL     1     -25.256   8.872 -37.922  0.00  0.00    +0.000 C 
ATOM      3  N1  UNL     1     -24.750  10.182 -37.481  0.00  0.00    +0.000 NA
ATOM      4  C3  UNL     1     -23.640  10.630 -38.348  0.00  0.00    +0.000 C 
ATOM      5  C4  UNL     1     -22.924   9.527 -39.156  0.00  0.00    +0.000 C 
ATOM      6  N2  UNL     1     -22.873   8.262 -38.415  0.00  0.00    +0.000 N 
ATOM      7  C5  UNL     1     -21.837   7.336 -38.480  0.00  0.00    +0.000 C 
ATOM      8  O1  UNL     1     -21.973   6.155 -38.168  0.00  0.00    +0.000 OA
ATOM      9  H5  UNL     1     -24.378  10.060 -36.539  0.00  0.00    +0.000 HD
ENDROOT
BRANCH   7  10
ATOM     10  C6  UNL     1     -20.503   7.775 -38.917  0.00  0.00    +0.000 A 
ATOM     11  C7  UNL     1     -19.761   8.714 -38.200  0.00  0.00    +0.000 A 
ATOM     12  C8  UNL     1     -18.490   9.059 -38.654  0.00  0.00    +0.000 A 
ATOM     13  C9  UNL     1     -18.010   8.441 -39.799  0.00  0.00    +0.000 A 
ATOM     14  N3  UNL     1     -18.698   7.513 -40.501  0.00  0.00    +0.000 NA
ATOM     15  C10 UNL     1     -19.927   7.185 -40.033  0.00  0.00    +0.000 A 
ENDBRANCH   7  10
TORSDOF 1
ENDMDL
MODEL 6
REMARK VINA RESULT:    -4.204     13.864     15.208
REMARK INTER + INTRA:          -4.489
REMARK INTER:                  -4.352
REMARK INTRA:                  -0.137
REMARK UNBOUND:                -0.040
REMARK  Name = /home/anacleto/Desktop/manuscript_Mpro/naturecomm/supplementary_file_S2/6-chemical-library/molecular_docking/3D_ligand_structure/933.pdb
REMARK  1 active torsions:
REMARK  status: ('A' for Active; 'I' for Inactive)
REMARK    1  A    between atoms: C5_7  and  C6_9
REMARK                            x       y       z     vdW  Elec       q    Type
REMARK                         _______ _______ _______ _____ _____    ______ ____
ROOT
ATOM      1  C1  UNL     1     -26.961  -5.224 -26.305  0.00  0.00    +0.000 C 
ATOM      2  C2  UNL     1     -28.277  -4.627 -26.840  0.00  0.00    +0.000 C 
ATOM      3  N1  UNL     1     -28.109  -3.258 -27.355  0.00  0.00    +0.000 NA
ATOM      4  C3  UNL     1     -27.107  -3.230 -28.442  0.00  0.00    +0.000 C 
ATOM      5  C4  UNL     1     -26.125  -4.420 -28.488  0.00  0.00    +0.000 C 
ATOM      6  N2  UNL     1     -25.802  -4.906 -27.143  0.00  0.00    +0.000 N 
ATOM      7  C5  UNL     1     -24.575  -5.435 -26.755  0.00  0.00    +0.000 C 
ATOM      8  O1  UNL     1     -24.438  -6.162 -25.774  0.00  0.00    +0.000 OA
ATOM      9  H5  UNL     1     -27.749  -2.689 -26.588  0.00  0.00    +0.000 HD
ENDROOT
BRANCH   7  10
ATOM     10  C6  UNL     1     -23.369  -5.101 -27.527  0.00  0.00    +0.000 A 
ATOM     11  C7  UNL     1     -22.754  -3.851 -27.437  0.00  0.00    +0.000 A 
ATOM     12  C8  UNL     1     -21.595  -3.615 -28.171  0.00  0.00    +0.000 A 
ATOM     13  C9  UNL     1     -21.091  -4.642 -28.956  0.00  0.00    +0.000 A 
ATOM     14  N3  UNL     1     -21.653  -5.868 -29.044  0.00  0.00    +0.000 NA
ATOM     15  C10 UNL     1     -22.774  -6.078 -28.311  0.00  0.00    +0.000 A 
ENDBRANCH   7  10
TORSDOF 1
ENDMDL
MODEL 7
REMARK VINA RESULT:    -4.192      3.503      5.620
REMARK INTER + INTRA:          -4.477
REMARK INTER:                  -4.396
REMARK INTRA:                  -0.081
REMARK UNBOUND:                -0.040
REMARK  Name = /home/anacleto/Desktop/manuscript_Mpro/naturecomm/supplementary_file_S2/6-chemical-library/molecular_docking/3D_ligand_structure/933.pdb
REMARK  1 active torsions:
REMARK  status: ('A' for Active; 'I' for Inactive)
REMARK    1  A    between atoms: C5_7  and  C6_9
REMARK                            x       y       z     vdW  Elec       q    Type
REMARK                         _______ _______ _______ _____ _____    ______ ____
ROOT
ATOM      1  C1  UNL     1     -23.056   6.115 -40.675  0.00  0.00    +0.000 C 
ATOM      2  C2  UNL     1     -22.390   7.335 -40.009  0.00  0.00    +0.000 C 
ATOM      3  N1  UNL     1     -23.358   8.198 -39.313  0.00  0.00    +0.000 NA
ATOM      4  C3  UNL     1     -24.081   7.435 -38.274  0.00  0.00    +0.000 C 
ATOM      5  C4  UNL     1     -24.080   5.900 -38.435  0.00  0.00    +0.000 C 
ATOM      6  N2  UNL     1     -24.100   5.506 -39.847  0.00  0.00    +0.000 N 
ATOM      7  C5  UNL     1     -24.732   4.375 -40.354  0.00  0.00    +0.000 C 
ATOM      8  O1  UNL     1     -24.434   3.867 -41.433  0.00  0.00    +0.000 OA
ATOM      9  H5  UNL     1     -24.042   8.504 -40.006  0.00  0.00    +0.000 HD
ENDROOT
BRANCH   7  10
ATOM     10  C6  UNL     1     -25.827   3.757 -39.592  0.00  0.00    +0.000 A 
ATOM     11  C7  UNL     1     -25.594   2.776 -38.626  0.00  0.00    +0.000 A 
ATOM     12  C8  UNL     1     -26.675   2.258 -37.917  0.00  0.00    +0.000 A 
ATOM     13  C9  UNL     1     -27.942   2.750 -38.195  0.00  0.00    +0.000 A 
ATOM     14  N3  UNL     1     -28.193   3.714 -39.109  0.00  0.00    +0.000 NA
ATOM     15  C10 UNL     1     -27.124   4.211 -39.777  0.00  0.00    +0.000 A 
ENDBRANCH   7  10
TORSDOF 1
ENDMDL
MODEL 8
REMARK VINA RESULT:    -4.189     15.110     16.857
REMARK INTER + INTRA:          -4.474
REMARK INTER:                  -4.340
REMARK INTRA:                  -0.135
REMARK UNBOUND:                -0.040
REMARK  Name = /home/anacleto/Desktop/manuscript_Mpro/naturecomm/supplementary_file_S2/6-chemical-library/molecular_docking/3D_ligand_structure/933.pdb
REMARK  1 active torsions:
REMARK  status: ('A' for Active; 'I' for Inactive)
REMARK    1  A    between atoms: C5_7  and  C6_9
REMARK                            x       y       z     vdW  Elec       q    Type
REMARK                         _______ _______ _______ _____ _____    ______ ____
ROOT
ATOM      1  C1  UNL     1     -27.008  -5.989 -23.368  0.00  0.00    +0.000 C 
ATOM      2  C2  UNL     1     -28.374  -6.666 -23.149  0.00  0.00    +0.000 C 
ATOM      3  N1  UNL     1     -29.405  -6.173 -24.078  0.00  0.00    +0.000 NA
ATOM      4  C3  UNL     1     -28.991  -6.398 -25.479  0.00  0.00    +0.000 C 
ATOM      5  C4  UNL     1     -27.480  -6.603 -25.716  0.00  0.00    +0.000 C 
ATOM      6  N2  UNL     1     -26.675  -5.807 -24.784  0.00  0.00    +0.000 N 
ATOM      7  C5  UNL     1     -25.441  -5.235 -25.077  0.00  0.00    +0.000 C 
ATOM      8  O1  UNL     1     -24.631  -4.910 -24.212  0.00  0.00    +0.000 OA
ATOM      9  H5  UNL     1     -29.483  -5.166 -23.936  0.00  0.00    +0.000 HD
ENDROOT
BRANCH   7  10
ATOM     10  C6  UNL     1     -25.080  -4.978 -26.479  0.00  0.00    +0.000 A 
ATOM     11  C7  UNL     1     -25.646  -3.931 -27.209  0.00  0.00    +0.000 A 
ATOM     12  C8  UNL     1     -25.233  -3.725 -28.522  0.00  0.00    +0.000 A 
ATOM     13  C9  UNL     1     -24.262  -4.565 -29.048  0.00  0.00    +0.000 A 
ATOM     14  N3  UNL     1     -23.682  -5.571 -28.356  0.00  0.00    +0.000 NA
ATOM     15  C10 UNL     1     -24.092  -5.745 -27.076  0.00  0.00    +0.000 A 
ENDBRANCH   7  10
TORSDOF 1
ENDMDL
MODEL 9
REMARK VINA RESULT:    -4.117     15.236     17.423
REMARK INTER + INTRA:          -4.397
REMARK INTER:                  -4.357
REMARK INTRA:                  -0.040
REMARK UNBOUND:                -0.040
REMARK  Name = /home/anacleto/Desktop/manuscript_Mpro/naturecomm/supplementary_file_S2/6-chemical-library/molecular_docking/3D_ligand_structure/933.pdb
REMARK  1 active torsions:
REMARK  status: ('A' for Active; 'I' for Inactive)
REMARK    1  A    between atoms: C5_7  and  C6_9
REMARK                            x       y       z     vdW  Elec       q    Type
REMARK                         _______ _______ _______ _____ _____    ______ ____
ROOT
ATOM      1  C1  UNL     1     -24.664  -6.093 -23.017  0.00  0.00    +0.000 C 
ATOM      2  C2  UNL     1     -23.699  -5.490 -21.978  0.00  0.00    +0.000 C 
ATOM      3  N1  UNL     1     -22.586  -4.754 -22.600  0.00  0.00    +0.000 NA
ATOM      4  C3  UNL     1     -23.098  -3.661 -23.453  0.00  0.00    +0.000 C 
ATOM      5  C4  UNL     1     -24.563  -3.794 -23.919  0.00  0.00    +0.000 C 
ATOM      6  N2  UNL     1     -24.933  -5.195 -24.143  0.00  0.00    +0.000 N 
ATOM      7  C5  UNL     1     -25.823  -5.644 -25.113  0.00  0.00    +0.000 C 
ATOM      8  O1  UNL     1     -26.396  -6.729 -25.047  0.00  0.00    +0.000 OA
ATOM      9  H5  UNL     1     -22.089  -5.410 -23.202  0.00  0.00    +0.000 HD
ENDROOT
BRANCH   7  10
ATOM     10  C6  UNL     1     -26.086  -4.808 -26.293  0.00  0.00    +0.000 A 
ATOM     11  C7  UNL     1     -25.080  -4.470 -27.201  0.00  0.00    +0.000 A 
ATOM     12  C8  UNL     1     -25.408  -3.702 -28.315  0.00  0.00    +0.000 A 
ATOM     13  C9  UNL     1     -26.729  -3.313 -28.483  0.00  0.00    +0.000 A 
ATOM     14  N3  UNL     1     -27.726  -3.643 -27.632  0.00  0.00    +0.000 NA
ATOM     15  C10 UNL     1     -27.385  -4.402 -26.561  0.00  0.00    +0.000 A 
ENDBRANCH   7  10
TORSDOF 1
ENDMDL
