MODEL 1
REMARK VINA RESULT:    -3.881      0.000      0.000
REMARK INTER + INTRA:          -3.881
REMARK INTER:                  -3.881
REMARK INTRA:                   0.000
REMARK UNBOUND:                 0.000
REMARK  Name = /home/anacleto/Desktop/manuscript_Mpro/naturecomm/supplementary_file_S2/6-chemical-library/molecular_docking/3D_ligand_structure/217.pdb
REMARK  0 active torsions:
REMARK  status: ('A' for Active; 'I' for Inactive)
REMARK                            x       y       z     vdW  Elec       q    Type
REMARK                         _______ _______ _______ _____ _____    ______ ____
ROOT
ATOM      1  N1  UNL     1     -26.071  -5.406 -25.329  0.00  0.00    +0.000 NA
ATOM      2  N2  UNL     1     -24.773  -4.944 -25.446  0.00  0.00    +0.000 NA
ATOM      3  C1  UNL     1     -24.720  -4.150 -26.493  0.00  0.00    +0.000 A 
ATOM      4  N3  UNL     1     -25.951  -4.073 -27.076  0.00  0.00    +0.000 N 
ATOM      5  C2  UNL     1     -26.762  -4.874 -26.313  0.00  0.00    +0.000 A 
ATOM      6  C3  UNL     1     -26.418  -3.385 -28.184  0.00  0.00    +0.000 A 
ATOM      7  C4  UNL     1     -27.712  -3.507 -28.522  0.00  0.00    +0.000 A 
ATOM      8  N4  UNL     1     -28.551  -4.307 -27.772  0.00  0.00    +0.000 N 
ATOM      9  C5  UNL     1     -28.158  -5.033 -26.643  0.00  0.00    +0.000 A 
ATOM     10  O1  UNL     1     -28.977  -5.720 -26.039  0.00  0.00    +0.000 OA
ATOM     11  H4  UNL     1     -29.530  -4.405 -28.022  0.00  0.00    +0.000 HD
ENDROOT
TORSDOF 0
ENDMDL
MODEL 2
REMARK VINA RESULT:    -3.714     16.826     17.414
REMARK INTER + INTRA:          -3.714
REMARK INTER:                  -3.714
REMARK INTRA:                   0.000
REMARK UNBOUND:                 0.000
REMARK  Name = /home/anacleto/Desktop/manuscript_Mpro/naturecomm/supplementary_file_S2/6-chemical-library/molecular_docking/3D_ligand_structure/217.pdb
REMARK  0 active torsions:
REMARK  status: ('A' for Active; 'I' for Inactive)
REMARK                            x       y       z     vdW  Elec       q    Type
REMARK                         _______ _______ _______ _____ _____    ______ ____
ROOT
ATOM      1  N1  UNL     1     -23.749   6.757 -38.522  0.00  0.00    +0.000 NA
ATOM      2  N2  UNL     1     -22.560   6.053 -38.583  0.00  0.00    +0.000 NA
ATOM      3  C1  UNL     1     -21.618   6.807 -38.058  0.00  0.00    +0.000 A 
ATOM      4  N3  UNL     1     -22.151   7.993 -37.650  0.00  0.00    +0.000 N 
ATOM      5  C2  UNL     1     -23.485   7.916 -37.960  0.00  0.00    +0.000 A 
ATOM      6  C3  UNL     1     -21.593   9.109 -37.046  0.00  0.00    +0.000 A 
ATOM      7  C4  UNL     1     -22.388  10.152 -36.755  0.00  0.00    +0.000 A 
ATOM      8  N4  UNL     1     -23.735  10.101 -37.057  0.00  0.00    +0.000 N 
ATOM      9  C5  UNL     1     -24.373   9.015 -37.664  0.00  0.00    +0.000 A 
ATOM     10  O1  UNL     1     -25.578   9.061 -37.894  0.00  0.00    +0.000 OA
ATOM     11  H4  UNL     1     -24.342  10.885 -36.840  0.00  0.00    +0.000 HD
ENDROOT
TORSDOF 0
ENDMDL
MODEL 3
REMARK VINA RESULT:    -3.675      1.787      2.883
REMARK INTER + INTRA:          -3.675
REMARK INTER:                  -3.675
REMARK INTRA:                   0.000
REMARK UNBOUND:                 0.000
REMARK  Name = /home/anacleto/Desktop/manuscript_Mpro/naturecomm/supplementary_file_S2/6-chemical-library/molecular_docking/3D_ligand_structure/217.pdb
REMARK  0 active torsions:
REMARK  status: ('A' for Active; 'I' for Inactive)
REMARK                            x       y       z     vdW  Elec       q    Type
REMARK                         _______ _______ _______ _____ _____    ______ ____
ROOT
ATOM      1  N1  UNL     1     -28.311  -4.850 -26.702  0.00  0.00    +0.000 NA
ATOM      2  N2  UNL     1     -28.082  -5.725 -25.656  0.00  0.00    +0.000 NA
ATOM      3  C1  UNL     1     -26.780  -5.818 -25.488  0.00  0.00    +0.000 A 
ATOM      4  N3  UNL     1     -26.140  -5.027 -26.394  0.00  0.00    +0.000 N 
ATOM      5  C2  UNL     1     -27.137  -4.441 -27.131  0.00  0.00    +0.000 A 
ATOM      6  C3  UNL     1     -24.798  -4.775 -26.631  0.00  0.00    +0.000 A 
ATOM      7  C4  UNL     1     -24.463  -3.927 -27.617  0.00  0.00    +0.000 A 
ATOM      8  N4  UNL     1     -25.448  -3.324 -28.375  0.00  0.00    +0.000 N 
ATOM      9  C5  UNL     1     -26.820  -3.525 -28.200  0.00  0.00    +0.000 A 
ATOM     10  O1  UNL     1     -27.623  -2.943 -28.924  0.00  0.00    +0.000 OA
ATOM     11  H4  UNL     1     -25.202  -2.683 -29.122  0.00  0.00    +0.000 HD
ENDROOT
TORSDOF 0
ENDMDL
MODEL 4
REMARK VINA RESULT:    -3.650      1.648      2.454
REMARK INTER + INTRA:          -3.650
REMARK INTER:                  -3.650
REMARK INTRA:                   0.000
REMARK UNBOUND:                 0.000
REMARK  Name = /home/anacleto/Desktop/manuscript_Mpro/naturecomm/supplementary_file_S2/6-chemical-library/molecular_docking/3D_ligand_structure/217.pdb
REMARK  0 active torsions:
REMARK  status: ('A' for Active; 'I' for Inactive)
REMARK                            x       y       z     vdW  Elec       q    Type
REMARK                         _______ _______ _______ _____ _____    ______ ____
ROOT
ATOM      1  N1  UNL     1     -25.064  -3.701 -27.996  0.00  0.00    +0.000 NA
ATOM      2  N2  UNL     1     -24.095  -4.321 -27.229  0.00  0.00    +0.000 NA
ATOM      3  C1  UNL     1     -24.704  -5.120 -26.379  0.00  0.00    +0.000 A 
ATOM      4  N3  UNL     1     -26.053  -5.046 -26.562  0.00  0.00    +0.000 N 
ATOM      5  C2  UNL     1     -26.230  -4.148 -27.583  0.00  0.00    +0.000 A 
ATOM      6  C3  UNL     1     -27.117  -5.676 -25.935  0.00  0.00    +0.000 A 
ATOM      7  C4  UNL     1     -28.365  -5.395 -26.342  0.00  0.00    +0.000 A 
ATOM      8  N4  UNL     1     -28.572  -4.493 -27.368  0.00  0.00    +0.000 N 
ATOM      9  C5  UNL     1     -27.555  -3.818 -28.050  0.00  0.00    +0.000 A 
ATOM     10  O1  UNL     1     -27.837  -3.032 -28.951  0.00  0.00    +0.000 OA
ATOM     11  H4  UNL     1     -29.513  -4.276 -27.681  0.00  0.00    +0.000 HD
ENDROOT
TORSDOF 0
ENDMDL
MODEL 5
REMARK VINA RESULT:    -3.630      1.837      2.813
REMARK INTER + INTRA:          -3.630
REMARK INTER:                  -3.630
REMARK INTRA:                   0.000
REMARK UNBOUND:                 0.000
REMARK  Name = /home/anacleto/Desktop/manuscript_Mpro/naturecomm/supplementary_file_S2/6-chemical-library/molecular_docking/3D_ligand_structure/217.pdb
REMARK  0 active torsions:
REMARK  status: ('A' for Active; 'I' for Inactive)
REMARK                            x       y       z     vdW  Elec       q    Type
REMARK                         _______ _______ _______ _____ _____    ______ ____
ROOT
ATOM      1  N1  UNL     1     -26.796  -5.602 -25.212  0.00  0.00    +0.000 NA
ATOM      2  N2  UNL     1     -28.089  -6.090 -25.251  0.00  0.00    +0.000 NA
ATOM      3  C1  UNL     1     -28.678  -5.585 -26.314  0.00  0.00    +0.000 A 
ATOM      4  N3  UNL     1     -27.809  -4.774 -26.981  0.00  0.00    +0.000 N 
ATOM      5  C2  UNL     1     -26.646  -4.816 -26.255  0.00  0.00    +0.000 A 
ATOM      6  C3  UNL     1     -27.934  -4.019 -28.137  0.00  0.00    +0.000 A 
ATOM      7  C4  UNL     1     -26.879  -3.304 -28.560  0.00  0.00    +0.000 A 
ATOM      8  N4  UNL     1     -25.696  -3.328 -27.847  0.00  0.00    +0.000 N 
ATOM      9  C5  UNL     1     -25.490  -4.061 -26.675  0.00  0.00    +0.000 A 
ATOM     10  O1  UNL     1     -24.400  -4.020 -26.109  0.00  0.00    +0.000 OA
ATOM     11  H4  UNL     1     -24.895  -2.789 -28.161  0.00  0.00    +0.000 HD
ENDROOT
TORSDOF 0
ENDMDL
MODEL 6
REMARK VINA RESULT:    -3.542     13.774     14.989
REMARK INTER + INTRA:          -3.542
REMARK INTER:                  -3.542
REMARK INTRA:                   0.000
REMARK UNBOUND:                 0.000
REMARK  Name = /home/anacleto/Desktop/manuscript_Mpro/naturecomm/supplementary_file_S2/6-chemical-library/molecular_docking/3D_ligand_structure/217.pdb
REMARK  0 active torsions:
REMARK  status: ('A' for Active; 'I' for Inactive)
REMARK                            x       y       z     vdW  Elec       q    Type
REMARK                         _______ _______ _______ _____ _____    ______ ____
ROOT
ATOM      1  N1  UNL     1     -26.990   5.989 -39.231  0.00  0.00    +0.000 NA
ATOM      2  N2  UNL     1     -25.616   6.136 -39.280  0.00  0.00    +0.000 NA
ATOM      3  C1  UNL     1     -25.076   4.987 -38.935  0.00  0.00    +0.000 A 
ATOM      4  N3  UNL     1     -26.056   4.081 -38.657  0.00  0.00    +0.000 N 
ATOM      5  C2  UNL     1     -27.235   4.752 -38.856  0.00  0.00    +0.000 A 
ATOM      6  C3  UNL     1     -26.016   2.755 -38.256  0.00  0.00    +0.000 A 
ATOM      7  C4  UNL     1     -27.175   2.105 -38.055  0.00  0.00    +0.000 A 
ATOM      8  N4  UNL     1     -28.377   2.758 -38.248  0.00  0.00    +0.000 N 
ATOM      9  C5  UNL     1     -28.501   4.091 -38.651  0.00  0.00    +0.000 A 
ATOM     10  O1  UNL     1     -29.615   4.586 -38.797  0.00  0.00    +0.000 OA
ATOM     11  H4  UNL     1     -29.256   2.273 -38.098  0.00  0.00    +0.000 HD
ENDROOT
TORSDOF 0
ENDMDL
MODEL 7
REMARK VINA RESULT:    -3.487     13.931     14.985
REMARK INTER + INTRA:          -3.487
REMARK INTER:                  -3.487
REMARK INTRA:                   0.000
REMARK UNBOUND:                 0.000
REMARK  Name = /home/anacleto/Desktop/manuscript_Mpro/naturecomm/supplementary_file_S2/6-chemical-library/molecular_docking/3D_ligand_structure/217.pdb
REMARK  0 active torsions:
REMARK  status: ('A' for Active; 'I' for Inactive)
REMARK                            x       y       z     vdW  Elec       q    Type
REMARK                         _______ _______ _______ _____ _____    ______ ____
ROOT
ATOM      1  N1  UNL     1     -25.111   4.123 -38.639  0.00  0.00    +0.000 NA
ATOM      2  N2  UNL     1     -24.745   5.363 -39.128  0.00  0.00    +0.000 NA
ATOM      3  C1  UNL     1     -25.846   6.029 -39.402  0.00  0.00    +0.000 A 
ATOM      4  N3  UNL     1     -26.934   5.263 -39.106  0.00  0.00    +0.000 N 
ATOM      5  C2  UNL     1     -26.425   4.081 -38.632  0.00  0.00    +0.000 A 
ATOM      6  C3  UNL     1     -28.296   5.495 -39.210  0.00  0.00    +0.000 A 
ATOM      7  C4  UNL     1     -29.148   4.528 -38.832  0.00  0.00    +0.000 A 
ATOM      8  N4  UNL     1     -28.662   3.327 -38.352  0.00  0.00    +0.000 N 
ATOM      9  C5  UNL     1     -27.306   3.016 -38.217  0.00  0.00    +0.000 A 
ATOM     10  O1  UNL     1     -26.968   1.919 -37.780  0.00  0.00    +0.000 OA
ATOM     11  H4  UNL     1     -29.300   2.591 -38.065  0.00  0.00    +0.000 HD
ENDROOT
TORSDOF 0
ENDMDL
MODEL 8
REMARK VINA RESULT:    -3.482     13.786     15.219
REMARK INTER + INTRA:          -3.482
REMARK INTER:                  -3.482
REMARK INTRA:                   0.000
REMARK UNBOUND:                 0.000
REMARK  Name = /home/anacleto/Desktop/manuscript_Mpro/naturecomm/supplementary_file_S2/6-chemical-library/molecular_docking/3D_ligand_structure/217.pdb
REMARK  0 active torsions:
REMARK  status: ('A' for Active; 'I' for Inactive)
REMARK                            x       y       z     vdW  Elec       q    Type
REMARK                         _______ _______ _______ _____ _____    ______ ____
ROOT
ATOM      1  N1  UNL     1     -27.226   5.848 -39.433  0.00  0.00    +0.000 NA
ATOM      2  N2  UNL     1     -28.596   5.779 -39.610  0.00  0.00    +0.000 NA
ATOM      3  C1  UNL     1     -28.999   4.604 -39.177  0.00  0.00    +0.000 A 
ATOM      4  N3  UNL     1     -27.933   3.891 -38.716  0.00  0.00    +0.000 N 
ATOM      5  C2  UNL     1     -26.846   4.709 -38.897  0.00  0.00    +0.000 A 
ATOM      6  C3  UNL     1     -27.823   2.624 -38.167  0.00  0.00    +0.000 A 
ATOM      7  C4  UNL     1     -26.610   2.181 -37.799  0.00  0.00    +0.000 A 
ATOM      8  N4  UNL     1     -25.499   2.985 -37.969  0.00  0.00    +0.000 N 
ATOM      9  C5  UNL     1     -25.525   4.272 -38.515  0.00  0.00    +0.000 A 
ATOM     10  O1  UNL     1     -24.484   4.912 -38.628  0.00  0.00    +0.000 OA
ATOM     11  H4  UNL     1     -24.579   2.657 -37.694  0.00  0.00    +0.000 HD
ENDROOT
TORSDOF 0
ENDMDL
MODEL 9
REMARK VINA RESULT:    -3.391      1.837      3.306
REMARK INTER + INTRA:          -3.391
REMARK INTER:                  -3.391
REMARK INTRA:                   0.000
REMARK UNBOUND:                 0.000
REMARK  Name = /home/anacleto/Desktop/manuscript_Mpro/naturecomm/supplementary_file_S2/6-chemical-library/molecular_docking/3D_ligand_structure/217.pdb
REMARK  0 active torsions:
REMARK  status: ('A' for Active; 'I' for Inactive)
REMARK                            x       y       z     vdW  Elec       q    Type
REMARK                         _______ _______ _______ _____ _____    ______ ____
ROOT
ATOM      1  N1  UNL     1     -25.794  -3.676 -27.609  0.00  0.00    +0.000 NA
ATOM      2  N2  UNL     1     -26.721  -3.295 -28.562  0.00  0.00    +0.000 NA
ATOM      3  C1  UNL     1     -27.870  -3.858 -28.253  0.00  0.00    +0.000 A 
ATOM      4  N3  UNL     1     -27.729  -4.603 -27.120  0.00  0.00    +0.000 N 
ATOM      5  C2  UNL     1     -26.416  -4.458 -26.753  0.00  0.00    +0.000 A 
ATOM      6  C3  UNL     1     -28.620  -5.377 -26.394  0.00  0.00    +0.000 A 
ATOM      7  C4  UNL     1     -28.181  -6.008 -25.293  0.00  0.00    +0.000 A 
ATOM      8  N4  UNL     1     -26.863  -5.880 -24.902  0.00  0.00    +0.000 N 
ATOM      9  C5  UNL     1     -25.904  -5.120 -25.578  0.00  0.00    +0.000 A 
ATOM     10  O1  UNL     1     -24.753  -5.065 -25.153  0.00  0.00    +0.000 OA
ATOM     11  H4  UNL     1     -26.524  -6.354 -24.071  0.00  0.00    +0.000 HD
ENDROOT
TORSDOF 0
ENDMDL
