MODEL 1
REMARK VINA RESULT:    -4.885      0.000      0.000
REMARK INTER + INTRA:          -6.471
REMARK INTER:                  -6.271
REMARK INTRA:                  -0.200
REMARK UNBOUND:                -0.444
REMARK  Name = /home/anacleto/Desktop/manuscript_Mpro/naturecomm/supplementary_file_S2/6-chemical-library/molecular_docking/3D_ligand_structure/854.pdb
REMARK  4 active torsions:
REMARK  status: ('A' for Active; 'I' for Inactive)
REMARK    1  A    between atoms: C5_6  and  C6_7
REMARK    2  A    between atoms: C6_7  and  N2_8
REMARK    3  A    between atoms: N2_8  and  C7_9
REMARK    4  A    between atoms: C7_9  and  C8_10
REMARK                            x       y       z     vdW  Elec       q    Type
REMARK                         _______ _______ _______ _____ _____    ______ ____
ROOT
ATOM      1  N2  UNL     1     -23.795   5.380 -37.845  0.00  0.00    +0.000 NA
ATOM      2  H7  UNL     1     -23.621   4.541 -37.291  0.00  0.00    +0.000 HD
ENDROOT
BRANCH   1   3
ATOM      3  C6  UNL     1     -24.466   4.986 -39.083  0.00  0.00    +0.000 C 
BRANCH   3   9
ATOM      4  C1  UNL     1     -26.973   4.772 -38.972  0.00  0.00    +0.000 A 
ATOM      5  N1  UNL     1     -28.141   4.133 -38.725  0.00  0.00    +0.000 NA
ATOM      6  C2  UNL     1     -28.052   2.871 -38.256  0.00  0.00    +0.000 A 
ATOM      7  C3  UNL     1     -26.853   2.218 -38.023  0.00  0.00    +0.000 A 
ATOM      8  C4  UNL     1     -25.668   2.898 -38.290  0.00  0.00    +0.000 A 
ATOM      9  C5  UNL     1     -25.716   4.204 -38.785  0.00  0.00    +0.000 A 
ENDBRANCH   3   9
ENDBRANCH   1   3
BRANCH   1  10
ATOM     10  C7  UNL     1     -22.520   6.053 -38.093  0.00  0.00    +0.000 C 
BRANCH  10  11
ATOM     11  C8  UNL     1     -22.524   7.511 -37.724  0.00  0.00    +0.000 A 
ATOM     12  C9  UNL     1     -21.363   8.166 -37.305  0.00  0.00    +0.000 A 
ATOM     13  C10 UNL     1     -21.417   9.513 -36.959  0.00  0.00    +0.000 A 
ATOM     14  C11 UNL     1     -22.637  10.165 -37.039  0.00  0.00    +0.000 A 
ATOM     15  N3  UNL     1     -23.780   9.568 -37.434  0.00  0.00    +0.000 NA
ATOM     16  C12 UNL     1     -23.698   8.259 -37.769  0.00  0.00    +0.000 A 
ENDBRANCH  10  11
ENDBRANCH   1  10
TORSDOF 4
ENDMDL
MODEL 2
REMARK VINA RESULT:    -4.873      0.093      6.537
REMARK INTER + INTRA:          -6.457
REMARK INTER:                  -6.260
REMARK INTRA:                  -0.197
REMARK UNBOUND:                -0.444
REMARK  Name = /home/anacleto/Desktop/manuscript_Mpro/naturecomm/supplementary_file_S2/6-chemical-library/molecular_docking/3D_ligand_structure/854.pdb
REMARK  4 active torsions:
REMARK  status: ('A' for Active; 'I' for Inactive)
REMARK    1  A    between atoms: C5_6  and  C6_7
REMARK    2  A    between atoms: C6_7  and  N2_8
REMARK    3  A    between atoms: N2_8  and  C7_9
REMARK    4  A    between atoms: C7_9  and  C8_10
REMARK                            x       y       z     vdW  Elec       q    Type
REMARK                         _______ _______ _______ _____ _____    ______ ____
ROOT
ATOM      1  N2  UNL     1     -23.731   5.468 -37.887  0.00  0.00    +0.000 NA
ATOM      2  H7  UNL     1     -24.319   6.153 -37.411  0.00  0.00    +0.000 HD
ENDROOT
BRANCH   1   3
ATOM      3  C6  UNL     1     -22.452   6.102 -38.209  0.00  0.00    +0.000 C 
BRANCH   3   9
ATOM      4  C1  UNL     1     -23.618   8.284 -37.740  0.00  0.00    +0.000 A 
ATOM      5  N1  UNL     1     -23.689   9.580 -37.353  0.00  0.00    +0.000 NA
ATOM      6  C2  UNL     1     -22.531  10.165 -36.984  0.00  0.00    +0.000 A 
ATOM      7  C3  UNL     1     -21.306   9.517 -36.983  0.00  0.00    +0.000 A 
ATOM      8  C4  UNL     1     -21.264   8.184 -37.381  0.00  0.00    +0.000 A 
ATOM      9  C5  UNL     1     -22.443   7.538 -37.763  0.00  0.00    +0.000 A 
ENDBRANCH   3   9
ENDBRANCH   1   3
BRANCH   1  10
ATOM     10  C7  UNL     1     -24.433   4.993 -39.079  0.00  0.00    +0.000 C 
BRANCH  10  11
ATOM     11  C8  UNL     1     -25.675   4.203 -38.774  0.00  0.00    +0.000 A 
ATOM     12  C9  UNL     1     -25.613   2.893 -38.289  0.00  0.00    +0.000 A 
ATOM     13  C10 UNL     1     -26.790   2.195 -38.034  0.00  0.00    +0.000 A 
ATOM     14  C11 UNL     1     -27.997   2.829 -38.276  0.00  0.00    +0.000 A 
ATOM     15  N3  UNL     1     -28.100   4.089 -38.747  0.00  0.00    +0.000 NA
ATOM     16  C12 UNL     1     -26.940   4.747 -38.982  0.00  0.00    +0.000 A 
ENDBRANCH  10  11
ENDBRANCH   1  10
TORSDOF 4
ENDMDL
MODEL 3
REMARK VINA RESULT:    -4.528      1.226      6.693
REMARK INTER + INTRA:          -6.031
REMARK INTER:                  -5.790
REMARK INTRA:                  -0.241
REMARK UNBOUND:                -0.444
REMARK  Name = /home/anacleto/Desktop/manuscript_Mpro/naturecomm/supplementary_file_S2/6-chemical-library/molecular_docking/3D_ligand_structure/854.pdb
REMARK  4 active torsions:
REMARK  status: ('A' for Active; 'I' for Inactive)
REMARK    1  A    between atoms: C5_6  and  C6_7
REMARK    2  A    between atoms: C6_7  and  N2_8
REMARK    3  A    between atoms: N2_8  and  C7_9
REMARK    4  A    between atoms: C7_9  and  C8_10
REMARK                            x       y       z     vdW  Elec       q    Type
REMARK                         _______ _______ _______ _____ _____    ______ ____
ROOT
ATOM      1  N2  UNL     1     -24.140   6.178 -38.818  0.00  0.00    +0.000 NA
ATOM      2  H7  UNL     1     -23.860   6.928 -39.451  0.00  0.00    +0.000 HD
ENDROOT
BRANCH   1   3
ATOM      3  C6  UNL     1     -23.032   5.911 -37.901  0.00  0.00    +0.000 C 
BRANCH   3   9
ATOM      4  C1  UNL     1     -22.147   8.238 -37.522  0.00  0.00    +0.000 A 
ATOM      5  N1  UNL     1     -21.233   9.233 -37.608  0.00  0.00    +0.000 NA
ATOM      6  C2  UNL     1     -20.083   8.944 -38.253  0.00  0.00    +0.000 A 
ATOM      7  C3  UNL     1     -19.805   7.709 -38.815  0.00  0.00    +0.000 A 
ATOM      8  C4  UNL     1     -20.762   6.704 -38.707  0.00  0.00    +0.000 A 
ATOM      9  C5  UNL     1     -21.963   6.959 -38.039  0.00  0.00    +0.000 A 
ENDBRANCH   3   9
ENDBRANCH   1   3
BRANCH   1  10
ATOM     10  C7  UNL     1     -24.501   5.003 -39.612  0.00  0.00    +0.000 C 
BRANCH  10  11
ATOM     11  C8  UNL     1     -25.705   4.269 -39.090  0.00  0.00    +0.000 A 
ATOM     12  C9  UNL     1     -25.610   2.971 -38.581  0.00  0.00    +0.000 A 
ATOM     13  C10 UNL     1     -26.755   2.324 -38.122  0.00  0.00    +0.000 A 
ATOM     14  C11 UNL     1     -27.964   2.998 -38.192  0.00  0.00    +0.000 A 
ATOM     15  N3  UNL     1     -28.098   4.248 -38.681  0.00  0.00    +0.000 NA
ATOM     16  C12 UNL     1     -26.969   4.855 -39.115  0.00  0.00    +0.000 A 
ENDBRANCH  10  11
ENDBRANCH   1  10
TORSDOF 4
ENDMDL
MODEL 4
REMARK VINA RESULT:    -4.333      1.743      2.282
REMARK INTER + INTRA:          -5.791
REMARK INTER:                  -5.541
REMARK INTRA:                  -0.249
REMARK UNBOUND:                -0.444
REMARK  Name = /home/anacleto/Desktop/manuscript_Mpro/naturecomm/supplementary_file_S2/6-chemical-library/molecular_docking/3D_ligand_structure/854.pdb
REMARK  4 active torsions:
REMARK  status: ('A' for Active; 'I' for Inactive)
REMARK    1  A    between atoms: C5_6  and  C6_7
REMARK    2  A    between atoms: C6_7  and  N2_8
REMARK    3  A    between atoms: N2_8  and  C7_9
REMARK    4  A    between atoms: C7_9  and  C8_10
REMARK                            x       y       z     vdW  Elec       q    Type
REMARK                         _______ _______ _______ _____ _____    ______ ____
ROOT
ATOM      1  N2  UNL     1     -24.095   6.272 -38.489  0.00  0.00    +0.000 NA
ATOM      2  H7  UNL     1     -24.799   6.280 -37.752  0.00  0.00    +0.000 HD
ENDROOT
BRANCH   1   3
ATOM      3  C6  UNL     1     -24.543   5.366 -39.546  0.00  0.00    +0.000 C 
BRANCH   3   9
ATOM      4  C1  UNL     1     -25.455   3.199 -38.642  0.00  0.00    +0.000 A 
ATOM      5  N1  UNL     1     -26.425   2.366 -38.197  0.00  0.00    +0.000 NA
ATOM      6  C2  UNL     1     -27.683   2.856 -38.182  0.00  0.00    +0.000 A 
ATOM      7  C3  UNL     1     -28.016   4.136 -38.592  0.00  0.00    +0.000 A 
ATOM      8  C4  UNL     1     -26.997   4.972 -39.041  0.00  0.00    +0.000 A 
ATOM      9  C5  UNL     1     -25.679   4.507 -39.064  0.00  0.00    +0.000 A 
ENDBRANCH   3   9
ENDBRANCH   1   3
BRANCH   1  10
ATOM     10  C7  UNL     1     -22.814   5.863 -37.912  0.00  0.00    +0.000 C 
BRANCH  10  11
ATOM     11  C8  UNL     1     -21.717   6.875 -38.097  0.00  0.00    +0.000 A 
ATOM     12  C9  UNL     1     -21.679   8.060 -37.357  0.00  0.00    +0.000 A 
ATOM     13  C10 UNL     1     -20.652   8.976 -37.572  0.00  0.00    +0.000 A 
ATOM     14  C11 UNL     1     -19.695   8.678 -38.529  0.00  0.00    +0.000 A 
ATOM     15  N3  UNL     1     -19.700   7.549 -39.267  0.00  0.00    +0.000 NA
ATOM     16  C12 UNL     1     -20.706   6.674 -39.034  0.00  0.00    +0.000 A 
ENDBRANCH  10  11
ENDBRANCH   1  10
TORSDOF 4
ENDMDL
MODEL 5
REMARK VINA RESULT:    -4.151     17.291     19.100
REMARK INTER + INTRA:          -5.565
REMARK INTER:                  -5.121
REMARK INTRA:                  -0.444
REMARK UNBOUND:                -0.444
REMARK  Name = /home/anacleto/Desktop/manuscript_Mpro/naturecomm/supplementary_file_S2/6-chemical-library/molecular_docking/3D_ligand_structure/854.pdb
REMARK  4 active torsions:
REMARK  status: ('A' for Active; 'I' for Inactive)
REMARK    1  A    between atoms: C5_6  and  C6_7
REMARK    2  A    between atoms: C6_7  and  N2_8
REMARK    3  A    between atoms: N2_8  and  C7_9
REMARK    4  A    between atoms: C7_9  and  C8_10
REMARK                            x       y       z     vdW  Elec       q    Type
REMARK                         _______ _______ _______ _____ _____    ______ ____
ROOT
ATOM      1  N2  UNL     1     -38.583  -3.026 -26.539  0.00  0.00    +0.000 NA
ATOM      2  H7  UNL     1     -38.569  -4.022 -26.322  0.00  0.00    +0.000 HD
ENDROOT
BRANCH   1   3
ATOM      3  C6  UNL     1     -38.170  -2.850 -27.931  0.00  0.00    +0.000 C 
BRANCH   3   9
ATOM      4  C1  UNL     1     -39.662  -0.904 -28.500  0.00  0.00    +0.000 A 
ATOM      5  N1  UNL     1     -39.930   0.364 -28.893  0.00  0.00    +0.000 NA
ATOM      6  C2  UNL     1     -38.868   1.144 -29.185  0.00  0.00    +0.000 A 
ATOM      7  C3  UNL     1     -37.553   0.717 -29.103  0.00  0.00    +0.000 A 
ATOM      8  C4  UNL     1     -37.307  -0.590 -28.693  0.00  0.00    +0.000 A 
ATOM      9  C5  UNL     1     -38.379  -1.428 -28.373  0.00  0.00    +0.000 A 
ENDBRANCH   3   9
ENDBRANCH   1   3
BRANCH   1  10
ATOM     10  C7  UNL     1     -37.700  -2.329 -25.604  0.00  0.00    +0.000 C 
BRANCH  10  11
ATOM     11  C8  UNL     1     -36.327  -2.935 -25.504  0.00  0.00    +0.000 A 
ATOM     12  C9  UNL     1     -36.138  -4.261 -25.106  0.00  0.00    +0.000 A 
ATOM     13  C10 UNL     1     -34.847  -4.776 -25.014  0.00  0.00    +0.000 A 
ATOM     14  C11 UNL     1     -33.783  -3.943 -25.319  0.00  0.00    +0.000 A 
ATOM     15  N3  UNL     1     -33.924  -2.658 -25.702  0.00  0.00    +0.000 NA
ATOM     16  C12 UNL     1     -35.189  -2.184 -25.788  0.00  0.00    +0.000 A 
ENDBRANCH  10  11
ENDBRANCH   1  10
TORSDOF 4
ENDMDL
MODEL 6
REMARK VINA RESULT:    -4.133      6.636     10.695
REMARK INTER + INTRA:          -5.543
REMARK INTER:                  -5.309
REMARK INTRA:                  -0.235
REMARK UNBOUND:                -0.444
REMARK  Name = /home/anacleto/Desktop/manuscript_Mpro/naturecomm/supplementary_file_S2/6-chemical-library/molecular_docking/3D_ligand_structure/854.pdb
REMARK  4 active torsions:
REMARK  status: ('A' for Active; 'I' for Inactive)
REMARK    1  A    between atoms: C5_6  and  C6_7
REMARK    2  A    between atoms: C6_7  and  N2_8
REMARK    3  A    between atoms: N2_8  and  C7_9
REMARK    4  A    between atoms: C7_9  and  C8_10
REMARK                            x       y       z     vdW  Elec       q    Type
REMARK                         _______ _______ _______ _____ _____    ______ ____
ROOT
ATOM      1  N2  UNL     1     -16.570   9.228 -39.138  0.00  0.00    +0.000 NA
ATOM      2  H7  UNL     1     -16.758   9.181 -38.136  0.00  0.00    +0.000 HD
ENDROOT
BRANCH   1   3
ATOM      3  C6  UNL     1     -16.077  10.568 -39.453  0.00  0.00    +0.000 C 
BRANCH   3   9
ATOM      4  C1  UNL     1     -13.945  11.685 -40.193  0.00  0.00    +0.000 A 
ATOM      5  N1  UNL     1     -12.632  11.729 -40.523  0.00  0.00    +0.000 NA
ATOM      6  C2  UNL     1     -11.957  10.561 -40.473  0.00  0.00    +0.000 A 
ATOM      7  C3  UNL     1     -12.531   9.354 -40.110  0.00  0.00    +0.000 A 
ATOM      8  C4  UNL     1     -13.881   9.340 -39.772  0.00  0.00    +0.000 A 
ATOM      9  C5  UNL     1     -14.615  10.529 -39.802  0.00  0.00    +0.000 A 
ENDBRANCH   3   9
ENDBRANCH   1   3
BRANCH   1  10
ATOM     10  C7  UNL     1     -17.798   8.901 -39.863  0.00  0.00    +0.000 C 
BRANCH  10  11
ATOM     11  C8  UNL     1     -19.012   8.804 -38.981  0.00  0.00    +0.000 A 
ATOM     12  C9  UNL     1     -19.685   7.594 -38.788  0.00  0.00    +0.000 A 
ATOM     13  C10 UNL     1     -20.814   7.555 -37.974  0.00  0.00    +0.000 A 
ATOM     14  C11 UNL     1     -21.238   8.732 -37.380  0.00  0.00    +0.000 A 
ATOM     15  N3  UNL     1     -20.620   9.920 -37.545  0.00  0.00    +0.000 NA
ATOM     16  C12 UNL     1     -19.522   9.928 -38.337  0.00  0.00    +0.000 A 
ENDBRANCH  10  11
ENDBRANCH   1  10
TORSDOF 4
ENDMDL
MODEL 7
REMARK VINA RESULT:    -4.109      1.680      2.390
REMARK INTER + INTRA:          -5.514
REMARK INTER:                  -5.111
REMARK INTRA:                  -0.403
REMARK UNBOUND:                -0.444
REMARK  Name = /home/anacleto/Desktop/manuscript_Mpro/naturecomm/supplementary_file_S2/6-chemical-library/molecular_docking/3D_ligand_structure/854.pdb
REMARK  4 active torsions:
REMARK  status: ('A' for Active; 'I' for Inactive)
REMARK    1  A    between atoms: C5_6  and  C6_7
REMARK    2  A    between atoms: C6_7  and  N2_8
REMARK    3  A    between atoms: N2_8  and  C7_9
REMARK    4  A    between atoms: C7_9  and  C8_10
REMARK                            x       y       z     vdW  Elec       q    Type
REMARK                         _______ _______ _______ _____ _____    ______ ____
ROOT
ATOM      1  N2  UNL     1     -25.904   6.565 -39.625  0.00  0.00    +0.000 NA
ATOM      2  H7  UNL     1     -25.904   6.862 -40.601  0.00  0.00    +0.000 HD
ENDROOT
BRANCH   1   3
ATOM      3  C6  UNL     1     -27.277   6.236 -39.243  0.00  0.00    +0.000 C 
BRANCH   3   9
ATOM      4  C1  UNL     1     -28.440   4.091 -39.867  0.00  0.00    +0.000 A 
ATOM      5  N1  UNL     1     -28.662   2.756 -39.819  0.00  0.00    +0.000 NA
ATOM      6  C2  UNL     1     -27.874   2.041 -38.989  0.00  0.00    +0.000 A 
ATOM      7  C3  UNL     1     -26.876   2.596 -38.206  0.00  0.00    +0.000 A 
ATOM      8  C4  UNL     1     -26.667   3.971 -38.279  0.00  0.00    +0.000 A 
ATOM      9  C5  UNL     1     -27.456   4.747 -39.132  0.00  0.00    +0.000 A 
ENDBRANCH   3   9
ENDBRANCH   1   3
BRANCH   1  10
ATOM     10  C7  UNL     1     -25.340   7.638 -38.806  0.00  0.00    +0.000 C 
BRANCH  10  11
ATOM     11  C8  UNL     1     -23.873   7.473 -38.522  0.00  0.00    +0.000 A 
ATOM     12  C9  UNL     1     -23.321   6.228 -38.208  0.00  0.00    +0.000 A 
ATOM     13  C10 UNL     1     -21.958   6.125 -37.938  0.00  0.00    +0.000 A 
ATOM     14  C11 UNL     1     -21.190   7.276 -37.986  0.00  0.00    +0.000 A 
ATOM     15  N3  UNL     1     -21.684   8.496 -38.280  0.00  0.00    +0.000 NA
ATOM     16  C12 UNL     1     -23.011   8.567 -38.543  0.00  0.00    +0.000 A 
ENDBRANCH  10  11
ENDBRANCH   1  10
TORSDOF 4
ENDMDL
MODEL 8
REMARK VINA RESULT:    -4.103     14.179     14.977
REMARK INTER + INTRA:          -5.507
REMARK INTER:                  -5.288
REMARK INTRA:                  -0.219
REMARK UNBOUND:                -0.444
REMARK  Name = /home/anacleto/Desktop/manuscript_Mpro/naturecomm/supplementary_file_S2/6-chemical-library/molecular_docking/3D_ligand_structure/854.pdb
REMARK  4 active torsions:
REMARK  status: ('A' for Active; 'I' for Inactive)
REMARK    1  A    between atoms: C5_6  and  C6_7
REMARK    2  A    between atoms: C6_7  and  N2_8
REMARK    3  A    between atoms: N2_8  and  C7_9
REMARK    4  A    between atoms: C7_9  and  C8_10
REMARK                            x       y       z     vdW  Elec       q    Type
REMARK                         _______ _______ _______ _____ _____    ______ ____
ROOT
ATOM      1  N2  UNL     1     -37.459  10.537 -34.544  0.00  0.00    +0.000 NA
ATOM      2  H7  UNL     1     -36.886   9.787 -34.930  0.00  0.00    +0.000 HD
ENDROOT
BRANCH   1   3
ATOM      3  C6  UNL     1     -38.285  11.086 -35.619  0.00  0.00    +0.000 C 
BRANCH   3   9
ATOM      4  C1  UNL     1     -38.103  10.237 -37.983  0.00  0.00    +0.000 A 
ATOM      5  N1  UNL     1     -38.297   9.350 -38.987  0.00  0.00    +0.000 NA
ATOM      6  C2  UNL     1     -38.975   8.225 -38.677  0.00  0.00    +0.000 A 
ATOM      7  C3  UNL     1     -39.467   7.945 -37.413  0.00  0.00    +0.000 A 
ATOM      8  C4  UNL     1     -39.248   8.873 -36.399  0.00  0.00    +0.000 A 
ATOM      9  C5  UNL     1     -38.543  10.048 -36.676  0.00  0.00    +0.000 A 
ENDBRANCH   3   9
ENDBRANCH   1   3
BRANCH   1  10
ATOM     10  C7  UNL     1     -36.580  11.543 -33.948  0.00  0.00    +0.000 C 
BRANCH  10  11
ATOM     11  C8  UNL     1     -36.915  11.865 -32.518  0.00  0.00    +0.000 A 
ATOM     12  C9  UNL     1     -36.959  10.874 -31.532  0.00  0.00    +0.000 A 
ATOM     13  C10 UNL     1     -37.288  11.217 -30.223  0.00  0.00    +0.000 A 
ATOM     14  C11 UNL     1     -37.567  12.544 -29.941  0.00  0.00    +0.000 A 
ATOM     15  N3  UNL     1     -37.540  13.528 -30.863  0.00  0.00    +0.000 NA
ATOM     16  C12 UNL     1     -37.213  13.168 -32.127  0.00  0.00    +0.000 A 
ENDBRANCH  10  11
ENDBRANCH   1  10
TORSDOF 4
ENDMDL
MODEL 9
REMARK VINA RESULT:    -4.040      1.754      6.591
REMARK INTER + INTRA:          -5.429
REMARK INTER:                  -5.120
REMARK INTRA:                  -0.309
REMARK UNBOUND:                -0.444
REMARK  Name = /home/anacleto/Desktop/manuscript_Mpro/naturecomm/supplementary_file_S2/6-chemical-library/molecular_docking/3D_ligand_structure/854.pdb
REMARK  4 active torsions:
REMARK  status: ('A' for Active; 'I' for Inactive)
REMARK    1  A    between atoms: C5_6  and  C6_7
REMARK    2  A    between atoms: C6_7  and  N2_8
REMARK    3  A    between atoms: N2_8  and  C7_9
REMARK    4  A    between atoms: C7_9  and  C8_10
REMARK                            x       y       z     vdW  Elec       q    Type
REMARK                         _______ _______ _______ _____ _____    ______ ____
ROOT
ATOM      1  N2  UNL     1     -24.924   6.768 -39.049  0.00  0.00    +0.000 NA
ATOM      2  H7  UNL     1     -25.172   7.635 -38.571  0.00  0.00    +0.000 HD
ENDROOT
BRANCH   1   3
ATOM      3  C6  UNL     1     -23.956   7.081 -40.101  0.00  0.00    +0.000 C 
BRANCH   3   9
ATOM      4  C1  UNL     1     -22.059   8.727 -39.914  0.00  0.00    +0.000 A 
ATOM      5  N1  UNL     1     -20.888   9.200 -39.426  0.00  0.00    +0.000 NA
ATOM      6  C2  UNL     1     -20.271   8.443 -38.495  0.00  0.00    +0.000 A 
ATOM      7  C3  UNL     1     -20.768   7.237 -38.029  0.00  0.00    +0.000 A 
ATOM      8  C4  UNL     1     -21.976   6.777 -38.545  0.00  0.00    +0.000 A 
ATOM      9  C5  UNL     1     -22.652   7.535 -39.505  0.00  0.00    +0.000 A 
ENDBRANCH   3   9
ENDBRANCH   1   3
BRANCH   1  10
ATOM     10  C7  UNL     1     -26.144   6.158 -39.579  0.00  0.00    +0.000 C 
BRANCH  10  11
ATOM     11  C8  UNL     1     -26.436   4.798 -39.006  0.00  0.00    +0.000 A 
ATOM     12  C9  UNL     1     -25.420   3.869 -38.767  0.00  0.00    +0.000 A 
ATOM     13  C10 UNL     1     -25.738   2.616 -38.250  0.00  0.00    +0.000 A 
ATOM     14  C11 UNL     1     -27.069   2.330 -37.991  0.00  0.00    +0.000 A 
ATOM     15  N3  UNL     1     -28.078   3.197 -38.212  0.00  0.00    +0.000 NA
ATOM     16  C12 UNL     1     -27.740   4.409 -38.711  0.00  0.00    +0.000 A 
ENDBRANCH  10  11
ENDBRANCH   1  10
TORSDOF 4
ENDMDL
