MODEL 1
REMARK VINA RESULT:    -4.418      0.000      0.000
REMARK INTER + INTRA:          -5.126
REMARK INTER:                  -4.938
REMARK INTRA:                  -0.188
REMARK UNBOUND:                -0.191
REMARK  Name = /home/anacleto/Desktop/manuscript_Mpro/naturecomm/supplementary_file_S2/6-chemical-library/molecular_docking/3D_ligand_structure/875.pdb
REMARK  2 active torsions:
REMARK  status: ('A' for Active; 'I' for Inactive)
REMARK    1  A    between atoms: C3_5  and  S1_6
REMARK    2  A    between atoms: S1_6  and  C4_9
REMARK                            x       y       z     vdW  Elec       q    Type
REMARK                         _______ _______ _______ _____ _____    ______ ____
ROOT
ATOM      1  S1  UNL     1      16.104  12.336  -3.160  0.00  0.00    +0.000 S 
ATOM      2  O2  UNL     1      17.452  12.747  -3.506  0.00  0.00    +0.000 OA
ATOM      3  O3  UNL     1      15.847  11.368  -2.111  0.00  0.00    +0.000 OA
ENDROOT
BRANCH   1   4
ATOM      4  C4  UNL     1      15.254  11.841  -4.628  0.00  0.00    +0.000 A 
ATOM      5  C5  UNL     1      15.601  12.413  -5.856  0.00  0.00    +0.000 A 
ATOM      6  C6  UNL     1      14.906  12.043  -7.007  0.00  0.00    +0.000 A 
ATOM      7  C7  UNL     1      13.866  11.115  -6.929  0.00  0.00    +0.000 A 
ATOM      8  C8  UNL     1      13.513  10.557  -5.699  0.00  0.00    +0.000 A 
ATOM      9  C9  UNL     1      14.203  10.922  -4.542  0.00  0.00    +0.000 A 
ENDBRANCH   1   4
BRANCH   1  14
ATOM     10  N1  UNL     1      14.185  14.326  -3.139  0.00  0.00    +0.000 NA
ATOM     11  C1  UNL     1      14.003  15.399  -2.403  0.00  0.00    +0.000 A 
ATOM     12  O1  UNL     1      14.938  15.607  -1.433  0.00  0.00    +0.000 OA
ATOM     13  C2  UNL     1      15.796  14.558  -1.575  0.00  0.00    +0.000 A 
ATOM     14  C3  UNL     1      15.341  13.778  -2.610  0.00  0.00    +0.000 A 
ENDBRANCH   1  14
TORSDOF 2
ENDMDL
MODEL 2
REMARK VINA RESULT:    -4.385      2.099      2.709
REMARK INTER + INTRA:          -5.089
REMARK INTER:                  -4.891
REMARK INTRA:                  -0.198
REMARK UNBOUND:                -0.191
REMARK  Name = /home/anacleto/Desktop/manuscript_Mpro/naturecomm/supplementary_file_S2/6-chemical-library/molecular_docking/3D_ligand_structure/875.pdb
REMARK  2 active torsions:
REMARK  status: ('A' for Active; 'I' for Inactive)
REMARK    1  A    between atoms: C3_5  and  S1_6
REMARK    2  A    between atoms: S1_6  and  C4_9
REMARK                            x       y       z     vdW  Elec       q    Type
REMARK                         _______ _______ _______ _____ _____    ______ ____
ROOT
ATOM      1  S1  UNL     1      17.312  11.585  -4.529  0.00  0.00    +0.000 S 
ATOM      2  O2  UNL     1      17.931  12.755  -5.124  0.00  0.00    +0.000 OA
ATOM      3  O3  UNL     1      18.006  10.314  -4.447  0.00  0.00    +0.000 OA
ENDROOT
BRANCH   1   4
ATOM      4  C4  UNL     1      15.723  11.333  -5.261  0.00  0.00    +0.000 A 
ATOM      5  C5  UNL     1      14.661  10.882  -4.471  0.00  0.00    +0.000 A 
ATOM      6  C6  UNL     1      13.417  10.653  -5.059  0.00  0.00    +0.000 A 
ATOM      7  C7  UNL     1      13.240  10.866  -6.427  0.00  0.00    +0.000 A 
ATOM      8  C8  UNL     1      14.307  11.303  -7.214  0.00  0.00    +0.000 A 
ATOM      9  C9  UNL     1      15.555  11.533  -6.635  0.00  0.00    +0.000 A 
ENDBRANCH   1   4
BRANCH   1  14
ATOM     10  N1  UNL     1      17.082  11.170  -1.806  0.00  0.00    +0.000 NA
ATOM     11  C1  UNL     1      16.809  11.959  -0.791  0.00  0.00    +0.000 A 
ATOM     12  O1  UNL     1      16.587  13.265  -1.109  0.00  0.00    +0.000 OA
ATOM     13  C2  UNL     1      16.735  13.301  -2.464  0.00  0.00    +0.000 A 
ATOM     14  C3  UNL     1      17.036  12.031  -2.889  0.00  0.00    +0.000 A 
ENDBRANCH   1  14
TORSDOF 2
ENDMDL
MODEL 3
REMARK VINA RESULT:    -4.330      1.851      2.834
REMARK INTER + INTRA:          -5.027
REMARK INTER:                  -4.851
REMARK INTRA:                  -0.176
REMARK UNBOUND:                -0.191
REMARK  Name = /home/anacleto/Desktop/manuscript_Mpro/naturecomm/supplementary_file_S2/6-chemical-library/molecular_docking/3D_ligand_structure/875.pdb
REMARK  2 active torsions:
REMARK  status: ('A' for Active; 'I' for Inactive)
REMARK    1  A    between atoms: C3_5  and  S1_6
REMARK    2  A    between atoms: S1_6  and  C4_9
REMARK                            x       y       z     vdW  Elec       q    Type
REMARK                         _______ _______ _______ _____ _____    ______ ____
ROOT
ATOM      1  S1  UNL     1      15.156  13.869  -3.920  0.00  0.00    +0.000 S 
ATOM      2  O2  UNL     1      13.957  14.469  -3.364  0.00  0.00    +0.000 OA
ATOM      3  O3  UNL     1      16.289  14.674  -4.337  0.00  0.00    +0.000 OA
ENDROOT
BRANCH   1   4
ATOM      4  C4  UNL     1      14.703  12.779  -5.236  0.00  0.00    +0.000 A 
ATOM      5  C5  UNL     1      13.447  12.164  -5.223  0.00  0.00    +0.000 A 
ATOM      6  C6  UNL     1      13.106  11.279  -6.246  0.00  0.00    +0.000 A 
ATOM      7  C7  UNL     1      14.017  11.006  -7.268  0.00  0.00    +0.000 A 
ATOM      8  C8  UNL     1      15.275  11.612  -7.269  0.00  0.00    +0.000 A 
ATOM      9  C9  UNL     1      15.625  12.497  -6.249  0.00  0.00    +0.000 A 
ENDBRANCH   1   4
BRANCH   1  14
ATOM     10  N1  UNL     1      15.826  11.500  -2.665  0.00  0.00    +0.000 NA
ATOM     11  C1  UNL     1      16.365  11.214  -1.501  0.00  0.00    +0.000 A 
ATOM     12  O1  UNL     1      16.673  12.288  -0.720  0.00  0.00    +0.000 OA
ATOM     13  C2  UNL     1      16.287  13.359  -1.470  0.00  0.00    +0.000 A 
ATOM     14  C3  UNL     1      15.773  12.883  -2.652  0.00  0.00    +0.000 A 
ENDBRANCH   1  14
TORSDOF 2
ENDMDL
MODEL 4
REMARK VINA RESULT:    -4.299     15.823     17.727
REMARK INTER + INTRA:          -4.993
REMARK INTER:                  -4.800
REMARK INTRA:                  -0.193
REMARK UNBOUND:                -0.191
REMARK  Name = /home/anacleto/Desktop/manuscript_Mpro/naturecomm/supplementary_file_S2/6-chemical-library/molecular_docking/3D_ligand_structure/875.pdb
REMARK  2 active torsions:
REMARK  status: ('A' for Active; 'I' for Inactive)
REMARK    1  A    between atoms: C3_5  and  S1_6
REMARK    2  A    between atoms: S1_6  and  C4_9
REMARK                            x       y       z     vdW  Elec       q    Type
REMARK                         _______ _______ _______ _____ _____    ______ ____
ROOT
ATOM      1  S1  UNL     1      20.815   6.289  11.571  0.00  0.00    +0.000 S 
ATOM      2  O2  UNL     1      20.936   4.853  11.737  0.00  0.00    +0.000 OA
ATOM      3  O3  UNL     1      21.979   7.156  11.561  0.00  0.00    +0.000 OA
ENDROOT
BRANCH   1   4
ATOM      4  C4  UNL     1      19.637   6.912  12.732  0.00  0.00    +0.000 A 
ATOM      5  C5  UNL     1      18.271   6.741  12.490  0.00  0.00    +0.000 A 
ATOM      6  C6  UNL     1      17.344   7.262  13.394  0.00  0.00    +0.000 A 
ATOM      7  C7  UNL     1      17.781   7.955  14.523  0.00  0.00    +0.000 A 
ATOM      8  C8  UNL     1      19.146   8.135  14.754  0.00  0.00    +0.000 A 
ATOM      9  C9  UNL     1      20.081   7.619  13.855  0.00  0.00    +0.000 A 
ENDBRANCH   1   4
BRANCH   1  14
ATOM     10  N1  UNL     1      19.625   5.464   9.217  0.00  0.00    +0.000 NA
ATOM     11  C1  UNL     1      19.210   6.097   8.142  0.00  0.00    +0.000 A 
ATOM     12  O1  UNL     1      19.388   7.448   8.156  0.00  0.00    +0.000 OA
ATOM     13  C2  UNL     1      19.975   7.689   9.362  0.00  0.00    +0.000 A 
ATOM     14  C3  UNL     1      20.120   6.486  10.008  0.00  0.00    +0.000 A 
ENDBRANCH   1  14
TORSDOF 2
ENDMDL
MODEL 5
REMARK VINA RESULT:    -4.289     16.018     17.385
REMARK INTER + INTRA:          -4.982
REMARK INTER:                  -4.822
REMARK INTRA:                  -0.160
REMARK UNBOUND:                -0.191
REMARK  Name = /home/anacleto/Desktop/manuscript_Mpro/naturecomm/supplementary_file_S2/6-chemical-library/molecular_docking/3D_ligand_structure/875.pdb
REMARK  2 active torsions:
REMARK  status: ('A' for Active; 'I' for Inactive)
REMARK    1  A    between atoms: C3_5  and  S1_6
REMARK    2  A    between atoms: S1_6  and  C4_9
REMARK                            x       y       z     vdW  Elec       q    Type
REMARK                         _______ _______ _______ _____ _____    ______ ____
ROOT
ATOM      1  S1  UNL     1      19.880   6.422  12.540  0.00  0.00    +0.000 S 
ATOM      2  O2  UNL     1      20.683   7.588  12.857  0.00  0.00    +0.000 OA
ATOM      3  O3  UNL     1      20.258   5.093  12.984  0.00  0.00    +0.000 OA
ENDROOT
BRANCH   1   4
ATOM      4  C4  UNL     1      19.567   6.386  10.801  0.00  0.00    +0.000 A 
ATOM      5  C5  UNL     1      19.142   5.198  10.199  0.00  0.00    +0.000 A 
ATOM      6  C6  UNL     1      18.926   5.166   8.820  0.00  0.00    +0.000 A 
ATOM      7  C7  UNL     1      19.144   6.311   8.052  0.00  0.00    +0.000 A 
ATOM      8  C8  UNL     1      19.583   7.491   8.656  0.00  0.00    +0.000 A 
ATOM      9  C9  UNL     1      19.801   7.532  10.033  0.00  0.00    +0.000 A 
ENDBRANCH   1   4
BRANCH   1  14
ATOM     10  N1  UNL     1      18.026   7.875  13.987  0.00  0.00    +0.000 NA
ATOM     11  C1  UNL     1      16.799   7.631  14.387  0.00  0.00    +0.000 A 
ATOM     12  O1  UNL     1      16.301   6.413  14.033  0.00  0.00    +0.000 OA
ATOM     13  C2  UNL     1      17.319   5.832  13.338  0.00  0.00    +0.000 A 
ATOM     14  C3  UNL     1      18.369   6.718  13.309  0.00  0.00    +0.000 A 
ENDBRANCH   1  14
TORSDOF 2
ENDMDL
MODEL 6
REMARK VINA RESULT:    -4.252      1.943      4.852
REMARK INTER + INTRA:          -4.941
REMARK INTER:                  -4.750
REMARK INTRA:                  -0.191
REMARK UNBOUND:                -0.191
REMARK  Name = /home/anacleto/Desktop/manuscript_Mpro/naturecomm/supplementary_file_S2/6-chemical-library/molecular_docking/3D_ligand_structure/875.pdb
REMARK  2 active torsions:
REMARK  status: ('A' for Active; 'I' for Inactive)
REMARK    1  A    between atoms: C3_5  and  S1_6
REMARK    2  A    between atoms: S1_6  and  C4_9
REMARK                            x       y       z     vdW  Elec       q    Type
REMARK                         _______ _______ _______ _____ _____    ______ ____
ROOT
ATOM      1  S1  UNL     1      16.046  13.272  -4.403  0.00  0.00    +0.000 S 
ATOM      2  O2  UNL     1      17.149  12.417  -4.008  0.00  0.00    +0.000 OA
ATOM      3  O3  UNL     1      16.125  14.128  -5.571  0.00  0.00    +0.000 OA
ENDROOT
BRANCH   1   4
ATOM      4  C4  UNL     1      15.529  14.233  -3.013  0.00  0.00    +0.000 A 
ATOM      5  C5  UNL     1      14.201  14.661  -2.922  0.00  0.00    +0.000 A 
ATOM      6  C6  UNL     1      13.805  15.447  -1.839  0.00  0.00    +0.000 A 
ATOM      7  C7  UNL     1      14.732  15.808  -0.861  0.00  0.00    +0.000 A 
ATOM      8  C8  UNL     1      16.061  15.390  -0.963  0.00  0.00    +0.000 A 
ATOM      9  C9  UNL     1      16.466  14.605  -2.043  0.00  0.00    +0.000 A 
ENDBRANCH   1   4
BRANCH   1  14
ATOM     10  N1  UNL     1      13.750  12.404  -5.676  0.00  0.00    +0.000 NA
ATOM     11  C1  UNL     1      13.026  11.312  -5.588  0.00  0.00    +0.000 A 
ATOM     12  O1  UNL     1      13.469  10.387  -4.690  0.00  0.00    +0.000 OA
ATOM     13  C2  UNL     1      14.587  10.958  -4.158  0.00  0.00    +0.000 A 
ATOM     14  C3  UNL     1      14.760  12.183  -4.755  0.00  0.00    +0.000 A 
ENDBRANCH   1  14
TORSDOF 2
ENDMDL
MODEL 7
REMARK VINA RESULT:    -4.105      1.882      4.749
REMARK INTER + INTRA:          -4.777
REMARK INTER:                  -4.614
REMARK INTRA:                  -0.163
REMARK UNBOUND:                -0.191
REMARK  Name = /home/anacleto/Desktop/manuscript_Mpro/naturecomm/supplementary_file_S2/6-chemical-library/molecular_docking/3D_ligand_structure/875.pdb
REMARK  2 active torsions:
REMARK  status: ('A' for Active; 'I' for Inactive)
REMARK    1  A    between atoms: C3_5  and  S1_6
REMARK    2  A    between atoms: S1_6  and  C4_9
REMARK                            x       y       z     vdW  Elec       q    Type
REMARK                         _______ _______ _______ _____ _____    ______ ____
ROOT
ATOM      1  S1  UNL     1      16.271  11.725  -3.056  0.00  0.00    +0.000 S 
ATOM      2  O2  UNL     1      15.938  10.681  -2.105  0.00  0.00    +0.000 OA
ATOM      3  O3  UNL     1      17.602  11.848  -3.619  0.00  0.00    +0.000 OA
ENDROOT
BRANCH   1   4
ATOM      4  C4  UNL     1      15.770  13.288  -2.401  0.00  0.00    +0.000 A 
ATOM      5  C5  UNL     1      16.512  13.877  -1.373  0.00  0.00    +0.000 A 
ATOM      6  C6  UNL     1      16.095  15.096  -0.836  0.00  0.00    +0.000 A 
ATOM      7  C7  UNL     1      14.941  15.714  -1.319  0.00  0.00    +0.000 A 
ATOM      8  C8  UNL     1      14.195  15.116  -2.337  0.00  0.00    +0.000 A 
ATOM      9  C9  UNL     1      14.604  13.896  -2.878  0.00  0.00    +0.000 A 
ENDBRANCH   1   4
BRANCH   1  14
ATOM     10  N1  UNL     1      14.057  10.725  -4.376  0.00  0.00    +0.000 NA
ATOM     11  C1  UNL     1      13.668  10.742  -5.631  0.00  0.00    +0.000 A 
ATOM     12  O1  UNL     1      14.508  11.381  -6.494  0.00  0.00    +0.000 OA
ATOM     13  C2  UNL     1      15.530  11.808  -5.700  0.00  0.00    +0.000 A 
ATOM     14  C3  UNL     1      15.259  11.411  -4.413  0.00  0.00    +0.000 A 
ENDBRANCH   1  14
TORSDOF 2
ENDMDL
MODEL 8
REMARK VINA RESULT:    -4.091      1.172      1.447
REMARK INTER + INTRA:          -4.760
REMARK INTER:                  -4.581
REMARK INTRA:                  -0.179
REMARK UNBOUND:                -0.191
REMARK  Name = /home/anacleto/Desktop/manuscript_Mpro/naturecomm/supplementary_file_S2/6-chemical-library/molecular_docking/3D_ligand_structure/875.pdb
REMARK  2 active torsions:
REMARK  status: ('A' for Active; 'I' for Inactive)
REMARK    1  A    between atoms: C3_5  and  S1_6
REMARK    2  A    between atoms: S1_6  and  C4_9
REMARK                            x       y       z     vdW  Elec       q    Type
REMARK                         _______ _______ _______ _____ _____    ______ ____
ROOT
ATOM      1  S1  UNL     1      16.172  14.026  -4.029  0.00  0.00    +0.000 S 
ATOM      2  O2  UNL     1      16.402  15.080  -5.000  0.00  0.00    +0.000 OA
ATOM      3  O3  UNL     1      17.259  13.431  -3.276  0.00  0.00    +0.000 OA
ENDROOT
BRANCH   1   4
ATOM      4  C4  UNL     1      15.216  12.743  -4.780  0.00  0.00    +0.000 A 
ATOM      5  C5  UNL     1      14.877  12.835  -6.134  0.00  0.00    +0.000 A 
ATOM      6  C6  UNL     1      14.095  11.837  -6.715  0.00  0.00    +0.000 A 
ATOM      7  C7  UNL     1      13.649  10.761  -5.946  0.00  0.00    +0.000 A 
ATOM      8  C8  UNL     1      13.978  10.680  -4.592  0.00  0.00    +0.000 A 
ATOM      9  C9  UNL     1      14.758  11.675  -4.001  0.00  0.00    +0.000 A 
ENDBRANCH   1   4
BRANCH   1  14
ATOM     10  N1  UNL     1      13.801  14.937  -2.937  0.00  0.00    +0.000 NA
ATOM     11  C1  UNL     1      13.494  15.520  -1.800  0.00  0.00    +0.000 A 
ATOM     12  O1  UNL     1      14.540  15.736  -0.954  0.00  0.00    +0.000 OA
ATOM     13  C2  UNL     1      15.615  15.240  -1.629  0.00  0.00    +0.000 A 
ATOM     14  C3  UNL     1      15.169  14.753  -2.833  0.00  0.00    +0.000 A 
ENDBRANCH   1  14
TORSDOF 2
ENDMDL
MODEL 9
REMARK VINA RESULT:    -4.015      3.774      5.756
REMARK INTER + INTRA:          -4.676
REMARK INTER:                  -4.484
REMARK INTRA:                  -0.191
REMARK UNBOUND:                -0.191
REMARK  Name = /home/anacleto/Desktop/manuscript_Mpro/naturecomm/supplementary_file_S2/6-chemical-library/molecular_docking/3D_ligand_structure/875.pdb
REMARK  2 active torsions:
REMARK  status: ('A' for Active; 'I' for Inactive)
REMARK    1  A    between atoms: C3_5  and  S1_6
REMARK    2  A    between atoms: S1_6  and  C4_9
REMARK                            x       y       z     vdW  Elec       q    Type
REMARK                         _______ _______ _______ _____ _____    ______ ____
ROOT
ATOM      1  S1  UNL     1      17.795  12.049  -6.428  0.00  0.00    +0.000 S 
ATOM      2  O2  UNL     1      18.557  12.039  -5.192  0.00  0.00    +0.000 OA
ATOM      3  O3  UNL     1      17.814  13.187  -7.327  0.00  0.00    +0.000 OA
ENDROOT
BRANCH   1   4
ATOM      4  C4  UNL     1      16.119  11.612  -6.079  0.00  0.00    +0.000 A 
ATOM      5  C5  UNL     1      15.748  11.277  -4.773  0.00  0.00    +0.000 A 
ATOM      6  C6  UNL     1      14.431  10.901  -4.508  0.00  0.00    +0.000 A 
ATOM      7  C7  UNL     1      13.496  10.852  -5.542  0.00  0.00    +0.000 A 
ATOM      8  C8  UNL     1      13.873  11.174  -6.848  0.00  0.00    +0.000 A 
ATOM      9  C9  UNL     1      15.189  11.550  -7.122  0.00  0.00    +0.000 A 
ENDBRANCH   1   4
BRANCH   1  14
ATOM     10  N1  UNL     1      18.757   9.495  -6.872  0.00  0.00    +0.000 NA
ATOM     11  C1  UNL     1      19.232   8.879  -7.931  0.00  0.00    +0.000 A 
ATOM     12  O1  UNL     1      19.273   9.625  -9.071  0.00  0.00    +0.000 OA
ATOM     13  C2  UNL     1      18.774  10.835  -8.689  0.00  0.00    +0.000 A 
ATOM     14  C3  UNL     1      18.460  10.758  -7.354  0.00  0.00    +0.000 A 
ENDBRANCH   1  14
TORSDOF 2
ENDMDL
