MODEL 1
REMARK VINA RESULT:    -4.516      0.000      0.000
REMARK INTER + INTRA:          -4.516
REMARK INTER:                  -4.516
REMARK INTRA:                   0.000
REMARK UNBOUND:                 0.000
REMARK  Name = /home/anacleto/Desktop/manuscript_Mpro/naturecomm/supplementary_file_S2/6-chemical-library/molecular_docking/3D_ligand_structure/249.pdb
REMARK  0 active torsions:
REMARK  status: ('A' for Active; 'I' for Inactive)
REMARK                            x       y       z     vdW  Elec       q    Type
REMARK                         _______ _______ _______ _____ _____    ______ ____
ROOT
ATOM      1  C1  UNL     1     -33.433  12.035 -33.442  0.00  0.00    +0.000 A 
ATOM      2  C2  UNL     1     -32.589  13.060 -33.038  0.00  0.00    +0.000 A 
ATOM      3  N1  UNL     1     -32.907  13.807 -31.971  0.00  0.00    +0.000 N 
ATOM      4  C3  UNL     1     -34.026  13.608 -31.256  0.00  0.00    +0.000 A 
ATOM      5  C4  UNL     1     -34.918  12.593 -31.608  0.00  0.00    +0.000 A 
ATOM      6  C5  UNL     1     -34.611  11.789 -32.728  0.00  0.00    +0.000 A 
ATOM      7  C6  UNL     1     -36.099  12.354 -30.885  0.00  0.00    +0.000 A 
ATOM      8  C7  UNL     1     -36.964  11.330 -31.269  0.00  0.00    +0.000 A 
ATOM      9  C8  UNL     1     -36.662  10.537 -32.372  0.00  0.00    +0.000 A 
ATOM     10  C9  UNL     1     -35.493  10.764 -33.099  0.00  0.00    +0.000 A 
ATOM     11  H3  UNL     1     -32.273  14.558 -31.689  0.00  0.00    +0.000 HD
ENDROOT
TORSDOF 0
ENDMDL
MODEL 2
REMARK VINA RESULT:    -4.440      1.857      3.538
REMARK INTER + INTRA:          -4.440
REMARK INTER:                  -4.440
REMARK INTRA:                   0.000
REMARK UNBOUND:                 0.000
REMARK  Name = /home/anacleto/Desktop/manuscript_Mpro/naturecomm/supplementary_file_S2/6-chemical-library/molecular_docking/3D_ligand_structure/249.pdb
REMARK  0 active torsions:
REMARK  status: ('A' for Active; 'I' for Inactive)
REMARK                            x       y       z     vdW  Elec       q    Type
REMARK                         _______ _______ _______ _____ _____    ______ ____
ROOT
ATOM      1  C1  UNL     1     -37.802  11.513 -30.214  0.00  0.00    +0.000 A 
ATOM      2  C2  UNL     1     -37.826  12.442 -29.183  0.00  0.00    +0.000 A 
ATOM      3  N1  UNL     1     -36.846  13.352 -29.079  0.00  0.00    +0.000 N 
ATOM      4  C3  UNL     1     -35.819  13.410 -29.942  0.00  0.00    +0.000 A 
ATOM      5  C4  UNL     1     -35.735  12.506 -31.002  0.00  0.00    +0.000 A 
ATOM      6  C5  UNL     1     -36.752  11.535 -31.139  0.00  0.00    +0.000 A 
ATOM      7  C6  UNL     1     -34.676  12.536 -31.926  0.00  0.00    +0.000 A 
ATOM      8  C7  UNL     1     -34.627  11.614 -32.971  0.00  0.00    +0.000 A 
ATOM      9  C8  UNL     1     -35.629  10.658 -33.106  0.00  0.00    +0.000 A 
ATOM     10  C9  UNL     1     -36.686  10.617 -32.197  0.00  0.00    +0.000 A 
ATOM     11  H3  UNL     1     -36.881  14.027 -28.313  0.00  0.00    +0.000 HD
ENDROOT
TORSDOF 0
ENDMDL
MODEL 3
REMARK VINA RESULT:    -4.277      0.528      2.067
REMARK INTER + INTRA:          -4.277
REMARK INTER:                  -4.277
REMARK INTRA:                   0.000
REMARK UNBOUND:                 0.000
REMARK  Name = /home/anacleto/Desktop/manuscript_Mpro/naturecomm/supplementary_file_S2/6-chemical-library/molecular_docking/3D_ligand_structure/249.pdb
REMARK  0 active torsions:
REMARK  status: ('A' for Active; 'I' for Inactive)
REMARK                            x       y       z     vdW  Elec       q    Type
REMARK                         _______ _______ _______ _____ _____    ______ ____
ROOT
ATOM      1  C1  UNL     1     -34.376  13.849 -31.168  0.00  0.00    +0.000 A 
ATOM      2  C2  UNL     1     -33.180  14.172 -31.793  0.00  0.00    +0.000 A 
ATOM      3  N1  UNL     1     -32.702  13.387 -32.770  0.00  0.00    +0.000 N 
ATOM      4  C3  UNL     1     -33.339  12.280 -33.184  0.00  0.00    +0.000 A 
ATOM      5  C4  UNL     1     -34.547  11.899 -32.598  0.00  0.00    +0.000 A 
ATOM      6  C5  UNL     1     -35.076  12.705 -31.565  0.00  0.00    +0.000 A 
ATOM      7  C6  UNL     1     -35.242  10.747 -33.004  0.00  0.00    +0.000 A 
ATOM      8  C7  UNL     1     -36.447  10.399 -32.393  0.00  0.00    +0.000 A 
ATOM      9  C8  UNL     1     -36.969  11.194 -31.376  0.00  0.00    +0.000 A 
ATOM     10  C9  UNL     1     -36.288  12.340 -30.963  0.00  0.00    +0.000 A 
ATOM     11  H3  UNL     1     -31.819  13.641 -33.218  0.00  0.00    +0.000 HD
ENDROOT
TORSDOF 0
ENDMDL
MODEL 4
REMARK VINA RESULT:    -4.156     12.218     14.219
REMARK INTER + INTRA:          -4.156
REMARK INTER:                  -4.156
REMARK INTRA:                   0.000
REMARK UNBOUND:                 0.000
REMARK  Name = /home/anacleto/Desktop/manuscript_Mpro/naturecomm/supplementary_file_S2/6-chemical-library/molecular_docking/3D_ligand_structure/249.pdb
REMARK  0 active torsions:
REMARK  status: ('A' for Active; 'I' for Inactive)
REMARK                            x       y       z     vdW  Elec       q    Type
REMARK                         _______ _______ _______ _____ _____    ______ ____
ROOT
ATOM      1  C1  UNL     1     -24.516   8.154 -38.313  0.00  0.00    +0.000 A 
ATOM      2  C2  UNL     1     -25.044   9.323 -37.784  0.00  0.00    +0.000 A 
ATOM      3  N1  UNL     1     -24.231  10.230 -37.222  0.00  0.00    +0.000 N 
ATOM      4  C3  UNL     1     -22.901  10.059 -37.144  0.00  0.00    +0.000 A 
ATOM      5  C4  UNL     1     -22.306   8.906 -37.658  0.00  0.00    +0.000 A 
ATOM      6  C5  UNL     1     -23.136   7.932 -38.256  0.00  0.00    +0.000 A 
ATOM      7  C6  UNL     1     -20.918   8.692 -37.596  0.00  0.00    +0.000 A 
ATOM      8  C7  UNL     1     -20.361   7.526 -38.120  0.00  0.00    +0.000 A 
ATOM      9  C8  UNL     1     -21.179   6.565 -38.710  0.00  0.00    +0.000 A 
ATOM     10  C9  UNL     1     -22.558   6.765 -38.778  0.00  0.00    +0.000 A 
ATOM     11  H3  UNL     1     -24.639  11.084 -36.837  0.00  0.00    +0.000 HD
ENDROOT
TORSDOF 0
ENDMDL
MODEL 5
REMARK VINA RESULT:    -4.149     14.849     16.757
REMARK INTER + INTRA:          -4.149
REMARK INTER:                  -4.149
REMARK INTRA:                   0.000
REMARK UNBOUND:                 0.000
REMARK  Name = /home/anacleto/Desktop/manuscript_Mpro/naturecomm/supplementary_file_S2/6-chemical-library/molecular_docking/3D_ligand_structure/249.pdb
REMARK  0 active torsions:
REMARK  status: ('A' for Active; 'I' for Inactive)
REMARK                            x       y       z     vdW  Elec       q    Type
REMARK                         _______ _______ _______ _____ _____    ______ ____
ROOT
ATOM      1  C1  UNL     1     -18.756   9.884 -38.430  0.00  0.00    +0.000 A 
ATOM      2  C2  UNL     1     -17.670   9.407 -39.151  0.00  0.00    +0.000 A 
ATOM      3  N1  UNL     1     -17.693   8.163 -39.651  0.00  0.00    +0.000 N 
ATOM      4  C3  UNL     1     -18.738   7.336 -39.485  0.00  0.00    +0.000 A 
ATOM      5  C4  UNL     1     -19.862   7.753 -38.770  0.00  0.00    +0.000 A 
ATOM      6  C5  UNL     1     -19.868   9.058 -38.231  0.00  0.00    +0.000 A 
ATOM      7  C6  UNL     1     -20.974   6.916 -38.576  0.00  0.00    +0.000 A 
ATOM      8  C7  UNL     1     -22.079   7.370 -37.855  0.00  0.00    +0.000 A 
ATOM      9  C8  UNL     1     -22.086   8.656 -37.324  0.00  0.00    +0.000 A 
ATOM     10  C9  UNL     1     -20.988   9.497 -37.510  0.00  0.00    +0.000 A 
ATOM     11  H3  UNL     1     -16.883   7.830 -40.179  0.00  0.00    +0.000 HD
ENDROOT
TORSDOF 0
ENDMDL
MODEL 6
REMARK VINA RESULT:    -4.068     14.310     16.049
REMARK INTER + INTRA:          -4.068
REMARK INTER:                  -4.068
REMARK INTRA:                   0.000
REMARK UNBOUND:                 0.000
REMARK  Name = /home/anacleto/Desktop/manuscript_Mpro/naturecomm/supplementary_file_S2/6-chemical-library/molecular_docking/3D_ligand_structure/249.pdb
REMARK  0 active torsions:
REMARK  status: ('A' for Active; 'I' for Inactive)
REMARK                            x       y       z     vdW  Elec       q    Type
REMARK                         _______ _______ _______ _____ _____    ______ ____
ROOT
ATOM      1  C1  UNL     1     -18.920   7.564 -39.048  0.00  0.00    +0.000 A 
ATOM      2  C2  UNL     1     -18.094   8.648 -38.790  0.00  0.00    +0.000 A 
ATOM      3  N1  UNL     1     -18.588   9.739 -38.188  0.00  0.00    +0.000 N 
ATOM      4  C3  UNL     1     -19.874   9.837 -37.812  0.00  0.00    +0.000 A 
ATOM      5  C4  UNL     1     -20.759   8.782 -38.040  0.00  0.00    +0.000 A 
ATOM      6  C5  UNL     1     -20.267   7.619 -38.673  0.00  0.00    +0.000 A 
ATOM      7  C6  UNL     1     -22.111   8.847 -37.661  0.00  0.00    +0.000 A 
ATOM      8  C7  UNL     1     -22.964   7.772 -37.907  0.00  0.00    +0.000 A 
ATOM      9  C8  UNL     1     -22.480   6.625 -38.531  0.00  0.00    +0.000 A 
ATOM     10  C9  UNL     1     -21.140   6.547 -38.912  0.00  0.00    +0.000 A 
ATOM     11  H3  UNL     1     -17.964  10.528 -38.008  0.00  0.00    +0.000 HD
ENDROOT
TORSDOF 0
ENDMDL
MODEL 7
REMARK VINA RESULT:    -3.959     15.415     17.206
REMARK INTER + INTRA:          -3.959
REMARK INTER:                  -3.959
REMARK INTRA:                   0.000
REMARK UNBOUND:                 0.000
REMARK  Name = /home/anacleto/Desktop/manuscript_Mpro/naturecomm/supplementary_file_S2/6-chemical-library/molecular_docking/3D_ligand_structure/249.pdb
REMARK  0 active torsions:
REMARK  status: ('A' for Active; 'I' for Inactive)
REMARK                            x       y       z     vdW  Elec       q    Type
REMARK                         _______ _______ _______ _____ _____    ______ ____
ROOT
ATOM      1  C1  UNL     1     -19.469   6.312 -40.360  0.00  0.00    +0.000 A 
ATOM      2  C2  UNL     1     -18.270   6.767 -40.888  0.00  0.00    +0.000 A 
ATOM      3  N1  UNL     1     -17.710   7.888 -40.412  0.00  0.00    +0.000 N 
ATOM      4  C3  UNL     1     -18.266   8.611 -39.426  0.00  0.00    +0.000 A 
ATOM      5  C4  UNL     1     -19.472   8.209 -38.849  0.00  0.00    +0.000 A 
ATOM      6  C5  UNL     1     -20.086   7.031 -39.330  0.00  0.00    +0.000 A 
ATOM      7  C6  UNL     1     -20.084   8.939 -37.815  0.00  0.00    +0.000 A 
ATOM      8  C7  UNL     1     -21.290   8.505 -37.266  0.00  0.00    +0.000 A 
ATOM      9  C8  UNL     1     -21.895   7.344 -37.738  0.00  0.00    +0.000 A 
ATOM     10  C9  UNL     1     -21.298   6.610 -38.764  0.00  0.00    +0.000 A 
ATOM     11  H3  UNL     1     -16.827   8.207 -40.815  0.00  0.00    +0.000 HD
ENDROOT
TORSDOF 0
ENDMDL
MODEL 8
REMARK VINA RESULT:    -3.950     14.145     16.211
REMARK INTER + INTRA:          -3.950
REMARK INTER:                  -3.950
REMARK INTRA:                   0.000
REMARK UNBOUND:                 0.000
REMARK  Name = /home/anacleto/Desktop/manuscript_Mpro/naturecomm/supplementary_file_S2/6-chemical-library/molecular_docking/3D_ligand_structure/249.pdb
REMARK  0 active torsions:
REMARK  status: ('A' for Active; 'I' for Inactive)
REMARK                            x       y       z     vdW  Elec       q    Type
REMARK                         _______ _______ _______ _____ _____    ______ ____
ROOT
ATOM      1  C1  UNL     1     -21.154   6.476 -38.758  0.00  0.00    +0.000 A 
ATOM      2  C2  UNL     1     -22.495   6.454 -38.403  0.00  0.00    +0.000 A 
ATOM      3  N1  UNL     1     -23.076   7.558 -37.910  0.00  0.00    +0.000 N 
ATOM      4  C3  UNL     1     -22.408   8.710 -37.738  0.00  0.00    +0.000 A 
ATOM      5  C4  UNL     1     -21.057   8.801 -38.076  0.00  0.00    +0.000 A 
ATOM      6  C5  UNL     1     -20.417   7.655 -38.598  0.00  0.00    +0.000 A 
ATOM      7  C6  UNL     1     -20.325   9.990 -37.911  0.00  0.00    +0.000 A 
ATOM      8  C7  UNL     1     -18.976  10.040 -38.260  0.00  0.00    +0.000 A 
ATOM      9  C8  UNL     1     -18.345   8.911 -38.775  0.00  0.00    +0.000 A 
ATOM     10  C9  UNL     1     -19.060   7.725 -38.944  0.00  0.00    +0.000 A 
ATOM     11  H3  UNL     1     -24.064   7.521 -37.653  0.00  0.00    +0.000 HD
ENDROOT
TORSDOF 0
ENDMDL
MODEL 9
REMARK VINA RESULT:    -3.905     13.530     15.738
REMARK INTER + INTRA:          -3.905
REMARK INTER:                  -3.905
REMARK INTRA:                   0.000
REMARK UNBOUND:                 0.000
REMARK  Name = /home/anacleto/Desktop/manuscript_Mpro/naturecomm/supplementary_file_S2/6-chemical-library/molecular_docking/3D_ligand_structure/249.pdb
REMARK  0 active torsions:
REMARK  status: ('A' for Active; 'I' for Inactive)
REMARK                            x       y       z     vdW  Elec       q    Type
REMARK                         _______ _______ _______ _____ _____    ______ ____
ROOT
ATOM      1  C1  UNL     1     -21.727  10.184 -37.201  0.00  0.00    +0.000 A 
ATOM      2  C2  UNL     1     -23.057   9.830 -37.029  0.00  0.00    +0.000 A 
ATOM      3  N1  UNL     1     -23.498   8.644 -37.475  0.00  0.00    +0.000 N 
ATOM      4  C3  UNL     1     -22.698   7.762 -38.094  0.00  0.00    +0.000 A 
ATOM      5  C4  UNL     1     -21.348   8.055 -38.299  0.00  0.00    +0.000 A 
ATOM      6  C5  UNL     1     -20.854   9.296 -37.841  0.00  0.00    +0.000 A 
ATOM      7  C6  UNL     1     -20.479   7.157 -38.943  0.00  0.00    +0.000 A 
ATOM      8  C7  UNL     1     -19.137   7.487 -39.129  0.00  0.00    +0.000 A 
ATOM      9  C8  UNL     1     -18.650   8.710 -38.677  0.00  0.00    +0.000 A 
ATOM     10  C9  UNL     1     -19.501   9.610 -38.037  0.00  0.00    +0.000 A 
ATOM     11  H3  UNL     1     -24.482   8.402 -37.339  0.00  0.00    +0.000 HD
ENDROOT
TORSDOF 0
ENDMDL
