MODEL 1
REMARK VINA RESULT:    -3.459      0.000      0.000
REMARK INTER + INTRA:          -4.022
REMARK INTER:                  -3.916
REMARK INTRA:                  -0.106
REMARK UNBOUND:                -0.159
REMARK  Name = /home/anacleto/Desktop/manuscript_Mpro/naturecomm/supplementary_file_S2/6-chemical-library/molecular_docking/3D_ligand_structure/1256.pdb
REMARK  2 active torsions:
REMARK  status: ('A' for Active; 'I' for Inactive)
REMARK    1  A    between atoms: C3_5  and  S2_6
REMARK    2  A    between atoms: S2_6  and  C4_7
REMARK                            x       y       z     vdW  Elec       q    Type
REMARK                         _______ _______ _______ _____ _____    ______ ____
ROOT
ATOM      1  S2  UNL     1     -25.566  -4.569 -25.900  0.00  0.00    +0.000 S 
ENDROOT
BRANCH   1   6
ATOM      2  S1  UNL     1     -24.144  -2.799 -23.878  0.00  0.00    +0.000 S 
ATOM      3  C1  UNL     1     -22.903  -3.491 -22.919  0.00  0.00    +0.000 A 
ATOM      4  N1  UNL     1     -22.643  -4.762 -23.130  0.00  0.00    +0.000 NA
ATOM      5  C2  UNL     1     -23.500  -5.239 -24.106  0.00  0.00    +0.000 A 
ATOM      6  C3  UNL     1     -24.388  -4.320 -24.630  0.00  0.00    +0.000 A 
ENDBRANCH   1   6
BRANCH   1   7
ATOM      7  C4  UNL     1     -24.635  -3.983 -27.250  0.00  0.00    +0.000 A 
ATOM      8  N2  UNL     1     -25.110  -3.585 -28.415  0.00  0.00    +0.000 NA
ATOM      9  N3  UNL     1     -24.028  -3.213 -29.186  0.00  0.00    +0.000 NA
ATOM     10  C5  UNL     1     -22.971  -3.409 -28.438  0.00  0.00    +0.000 A 
ATOM     11  O1  UNL     1     -23.263  -3.895 -27.202  0.00  0.00    +0.000 OA
ENDBRANCH   1   7
TORSDOF 2
ENDMDL
MODEL 2
REMARK VINA RESULT:    -3.349      1.784      4.517
REMARK INTER + INTRA:          -3.900
REMARK INTER:                  -3.761
REMARK INTRA:                  -0.139
REMARK UNBOUND:                -0.159
REMARK  Name = /home/anacleto/Desktop/manuscript_Mpro/naturecomm/supplementary_file_S2/6-chemical-library/molecular_docking/3D_ligand_structure/1256.pdb
REMARK  2 active torsions:
REMARK  status: ('A' for Active; 'I' for Inactive)
REMARK    1  A    between atoms: C3_5  and  S2_6
REMARK    2  A    between atoms: S2_6  and  C4_7
REMARK                            x       y       z     vdW  Elec       q    Type
REMARK                         _______ _______ _______ _____ _____    ______ ____
ROOT
ATOM      1  S2  UNL     1     -25.438  -4.741 -25.558  0.00  0.00    +0.000 S 
ENDROOT
BRANCH   1   6
ATOM      2  S1  UNL     1     -25.462  -3.799 -28.448  0.00  0.00    +0.000 S 
ATOM      3  C1  UNL     1     -23.971  -3.372 -29.179  0.00  0.00    +0.000 A 
ATOM      4  N1  UNL     1     -22.899  -3.488 -28.427  0.00  0.00    +0.000 NA
ATOM      5  C2  UNL     1     -23.278  -3.924 -27.170  0.00  0.00    +0.000 A 
ATOM      6  C3  UNL     1     -24.629  -4.146 -26.991  0.00  0.00    +0.000 A 
ENDBRANCH   1   6
BRANCH   1   7
ATOM      7  C4  UNL     1     -24.273  -4.243 -24.363  0.00  0.00    +0.000 A 
ATOM      8  N2  UNL     1     -24.168  -3.042 -23.827  0.00  0.00    +0.000 NA
ATOM      9  N3  UNL     1     -23.112  -3.088 -22.940  0.00  0.00    +0.000 NA
ATOM     10  C5  UNL     1     -22.649  -4.312 -22.997  0.00  0.00    +0.000 A 
ATOM     11  O1  UNL     1     -23.323  -5.106 -23.872  0.00  0.00    +0.000 OA
ENDBRANCH   1   7
TORSDOF 2
ENDMDL
MODEL 3
REMARK VINA RESULT:    -3.343      2.077      2.646
REMARK INTER + INTRA:          -3.892
REMARK INTER:                  -3.726
REMARK INTRA:                  -0.166
REMARK UNBOUND:                -0.159
REMARK  Name = /home/anacleto/Desktop/manuscript_Mpro/naturecomm/supplementary_file_S2/6-chemical-library/molecular_docking/3D_ligand_structure/1256.pdb
REMARK  2 active torsions:
REMARK  status: ('A' for Active; 'I' for Inactive)
REMARK    1  A    between atoms: C3_5  and  S2_6
REMARK    2  A    between atoms: S2_6  and  C4_7
REMARK                            x       y       z     vdW  Elec       q    Type
REMARK                         _______ _______ _______ _____ _____    ______ ____
ROOT
ATOM      1  S2  UNL     1     -24.024  -4.071 -26.922  0.00  0.00    +0.000 S 
ENDROOT
BRANCH   1   6
ATOM      2  S1  UNL     1     -24.180  -2.967 -24.094  0.00  0.00    +0.000 S 
ATOM      3  C1  UNL     1     -23.144  -3.632 -22.901  0.00  0.00    +0.000 A 
ATOM      4  N1  UNL     1     -22.335  -4.589 -23.299  0.00  0.00    +0.000 NA
ATOM      5  C2  UNL     1     -22.560  -4.837 -24.641  0.00  0.00    +0.000 A 
ATOM      6  C3  UNL     1     -23.526  -4.056 -25.245  0.00  0.00    +0.000 A 
ENDBRANCH   1   6
BRANCH   1   7
ATOM      7  C4  UNL     1     -25.710  -4.446 -26.700  0.00  0.00    +0.000 A 
ATOM      8  N2  UNL     1     -26.734  -3.758 -27.169  0.00  0.00    +0.000 NA
ATOM      9  N3  UNL     1     -27.879  -4.404 -26.751  0.00  0.00    +0.000 NA
ATOM     10  C5  UNL     1     -27.474  -5.439 -26.058  0.00  0.00    +0.000 A 
ATOM     11  O1  UNL     1     -26.121  -5.540 -25.974  0.00  0.00    +0.000 OA
ENDBRANCH   1   7
TORSDOF 2
ENDMDL
MODEL 4
REMARK VINA RESULT:    -3.310      2.511      4.609
REMARK INTER + INTRA:          -3.856
REMARK INTER:                  -3.689
REMARK INTRA:                  -0.167
REMARK UNBOUND:                -0.159
REMARK  Name = /home/anacleto/Desktop/manuscript_Mpro/naturecomm/supplementary_file_S2/6-chemical-library/molecular_docking/3D_ligand_structure/1256.pdb
REMARK  2 active torsions:
REMARK  status: ('A' for Active; 'I' for Inactive)
REMARK    1  A    between atoms: C3_5  and  S2_6
REMARK    2  A    between atoms: S2_6  and  C4_7
REMARK                            x       y       z     vdW  Elec       q    Type
REMARK                         _______ _______ _______ _____ _____    ______ ____
ROOT
ATOM      1  S2  UNL     1     -23.882  -4.207 -26.948  0.00  0.00    +0.000 S 
ENDROOT
BRANCH   1   6
ATOM      2  S1  UNL     1     -26.277  -5.752 -25.890  0.00  0.00    +0.000 S 
ATOM      3  C1  UNL     1     -27.848  -5.197 -26.292  0.00  0.00    +0.000 A 
ATOM      4  N1  UNL     1     -27.911  -4.124 -27.048  0.00  0.00    +0.000 NA
ATOM      5  C2  UNL     1     -26.626  -3.687 -27.316  0.00  0.00    +0.000 A 
ATOM      6  C3  UNL     1     -25.606  -4.443 -26.770  0.00  0.00    +0.000 A 
ENDBRANCH   1   6
BRANCH   1   7
ATOM      7  C4  UNL     1     -23.454  -4.068 -25.266  0.00  0.00    +0.000 A 
ATOM      8  N2  UNL     1     -22.590  -4.821 -24.613  0.00  0.00    +0.000 NA
ATOM      9  N3  UNL     1     -22.566  -4.370 -23.309  0.00  0.00    +0.000 NA
ATOM     10  C5  UNL     1     -23.415  -3.374 -23.259  0.00  0.00    +0.000 A 
ATOM     11  O1  UNL     1     -24.022  -3.118 -24.449  0.00  0.00    +0.000 OA
ENDBRANCH   1   7
TORSDOF 2
ENDMDL
MODEL 5
REMARK VINA RESULT:    -3.304      2.474      2.684
REMARK INTER + INTRA:          -3.849
REMARK INTER:                  -3.719
REMARK INTRA:                  -0.130
REMARK UNBOUND:                -0.159
REMARK  Name = /home/anacleto/Desktop/manuscript_Mpro/naturecomm/supplementary_file_S2/6-chemical-library/molecular_docking/3D_ligand_structure/1256.pdb
REMARK  2 active torsions:
REMARK  status: ('A' for Active; 'I' for Inactive)
REMARK    1  A    between atoms: C3_5  and  S2_6
REMARK    2  A    between atoms: S2_6  and  C4_7
REMARK                            x       y       z     vdW  Elec       q    Type
REMARK                         _______ _______ _______ _____ _____    ______ ____
ROOT
ATOM      1  S2  UNL     1     -24.130  -5.296 -26.446  0.00  0.00    +0.000 S 
ENDROOT
BRANCH   1   6
ATOM      2  S1  UNL     1     -22.641  -4.750 -23.852  0.00  0.00    +0.000 S 
ATOM      3  C1  UNL     1     -23.028  -3.329 -22.974  0.00  0.00    +0.000 A 
ATOM      4  N1  UNL     1     -23.961  -2.561 -23.490  0.00  0.00    +0.000 NA
ATOM      5  C2  UNL     1     -24.394  -3.118 -24.680  0.00  0.00    +0.000 A 
ATOM      6  C3  UNL     1     -23.792  -4.306 -25.044  0.00  0.00    +0.000 A 
ENDBRANCH   1   6
BRANCH   1   7
ATOM      7  C4  UNL     1     -25.700  -4.661 -26.853  0.00  0.00    +0.000 A 
ATOM      8  N2  UNL     1     -26.856  -5.057 -26.355  0.00  0.00    +0.000 NA
ATOM      9  N3  UNL     1     -27.836  -4.294 -26.958  0.00  0.00    +0.000 NA
ATOM     10  C5  UNL     1     -27.208  -3.489 -27.779  0.00  0.00    +0.000 A 
ATOM     11  O1  UNL     1     -25.859  -3.655 -27.777  0.00  0.00    +0.000 OA
ENDBRANCH   1   7
TORSDOF 2
ENDMDL
MODEL 6
REMARK VINA RESULT:    -3.246      2.541      2.721
REMARK INTER + INTRA:          -3.785
REMARK INTER:                  -3.660
REMARK INTRA:                  -0.125
REMARK UNBOUND:                -0.159
REMARK  Name = /home/anacleto/Desktop/manuscript_Mpro/naturecomm/supplementary_file_S2/6-chemical-library/molecular_docking/3D_ligand_structure/1256.pdb
REMARK  2 active torsions:
REMARK  status: ('A' for Active; 'I' for Inactive)
REMARK    1  A    between atoms: C3_5  and  S2_6
REMARK    2  A    between atoms: S2_6  and  C4_7
REMARK                            x       y       z     vdW  Elec       q    Type
REMARK                         _______ _______ _______ _____ _____    ______ ____
ROOT
ATOM      1  S2  UNL     1     -22.675  -5.874 -26.292  0.00  0.00    +0.000 S 
ENDROOT
BRANCH   1   6
ATOM      2  S1  UNL     1     -24.368  -3.655 -25.087  0.00  0.00    +0.000 S 
ATOM      3  C1  UNL     1     -23.907  -3.013 -23.565  0.00  0.00    +0.000 A 
ATOM      4  N1  UNL     1     -22.831  -3.530 -23.016  0.00  0.00    +0.000 NA
ATOM      5  C2  UNL     1     -22.340  -4.525 -23.842  0.00  0.00    +0.000 A 
ATOM      6  C3  UNL     1     -23.043  -4.740 -25.011  0.00  0.00    +0.000 A 
ENDBRANCH   1   6
BRANCH   1   7
ATOM      7  C4  UNL     1     -21.447  -4.958 -27.120  0.00  0.00    +0.000 A 
ATOM      8  N2  UNL     1     -21.607  -4.254 -28.224  0.00  0.00    +0.000 NA
ATOM      9  N3  UNL     1     -20.380  -3.702 -28.531  0.00  0.00    +0.000 NA
ATOM     10  C5  UNL     1     -19.560  -4.108 -27.593  0.00  0.00    +0.000 A 
ATOM     11  O1  UNL     1     -20.150  -4.906 -26.664  0.00  0.00    +0.000 OA
ENDBRANCH   1   7
TORSDOF 2
ENDMDL
MODEL 7
REMARK VINA RESULT:    -3.240      2.742      4.584
REMARK INTER + INTRA:          -3.778
REMARK INTER:                  -3.695
REMARK INTRA:                  -0.083
REMARK UNBOUND:                -0.159
REMARK  Name = /home/anacleto/Desktop/manuscript_Mpro/naturecomm/supplementary_file_S2/6-chemical-library/molecular_docking/3D_ligand_structure/1256.pdb
REMARK  2 active torsions:
REMARK  status: ('A' for Active; 'I' for Inactive)
REMARK    1  A    between atoms: C3_5  and  S2_6
REMARK    2  A    between atoms: S2_6  and  C4_7
REMARK                            x       y       z     vdW  Elec       q    Type
REMARK                         _______ _______ _______ _____ _____    ______ ____
ROOT
ATOM      1  S2  UNL     1     -24.276  -5.599 -26.047  0.00  0.00    +0.000 S 
ENDROOT
BRANCH   1   6
ATOM      2  S1  UNL     1     -25.759  -3.989 -28.156  0.00  0.00    +0.000 S 
ATOM      3  C1  UNL     1     -27.464  -3.860 -28.034  0.00  0.00    +0.000 A 
ATOM      4  N1  UNL     1     -28.023  -4.474 -27.015  0.00  0.00    +0.000 NA
ATOM      5  C2  UNL     1     -27.041  -5.116 -26.283  0.00  0.00    +0.000 A 
ATOM      6  C3  UNL     1     -25.749  -4.969 -26.750  0.00  0.00    +0.000 A 
ENDBRANCH   1   6
BRANCH   1   7
ATOM      7  C4  UNL     1     -24.003  -4.369 -24.845  0.00  0.00    +0.000 A 
ATOM      8  N2  UNL     1     -24.537  -3.163 -24.824  0.00  0.00    +0.000 NA
ATOM      9  N3  UNL     1     -24.044  -2.522 -23.705  0.00  0.00    +0.000 NA
ATOM     10  C5  UNL     1     -23.245  -3.383 -23.124  0.00  0.00    +0.000 A 
ATOM     11  O1  UNL     1     -23.160  -4.572 -23.777  0.00  0.00    +0.000 OA
ENDBRANCH   1   7
TORSDOF 2
ENDMDL
MODEL 8
REMARK VINA RESULT:    -3.202     15.103     16.326
REMARK INTER + INTRA:          -3.736
REMARK INTER:                  -3.566
REMARK INTRA:                  -0.170
REMARK UNBOUND:                -0.159
REMARK  Name = /home/anacleto/Desktop/manuscript_Mpro/naturecomm/supplementary_file_S2/6-chemical-library/molecular_docking/3D_ligand_structure/1256.pdb
REMARK  2 active torsions:
REMARK  status: ('A' for Active; 'I' for Inactive)
REMARK    1  A    between atoms: C3_5  and  S2_6
REMARK    2  A    between atoms: S2_6  and  C4_7
REMARK                            x       y       z     vdW  Elec       q    Type
REMARK                         _______ _______ _______ _____ _____    ______ ____
ROOT
ATOM      1  S2  UNL     1     -29.093   3.420 -40.170  0.00  0.00    +0.000 S 
ENDROOT
BRANCH   1   6
ATOM      2  S1  UNL     1     -28.309   6.228 -39.310  0.00  0.00    +0.000 S 
ATOM      3  C1  UNL     1     -29.280   7.025 -38.144  0.00  0.00    +0.000 A 
ATOM      4  N1  UNL     1     -30.315   6.353 -37.690  0.00  0.00    +0.000 NA
ATOM      5  C2  UNL     1     -30.364   5.123 -38.322  0.00  0.00    +0.000 A 
ATOM      6  C3  UNL     1     -29.359   4.875 -39.237  0.00  0.00    +0.000 A 
ENDBRANCH   1   6
BRANCH   1   7
ATOM      7  C4  UNL     1     -27.502   3.014 -39.590  0.00  0.00    +0.000 A 
ATOM      8  N2  UNL     1     -26.434   2.784 -40.331  0.00  0.00    +0.000 NA
ATOM      9  N3  UNL     1     -25.399   2.494 -39.465  0.00  0.00    +0.000 NA
ATOM     10  C5  UNL     1     -25.908   2.569 -38.260  0.00  0.00    +0.000 A 
ATOM     11  O1  UNL     1     -27.229   2.890 -38.248  0.00  0.00    +0.000 OA
ENDBRANCH   1   7
TORSDOF 2
ENDMDL
MODEL 9
REMARK VINA RESULT:    -3.159      4.412      5.589
REMARK INTER + INTRA:          -3.687
REMARK INTER:                  -3.528
REMARK INTRA:                  -0.159
REMARK UNBOUND:                -0.159
REMARK  Name = /home/anacleto/Desktop/manuscript_Mpro/naturecomm/supplementary_file_S2/6-chemical-library/molecular_docking/3D_ligand_structure/1256.pdb
REMARK  2 active torsions:
REMARK  status: ('A' for Active; 'I' for Inactive)
REMARK    1  A    between atoms: C3_5  and  S2_6
REMARK    2  A    between atoms: S2_6  and  C4_7
REMARK                            x       y       z     vdW  Elec       q    Type
REMARK                         _______ _______ _______ _____ _____    ______ ____
ROOT
ATOM      1  S2  UNL     1     -19.813  -5.577 -28.281  0.00  0.00    +0.000 S 
ENDROOT
BRANCH   1   6
ATOM      2  S1  UNL     1     -22.045  -4.966 -26.309  0.00  0.00    +0.000 S 
ATOM      3  C1  UNL     1     -23.382  -4.041 -26.853  0.00  0.00    +0.000 A 
ATOM      4  N1  UNL     1     -23.352  -3.656 -28.109  0.00  0.00    +0.000 NA
ATOM      5  C2  UNL     1     -22.177  -4.102 -28.687  0.00  0.00    +0.000 A 
ATOM      6  C3  UNL     1     -21.339  -4.829 -27.866  0.00  0.00    +0.000 A 
ENDBRANCH   1   6
BRANCH   1   7
ATOM      7  C4  UNL     1     -18.822  -4.884 -27.028  0.00  0.00    +0.000 A 
ATOM      8  N2  UNL     1     -18.515  -3.608 -26.890  0.00  0.00    +0.000 NA
ATOM      9  N3  UNL     1     -17.709  -3.506 -25.775  0.00  0.00    +0.000 NA
ATOM     10  C5  UNL     1     -17.582  -4.725 -25.312  0.00  0.00    +0.000 A 
ATOM     11  O1  UNL     1     -18.250  -5.656 -26.044  0.00  0.00    +0.000 OA
ENDBRANCH   1   7
TORSDOF 2
ENDMDL
