MODEL 1
REMARK VINA RESULT:    -3.558      0.000      0.000
REMARK INTER + INTRA:          -4.115
REMARK INTER:                  -4.001
REMARK INTRA:                  -0.113
REMARK UNBOUND:                -0.140
REMARK  Name = /home/anacleto/Desktop/manuscript_Mpro/naturecomm/supplementary_file_S2/6-chemical-library/molecular_docking/3D_ligand_structure/1279.pdb
REMARK  2 active torsions:
REMARK  status: ('A' for Active; 'I' for Inactive)
REMARK    1  A    between atoms: C4_5  and  C5_6
REMARK    2  A    between atoms: C5_6  and  N1_7
REMARK                            x       y       z     vdW  Elec       q    Type
REMARK                         _______ _______ _______ _____ _____    ______ ____
ROOT
ATOM      1  C5  UNL     1     -20.897   8.330 -37.458  0.00  0.00    +0.000 C 
ENDROOT
BRANCH   1   6
ATOM      2  O1  UNL     1     -23.142   8.118 -38.410  0.00  0.00    +0.000 OA
ATOM      3  C1  UNL     1     -24.139   7.089 -38.322  0.00  0.00    +0.000 C 
ATOM      4  C2  UNL     1     -23.409   5.764 -38.399  0.00  0.00    +0.000 C 
ATOM      5  C3  UNL     1     -22.072   6.111 -37.792  0.00  0.00    +0.000 C 
ATOM      6  C4  UNL     1     -21.838   7.513 -38.338  0.00  0.00    +0.000 C 
ENDBRANCH   1   6
BRANCH   1   7
ATOM      7  N1  UNL     1     -19.738   8.837 -38.164  0.00  0.00    +0.000 N 
ATOM      8  C6  UNL     1     -18.822   8.138 -38.896  0.00  0.00    +0.000 A 
ATOM      9  C7  UNL     1     -17.889   9.085 -39.242  0.00  0.00    +0.000 A 
ATOM     10  N2  UNL     1     -18.235  10.287 -38.696  0.00  0.00    +0.000 NA
ATOM     11  N3  UNL     1     -19.362  10.120 -38.017  0.00  0.00    +0.000 NA
ENDBRANCH   1   7
TORSDOF 2
ENDMDL
MODEL 2
REMARK VINA RESULT:    -3.556     17.078     18.421
REMARK INTER + INTRA:          -4.112
REMARK INTER:                  -3.985
REMARK INTRA:                  -0.127
REMARK UNBOUND:                -0.140
REMARK  Name = /home/anacleto/Desktop/manuscript_Mpro/naturecomm/supplementary_file_S2/6-chemical-library/molecular_docking/3D_ligand_structure/1279.pdb
REMARK  2 active torsions:
REMARK  status: ('A' for Active; 'I' for Inactive)
REMARK    1  A    between atoms: C4_5  and  C5_6
REMARK    2  A    between atoms: C5_6  and  N1_7
REMARK                            x       y       z     vdW  Elec       q    Type
REMARK                         _______ _______ _______ _____ _____    ______ ____
ROOT
ATOM      1  C5  UNL     1     -25.379  -4.613 -25.342  0.00  0.00    +0.000 C 
ENDROOT
BRANCH   1   6
ATOM      2  O1  UNL     1     -23.311  -5.241 -24.193  0.00  0.00    +0.000 OA
ATOM      3  C1  UNL     1     -22.704  -4.786 -22.974  0.00  0.00    +0.000 C 
ATOM      4  C2  UNL     1     -22.901  -3.286 -22.918  0.00  0.00    +0.000 C 
ATOM      5  C3  UNL     1     -24.191  -3.114 -23.682  0.00  0.00    +0.000 C 
ATOM      6  C4  UNL     1     -24.036  -4.148 -24.788  0.00  0.00    +0.000 C 
ENDBRANCH   1   6
BRANCH   1   7
ATOM      7  N1  UNL     1     -25.693  -4.060 -26.644  0.00  0.00    +0.000 N 
ATOM      8  C6  UNL     1     -26.912  -3.689 -27.133  0.00  0.00    +0.000 A 
ATOM      9  C7  UNL     1     -26.649  -3.340 -28.436  0.00  0.00    +0.000 A 
ATOM     10  N2  UNL     1     -25.325  -3.538 -28.702  0.00  0.00    +0.000 NA
ATOM     11  N3  UNL     1     -24.749  -4.001 -27.600  0.00  0.00    +0.000 NA
ENDBRANCH   1   7
TORSDOF 2
ENDMDL
MODEL 3
REMARK VINA RESULT:    -3.535     17.215     18.113
REMARK INTER + INTRA:          -4.089
REMARK INTER:                  -3.951
REMARK INTRA:                  -0.138
REMARK UNBOUND:                -0.140
REMARK  Name = /home/anacleto/Desktop/manuscript_Mpro/naturecomm/supplementary_file_S2/6-chemical-library/molecular_docking/3D_ligand_structure/1279.pdb
REMARK  2 active torsions:
REMARK  status: ('A' for Active; 'I' for Inactive)
REMARK    1  A    between atoms: C4_5  and  C5_6
REMARK    2  A    between atoms: C5_6  and  N1_7
REMARK                            x       y       z     vdW  Elec       q    Type
REMARK                         _______ _______ _______ _____ _____    ______ ____
ROOT
ATOM      1  C5  UNL     1     -24.257  -4.352 -26.496  0.00  0.00    +0.000 C 
ENDROOT
BRANCH   1   6
ATOM      2  O1  UNL     1     -26.647  -4.732 -26.132  0.00  0.00    +0.000 OA
ATOM      3  C1  UNL     1     -27.760  -4.837 -27.033  0.00  0.00    +0.000 C 
ATOM      4  C2  UNL     1     -27.552  -3.793 -28.110  0.00  0.00    +0.000 C 
ATOM      5  C3  UNL     1     -26.048  -3.697 -28.164  0.00  0.00    +0.000 C 
ATOM      6  C4  UNL     1     -25.677  -3.829 -26.693  0.00  0.00    +0.000 C 
ENDBRANCH   1   6
BRANCH   1   7
ATOM      7  N1  UNL     1     -23.695  -4.030 -25.200  0.00  0.00    +0.000 N 
ATOM      8  C6  UNL     1     -22.787  -4.743 -24.472  0.00  0.00    +0.000 A 
ATOM      9  C7  UNL     1     -22.693  -4.045 -23.293  0.00  0.00    +0.000 A 
ATOM     10  N2  UNL     1     -23.547  -2.981 -23.323  0.00  0.00    +0.000 NA
ATOM     11  N3  UNL     1     -24.174  -2.992 -24.492  0.00  0.00    +0.000 NA
ENDBRANCH   1   7
TORSDOF 2
ENDMDL
MODEL 4
REMARK VINA RESULT:    -3.478      8.091      9.230
REMARK INTER + INTRA:          -4.025
REMARK INTER:                  -3.949
REMARK INTRA:                  -0.076
REMARK UNBOUND:                -0.140
REMARK  Name = /home/anacleto/Desktop/manuscript_Mpro/naturecomm/supplementary_file_S2/6-chemical-library/molecular_docking/3D_ligand_structure/1279.pdb
REMARK  2 active torsions:
REMARK  status: ('A' for Active; 'I' for Inactive)
REMARK    1  A    between atoms: C4_5  and  C5_6
REMARK    2  A    between atoms: C5_6  and  N1_7
REMARK                            x       y       z     vdW  Elec       q    Type
REMARK                         _______ _______ _______ _____ _____    ______ ____
ROOT
ATOM      1  C5  UNL     1     -29.021   3.715 -40.168  0.00  0.00    +0.000 C 
ENDROOT
BRANCH   1   6
ATOM      2  O1  UNL     1     -28.006   2.524 -38.286  0.00  0.00    +0.000 OA
ATOM      3  C1  UNL     1     -26.669   2.501 -37.762  0.00  0.00    +0.000 C 
ATOM      4  C2  UNL     1     -25.732   2.500 -38.951  0.00  0.00    +0.000 C 
ATOM      5  C3  UNL     1     -26.538   3.249 -39.983  0.00  0.00    +0.000 C 
ATOM      6  C4  UNL     1     -27.945   2.735 -39.709  0.00  0.00    +0.000 C 
ENDBRANCH   1   6
BRANCH   1   7
ATOM      7  N1  UNL     1     -29.302   4.761 -39.206  0.00  0.00    +0.000 N 
ATOM      8  C6  UNL     1     -30.441   4.959 -38.481  0.00  0.00    +0.000 A 
ATOM      9  C7  UNL     1     -30.208   6.141 -37.821  0.00  0.00    +0.000 A 
ATOM     10  N2  UNL     1     -28.986   6.631 -38.182  0.00  0.00    +0.000 NA
ATOM     11  N3  UNL     1     -28.445   5.786 -39.049  0.00  0.00    +0.000 NA
ENDBRANCH   1   7
TORSDOF 2
ENDMDL
MODEL 5
REMARK VINA RESULT:    -3.473      5.054      6.978
REMARK INTER + INTRA:          -4.019
REMARK INTER:                  -3.882
REMARK INTRA:                  -0.137
REMARK UNBOUND:                -0.140
REMARK  Name = /home/anacleto/Desktop/manuscript_Mpro/naturecomm/supplementary_file_S2/6-chemical-library/molecular_docking/3D_ligand_structure/1279.pdb
REMARK  2 active torsions:
REMARK  status: ('A' for Active; 'I' for Inactive)
REMARK    1  A    between atoms: C4_5  and  C5_6
REMARK    2  A    between atoms: C5_6  and  N1_7
REMARK                            x       y       z     vdW  Elec       q    Type
REMARK                         _______ _______ _______ _____ _____    ______ ____
ROOT
ATOM      1  C5  UNL     1     -24.682   4.649 -39.951  0.00  0.00    +0.000 C 
ENDROOT
BRANCH   1   6
ATOM      2  O1  UNL     1     -22.962   6.385 -40.108  0.00  0.00    +0.000 OA
ATOM      3  C1  UNL     1     -21.833   6.707 -39.281  0.00  0.00    +0.000 C 
ATOM      4  C2  UNL     1     -22.280   6.538 -37.844  0.00  0.00    +0.000 C 
ATOM      5  C3  UNL     1     -23.329   5.462 -37.969  0.00  0.00    +0.000 C 
ATOM      6  C4  UNL     1     -24.007   5.842 -39.279  0.00  0.00    +0.000 C 
ENDBRANCH   1   6
BRANCH   1   7
ATOM      7  N1  UNL     1     -25.658   3.987 -39.111  0.00  0.00    +0.000 N 
ATOM      8  C6  UNL     1     -25.656   2.695 -38.670  0.00  0.00    +0.000 A 
ATOM      9  C7  UNL     1     -26.855   2.572 -38.011  0.00  0.00    +0.000 A 
ATOM     10  N2  UNL     1     -27.546   3.746 -38.100  0.00  0.00    +0.000 NA
ATOM     11  N3  UNL     1     -26.811   4.603 -38.796  0.00  0.00    +0.000 NA
ENDBRANCH   1   7
TORSDOF 2
ENDMDL
MODEL 6
REMARK VINA RESULT:    -3.379      4.184      5.530
REMARK INTER + INTRA:          -3.915
REMARK INTER:                  -3.783
REMARK INTRA:                  -0.131
REMARK UNBOUND:                -0.140
REMARK  Name = /home/anacleto/Desktop/manuscript_Mpro/naturecomm/supplementary_file_S2/6-chemical-library/molecular_docking/3D_ligand_structure/1279.pdb
REMARK  2 active torsions:
REMARK  status: ('A' for Active; 'I' for Inactive)
REMARK    1  A    between atoms: C4_5  and  C5_6
REMARK    2  A    between atoms: C5_6  and  N1_7
REMARK                            x       y       z     vdW  Elec       q    Type
REMARK                         _______ _______ _______ _____ _____    ______ ____
ROOT
ATOM      1  C5  UNL     1     -24.906   4.714 -39.739  0.00  0.00    +0.000 C 
ENDROOT
BRANCH   1   6
ATOM      2  O1  UNL     1     -25.809   2.852 -38.431  0.00  0.00    +0.000 OA
ATOM      3  C1  UNL     1     -27.129   2.300 -38.316  0.00  0.00    +0.000 C 
ATOM      4  C2  UNL     1     -28.093   3.467 -38.303  0.00  0.00    +0.000 C 
ATOM      5  C3  UNL     1     -27.354   4.490 -39.130  0.00  0.00    +0.000 C 
ATOM      6  C4  UNL     1     -25.915   4.265 -38.687  0.00  0.00    +0.000 C 
ENDBRANCH   1   6
BRANCH   1   7
ATOM      7  N1  UNL     1     -23.809   5.490 -39.196  0.00  0.00    +0.000 N 
ATOM      8  C6  UNL     1     -22.945   6.312 -39.860  0.00  0.00    +0.000 A 
ATOM      9  C7  UNL     1     -22.051   6.698 -38.891  0.00  0.00    +0.000 A 
ATOM     10  N2  UNL     1     -22.366   6.089 -37.711  0.00  0.00    +0.000 NA
ATOM     11  N3  UNL     1     -23.436   5.331 -37.914  0.00  0.00    +0.000 NA
ENDBRANCH   1   7
TORSDOF 2
ENDMDL
MODEL 7
REMARK VINA RESULT:    -3.367      8.600     10.311
REMARK INTER + INTRA:          -3.901
REMARK INTER:                  -3.756
REMARK INTRA:                  -0.145
REMARK UNBOUND:                -0.140
REMARK  Name = /home/anacleto/Desktop/manuscript_Mpro/naturecomm/supplementary_file_S2/6-chemical-library/molecular_docking/3D_ligand_structure/1279.pdb
REMARK  2 active torsions:
REMARK  status: ('A' for Active; 'I' for Inactive)
REMARK    1  A    between atoms: C4_5  and  C5_6
REMARK    2  A    between atoms: C5_6  and  N1_7
REMARK                            x       y       z     vdW  Elec       q    Type
REMARK                         _______ _______ _______ _____ _____    ______ ____
ROOT
ATOM      1  C5  UNL     1     -28.438   3.759 -40.635  0.00  0.00    +0.000 C 
ENDROOT
BRANCH   1   6
ATOM      2  O1  UNL     1     -26.256   3.833 -39.527  0.00  0.00    +0.000 OA
ATOM      3  C1  UNL     1     -25.571   2.903 -38.675  0.00  0.00    +0.000 C 
ATOM      4  C2  UNL     1     -26.610   2.308 -37.749  0.00  0.00    +0.000 C 
ATOM      5  C3  UNL     1     -27.855   2.371 -38.598  0.00  0.00    +0.000 C 
ATOM      6  C4  UNL     1     -27.674   3.701 -39.315  0.00  0.00    +0.000 C 
ENDBRANCH   1   6
BRANCH   1   7
ATOM      7  N1  UNL     1     -29.877   3.787 -40.471  0.00  0.00    +0.000 N 
ATOM      8  C6  UNL     1     -30.821   3.078 -41.156  0.00  0.00    +0.000 A 
ATOM      9  C7  UNL     1     -32.011   3.568 -40.677  0.00  0.00    +0.000 A 
ATOM     10  N2  UNL     1     -31.765   4.557 -39.768  0.00  0.00    +0.000 NA
ATOM     11  N3  UNL     1     -30.450   4.699 -39.664  0.00  0.00    +0.000 NA
ENDBRANCH   1   7
TORSDOF 2
ENDMDL
MODEL 8
REMARK VINA RESULT:    -3.364     17.185     18.355
REMARK INTER + INTRA:          -3.898
REMARK INTER:                  -3.757
REMARK INTRA:                  -0.140
REMARK UNBOUND:                -0.140
REMARK  Name = /home/anacleto/Desktop/manuscript_Mpro/naturecomm/supplementary_file_S2/6-chemical-library/molecular_docking/3D_ligand_structure/1279.pdb
REMARK  2 active torsions:
REMARK  status: ('A' for Active; 'I' for Inactive)
REMARK    1  A    between atoms: C4_5  and  C5_6
REMARK    2  A    between atoms: C5_6  and  N1_7
REMARK                            x       y       z     vdW  Elec       q    Type
REMARK                         _______ _______ _______ _____ _____    ______ ____
ROOT
ATOM      1  C5  UNL     1     -25.381  -4.731 -25.174  0.00  0.00    +0.000 C 
ENDROOT
BRANCH   1   6
ATOM      2  O1  UNL     1     -26.748  -3.675 -26.908  0.00  0.00    +0.000 OA
ATOM      3  C1  UNL     1     -26.676  -3.691 -28.342  0.00  0.00    +0.000 C 
ATOM      4  C2  UNL     1     -25.209  -3.611 -28.708  0.00  0.00    +0.000 C 
ATOM      5  C3  UNL     1     -24.556  -4.285 -27.527  0.00  0.00    +0.000 C 
ATOM      6  C4  UNL     1     -25.416  -3.788 -26.373  0.00  0.00    +0.000 C 
ENDBRANCH   1   6
BRANCH   1   7
ATOM      7  N1  UNL     1     -24.319  -4.433 -24.234  0.00  0.00    +0.000 N 
ATOM      8  C6  UNL     1     -24.025  -3.239 -23.642  0.00  0.00    +0.000 A 
ATOM      9  C7  UNL     1     -22.872  -3.497 -22.940  0.00  0.00    +0.000 A 
ATOM     10  N2  UNL     1     -22.491  -4.791 -23.149  0.00  0.00    +0.000 NA
ATOM     11  N3  UNL     1     -23.376  -5.353 -23.962  0.00  0.00    +0.000 NA
ENDBRANCH   1   7
TORSDOF 2
ENDMDL
MODEL 9
REMARK VINA RESULT:    -3.328      1.744      2.326
REMARK INTER + INTRA:          -3.857
REMARK INTER:                  -3.721
REMARK INTRA:                  -0.136
REMARK UNBOUND:                -0.140
REMARK  Name = /home/anacleto/Desktop/manuscript_Mpro/naturecomm/supplementary_file_S2/6-chemical-library/molecular_docking/3D_ligand_structure/1279.pdb
REMARK  2 active torsions:
REMARK  status: ('A' for Active; 'I' for Inactive)
REMARK    1  A    between atoms: C4_5  and  C5_6
REMARK    2  A    between atoms: C5_6  and  N1_7
REMARK                            x       y       z     vdW  Elec       q    Type
REMARK                         _______ _______ _______ _____ _____    ______ ____
ROOT
ATOM      1  C5  UNL     1     -21.550   6.451 -37.996  0.00  0.00    +0.000 C 
ENDROOT
BRANCH   1   6
ATOM      2  O1  UNL     1     -23.755   5.414 -37.760  0.00  0.00    +0.000 OA
ATOM      3  C1  UNL     1     -24.658   4.830 -38.711  0.00  0.00    +0.000 C 
ATOM      4  C2  UNL     1     -24.619   5.705 -39.946  0.00  0.00    +0.000 C 
ATOM      5  C3  UNL     1     -23.214   6.251 -39.896  0.00  0.00    +0.000 C 
ATOM      6  C4  UNL     1     -23.021   6.472 -38.402  0.00  0.00    +0.000 C 
ENDBRANCH   1   6
BRANCH   1   7
ATOM      7  N1  UNL     1     -20.939   7.764 -37.963  0.00  0.00    +0.000 N 
ATOM      8  C6  UNL     1     -21.461   8.927 -37.476  0.00  0.00    +0.000 A 
ATOM      9  C7  UNL     1     -20.513   9.870 -37.795  0.00  0.00    +0.000 A 
ATOM     10  N2  UNL     1     -19.492   9.276 -38.478  0.00  0.00    +0.000 NA
ATOM     11  N3  UNL     1     -19.772   7.985 -38.595  0.00  0.00    +0.000 NA
ENDBRANCH   1   7
TORSDOF 2
ENDMDL
