MODEL 1
REMARK VINA RESULT:    -4.234      0.000      0.000
REMARK INTER + INTRA:          -5.742
REMARK INTER:                  -5.238
REMARK INTRA:                  -0.504
REMARK UNBOUND:                -0.517
REMARK  Name = /home/anacleto/Desktop/manuscript_Mpro/naturecomm/supplementary_file_S2/6-chemical-library/molecular_docking/3D_ligand_structure/753.pdb
REMARK  4 active torsions:
REMARK  status: ('A' for Active; 'I' for Inactive)
REMARK    1  A    between atoms: N3_5  and  C3_6
REMARK    2  A    between atoms: C3_6  and  C4_7
REMARK    3  A    between atoms: N4_9  and  C5_10
REMARK    4  A    between atoms: C5_10  and  C6_11
REMARK                            x       y       z     vdW  Elec       q    Type
REMARK                         _______ _______ _______ _____ _____    ______ ____
ROOT
ATOM      1  C4  UNL     1     -22.587   6.341 -39.169  0.00  0.00    +0.000 C 
ATOM      2  O1  UNL     1     -22.260   6.674 -40.306  0.00  0.00    +0.000 OA
ATOM      3  N4  UNL     1     -23.702   5.581 -38.901  0.00  0.00    +0.000 N 
ATOM      4  H5  UNL     1     -23.936   5.364 -37.935  0.00  0.00    +0.000 HD
ENDROOT
BRANCH   1   5
ATOM      5  C3  UNL     1     -21.810   6.808 -37.959  0.00  0.00    +0.000 C 
BRANCH   5  10
ATOM      6  N1  UNL     1     -23.479   8.540 -37.707  0.00  0.00    +0.000 NA
ATOM      7  N2  UNL     1     -23.565   9.773 -37.228  0.00  0.00    +0.000 NA
ATOM      8  C1  UNL     1     -22.329  10.137 -36.770  0.00  0.00    +0.000 A 
ATOM      9  C2  UNL     1     -21.446   9.102 -36.961  0.00  0.00    +0.000 A 
ATOM     10  N3  UNL     1     -22.206   8.132 -37.539  0.00  0.00    +0.000 N 
ENDBRANCH   5  10
ENDBRANCH   1   5
BRANCH   3  11
ATOM     11  C5  UNL     1     -24.618   5.151 -39.929  0.00  0.00    +0.000 C 
BRANCH  11  12
ATOM     12  C6  UNL     1     -25.690   4.337 -39.279  0.00  0.00    +0.000 A 
ATOM     13  C7  UNL     1     -25.461   3.099 -38.589  0.00  0.00    +0.000 A 
ATOM     14  C8  UNL     1     -26.617   2.548 -38.083  0.00  0.00    +0.000 A 
ATOM     15  S1  UNL     1     -27.986   3.509 -38.428  0.00  0.00    +0.000 S 
ATOM     16  C9  UNL     1     -27.035   4.664 -39.257  0.00  0.00    +0.000 A 
ENDBRANCH  11  12
ENDBRANCH   3  11
TORSDOF 4
ENDMDL
MODEL 2
REMARK VINA RESULT:    -4.210     16.654     17.394
REMARK INTER + INTRA:          -5.712
REMARK INTER:                  -5.205
REMARK INTRA:                  -0.507
REMARK UNBOUND:                -0.517
REMARK  Name = /home/anacleto/Desktop/manuscript_Mpro/naturecomm/supplementary_file_S2/6-chemical-library/molecular_docking/3D_ligand_structure/753.pdb
REMARK  4 active torsions:
REMARK  status: ('A' for Active; 'I' for Inactive)
REMARK    1  A    between atoms: N3_5  and  C3_6
REMARK    2  A    between atoms: C3_6  and  C4_7
REMARK    3  A    between atoms: N4_9  and  C5_10
REMARK    4  A    between atoms: C5_10  and  C6_11
REMARK                            x       y       z     vdW  Elec       q    Type
REMARK                         _______ _______ _______ _____ _____    ______ ____
ROOT
ATOM      1  C4  UNL     1     -20.783  -5.836 -27.715  0.00  0.00    +0.000 C 
ATOM      2  O1  UNL     1     -21.375  -6.650 -28.421  0.00  0.00    +0.000 OA
ATOM      3  N4  UNL     1     -21.317  -5.319 -26.557  0.00  0.00    +0.000 N 
ATOM      4  H5  UNL     1     -20.789  -4.625 -26.032  0.00  0.00    +0.000 HD
ENDROOT
BRANCH   1   5
ATOM      5  C3  UNL     1     -19.432  -5.286 -28.113  0.00  0.00    +0.000 C 
BRANCH   5  10
ATOM      6  N1  UNL     1     -18.246  -5.775 -26.063  0.00  0.00    +0.000 NA
ATOM      7  N2  UNL     1     -17.557  -5.125 -25.137  0.00  0.00    +0.000 NA
ATOM      8  C1  UNL     1     -17.553  -3.797 -25.465  0.00  0.00    +0.000 A 
ATOM      9  C2  UNL     1     -18.254  -3.610 -26.631  0.00  0.00    +0.000 A 
ATOM     10  N3  UNL     1     -18.660  -4.866 -26.968  0.00  0.00    +0.000 N 
ENDBRANCH   5  10
ENDBRANCH   1   5
BRANCH   3  11
ATOM     11  C5  UNL     1     -22.643  -5.647 -26.095  0.00  0.00    +0.000 C 
BRANCH  11  12
ATOM     12  C6  UNL     1     -23.016  -4.666 -25.030  0.00  0.00    +0.000 A 
ATOM     13  C7  UNL     1     -22.477  -4.672 -23.699  0.00  0.00    +0.000 A 
ATOM     14  C8  UNL     1     -22.987  -3.664 -22.913  0.00  0.00    +0.000 A 
ATOM     15  S1  UNL     1     -24.113  -2.701 -23.761  0.00  0.00    +0.000 S 
ATOM     16  C9  UNL     1     -23.922  -3.632 -25.183  0.00  0.00    +0.000 A 
ENDBRANCH  11  12
ENDBRANCH   3  11
TORSDOF 4
ENDMDL
MODEL 3
REMARK VINA RESULT:    -4.175      2.976      6.285
REMARK INTER + INTRA:          -5.668
REMARK INTER:                  -5.148
REMARK INTRA:                  -0.520
REMARK UNBOUND:                -0.517
REMARK  Name = /home/anacleto/Desktop/manuscript_Mpro/naturecomm/supplementary_file_S2/6-chemical-library/molecular_docking/3D_ligand_structure/753.pdb
REMARK  4 active torsions:
REMARK  status: ('A' for Active; 'I' for Inactive)
REMARK    1  A    between atoms: N3_5  and  C3_6
REMARK    2  A    between atoms: C3_6  and  C4_7
REMARK    3  A    between atoms: N4_9  and  C5_10
REMARK    4  A    between atoms: C5_10  and  C6_11
REMARK                            x       y       z     vdW  Elec       q    Type
REMARK                         _______ _______ _______ _____ _____    ______ ____
ROOT
ATOM      1  C4  UNL     1     -24.676   5.640 -39.487  0.00  0.00    +0.000 C 
ATOM      2  O1  UNL     1     -24.057   5.332 -40.504  0.00  0.00    +0.000 OA
ATOM      3  N4  UNL     1     -24.058   6.023 -38.319  0.00  0.00    +0.000 N 
ATOM      4  H5  UNL     1     -24.626   6.237 -37.502  0.00  0.00    +0.000 HD
ENDROOT
BRANCH   1   5
ATOM      5  C3  UNL     1     -26.184   5.551 -39.428  0.00  0.00    +0.000 C 
BRANCH   5  10
ATOM      6  N1  UNL     1     -25.751   3.443 -38.325  0.00  0.00    +0.000 NA
ATOM      7  N2  UNL     1     -26.426   2.377 -37.922  0.00  0.00    +0.000 NA
ATOM      8  C1  UNL     1     -27.739   2.554 -38.262  0.00  0.00    +0.000 A 
ATOM      9  C2  UNL     1     -27.892   3.766 -38.889  0.00  0.00    +0.000 A 
ATOM     10  N3  UNL     1     -26.632   4.284 -38.899  0.00  0.00    +0.000 N 
ENDBRANCH   5  10
ENDBRANCH   1   5
BRANCH   3  11
ATOM     11  C5  UNL     1     -22.624   6.048 -38.167  0.00  0.00    +0.000 C 
BRANCH  11  12
ATOM     12  C6  UNL     1     -22.212   7.462 -37.913  0.00  0.00    +0.000 A 
ATOM     13  C7  UNL     1     -20.849   7.905 -37.822  0.00  0.00    +0.000 A 
ATOM     14  C8  UNL     1     -20.741   9.255 -37.580  0.00  0.00    +0.000 A 
ATOM     15  S1  UNL     1     -22.271  10.006 -37.461  0.00  0.00    +0.000 S 
ATOM     16  C9  UNL     1     -23.080   8.524 -37.733  0.00  0.00    +0.000 A 
ENDBRANCH  11  12
ENDBRANCH   3  11
TORSDOF 4
ENDMDL
MODEL 4
REMARK VINA RESULT:    -4.036     14.543     15.943
REMARK INTER + INTRA:          -5.498
REMARK INTER:                  -5.035
REMARK INTRA:                  -0.463
REMARK UNBOUND:                -0.517
REMARK  Name = /home/anacleto/Desktop/manuscript_Mpro/naturecomm/supplementary_file_S2/6-chemical-library/molecular_docking/3D_ligand_structure/753.pdb
REMARK  4 active torsions:
REMARK  status: ('A' for Active; 'I' for Inactive)
REMARK    1  A    between atoms: N3_5  and  C3_6
REMARK    2  A    between atoms: C3_6  and  C4_7
REMARK    3  A    between atoms: N4_9  and  C5_10
REMARK    4  A    between atoms: C5_10  and  C6_11
REMARK                            x       y       z     vdW  Elec       q    Type
REMARK                         _______ _______ _______ _____ _____    ______ ____
ROOT
ATOM      1  C4  UNL     1     -24.720  -4.019 -28.761  0.00  0.00    +0.000 C 
ATOM      2  O1  UNL     1     -24.907  -5.051 -29.404  0.00  0.00    +0.000 OA
ATOM      3  N4  UNL     1     -25.698  -3.421 -28.000  0.00  0.00    +0.000 N 
ATOM      4  H5  UNL     1     -25.489  -2.551 -27.515  0.00  0.00    +0.000 HD
ENDROOT
BRANCH   1   5
ATOM      5  C3  UNL     1     -23.398  -3.287 -28.817  0.00  0.00    +0.000 C 
BRANCH   5  10
ATOM      6  N1  UNL     1     -22.752  -4.298 -26.716  0.00  0.00    +0.000 NA
ATOM      7  N2  UNL     1     -21.669  -4.816 -26.157  0.00  0.00    +0.000 NA
ATOM      8  C1  UNL     1     -20.640  -4.715 -27.051  0.00  0.00    +0.000 A 
ATOM      9  C2  UNL     1     -21.091  -4.123 -28.206  0.00  0.00    +0.000 A 
ATOM     10  N3  UNL     1     -22.409  -3.888 -27.953  0.00  0.00    +0.000 N 
ENDBRANCH   5  10
ENDBRANCH   1   5
BRANCH   3  11
ATOM     11  C5  UNL     1     -27.048  -3.923 -27.931  0.00  0.00    +0.000 C 
BRANCH  11  12
ATOM     12  C6  UNL     1     -27.165  -4.762 -26.700  0.00  0.00    +0.000 A 
ATOM     13  C7  UNL     1     -26.105  -4.962 -25.752  0.00  0.00    +0.000 A 
ATOM     14  C8  UNL     1     -26.471  -5.780 -24.707  0.00  0.00    +0.000 A 
ATOM     15  S1  UNL     1     -28.086  -6.314 -24.850  0.00  0.00    +0.000 S 
ATOM     16  C9  UNL     1     -28.300  -5.453 -26.312  0.00  0.00    +0.000 A 
ENDBRANCH  11  12
ENDBRANCH   3  11
TORSDOF 4
ENDMDL
MODEL 5
REMARK VINA RESULT:    -3.960      3.715      6.044
REMARK INTER + INTRA:          -5.403
REMARK INTER:                  -4.902
REMARK INTRA:                  -0.501
REMARK UNBOUND:                -0.517
REMARK  Name = /home/anacleto/Desktop/manuscript_Mpro/naturecomm/supplementary_file_S2/6-chemical-library/molecular_docking/3D_ligand_structure/753.pdb
REMARK  4 active torsions:
REMARK  status: ('A' for Active; 'I' for Inactive)
REMARK    1  A    between atoms: N3_5  and  C3_6
REMARK    2  A    between atoms: C3_6  and  C4_7
REMARK    3  A    between atoms: N4_9  and  C5_10
REMARK    4  A    between atoms: C5_10  and  C6_11
REMARK                            x       y       z     vdW  Elec       q    Type
REMARK                         _______ _______ _______ _____ _____    ______ ____
ROOT
ATOM      1  C4  UNL     1     -26.564   4.220 -39.355  0.00  0.00    +0.000 C 
ATOM      2  O1  UNL     1     -26.499   3.051 -38.980  0.00  0.00    +0.000 OA
ATOM      3  N4  UNL     1     -25.576   5.144 -39.107  0.00  0.00    +0.000 N 
ATOM      4  H5  UNL     1     -25.703   6.104 -39.418  0.00  0.00    +0.000 HD
ENDROOT
BRANCH   1   5
ATOM      5  C3  UNL     1     -27.787   4.749 -40.070  0.00  0.00    +0.000 C 
BRANCH   5  10
ATOM      6  N1  UNL     1     -28.424   6.631 -38.691  0.00  0.00    +0.000 NA
ATOM      7  N2  UNL     1     -29.427   6.990 -37.903  0.00  0.00    +0.000 NA
ATOM      8  C1  UNL     1     -30.332   5.965 -37.878  0.00  0.00    +0.000 A 
ATOM      9  C2  UNL     1     -29.888   4.940 -38.676  0.00  0.00    +0.000 A 
ATOM     10  N3  UNL     1     -28.703   5.402 -39.164  0.00  0.00    +0.000 N 
ENDBRANCH   5  10
ENDBRANCH   1   5
BRANCH   3  11
ATOM     11  C5  UNL     1     -24.396   4.836 -38.337  0.00  0.00    +0.000 C 
BRANCH  11  12
ATOM     12  C6  UNL     1     -23.581   6.084 -38.224  0.00  0.00    +0.000 A 
ATOM     13  C7  UNL     1     -22.178   6.110 -37.921  0.00  0.00    +0.000 A 
ATOM     14  C8  UNL     1     -21.666   7.387 -37.872  0.00  0.00    +0.000 A 
ATOM     15  S1  UNL     1     -22.860   8.566 -38.190  0.00  0.00    +0.000 S 
ATOM     16  C9  UNL     1     -24.066   7.369 -38.391  0.00  0.00    +0.000 A 
ENDBRANCH  11  12
ENDBRANCH   3  11
TORSDOF 4
ENDMDL
MODEL 6
REMARK VINA RESULT:    -3.949      3.534      6.149
REMARK INTER + INTRA:          -5.390
REMARK INTER:                  -4.855
REMARK INTRA:                  -0.535
REMARK UNBOUND:                -0.517
REMARK  Name = /home/anacleto/Desktop/manuscript_Mpro/naturecomm/supplementary_file_S2/6-chemical-library/molecular_docking/3D_ligand_structure/753.pdb
REMARK  4 active torsions:
REMARK  status: ('A' for Active; 'I' for Inactive)
REMARK    1  A    between atoms: N3_5  and  C3_6
REMARK    2  A    between atoms: C3_6  and  C4_7
REMARK    3  A    between atoms: N4_9  and  C5_10
REMARK    4  A    between atoms: C5_10  and  C6_11
REMARK                            x       y       z     vdW  Elec       q    Type
REMARK                         _______ _______ _______ _____ _____    ______ ____
ROOT
ATOM      1  C4  UNL     1     -24.251   6.934 -38.611  0.00  0.00    +0.000 C 
ATOM      2  O1  UNL     1     -24.286   7.857 -37.799  0.00  0.00    +0.000 OA
ATOM      3  N4  UNL     1     -23.230   6.013 -38.658  0.00  0.00    +0.000 N 
ATOM      4  H5  UNL     1     -23.245   5.290 -39.374  0.00  0.00    +0.000 HD
ENDROOT
BRANCH   1   5
ATOM      5  C3  UNL     1     -25.314   6.785 -39.677  0.00  0.00    +0.000 C 
BRANCH   5  10
ATOM      6  N1  UNL     1     -26.207   4.692 -38.858  0.00  0.00    +0.000 NA
ATOM      7  N2  UNL     1     -27.376   4.190 -38.486  0.00  0.00    +0.000 NA
ATOM      8  C1  UNL     1     -28.323   5.163 -38.641  0.00  0.00    +0.000 A 
ATOM      9  C2  UNL     1     -27.733   6.308 -39.117  0.00  0.00    +0.000 A 
ATOM     10  N3  UNL     1     -26.418   5.969 -39.230  0.00  0.00    +0.000 N 
ENDBRANCH   5  10
ENDBRANCH   1   5
BRANCH   3  11
ATOM     11  C5  UNL     1     -22.080   6.079 -37.791  0.00  0.00    +0.000 C 
BRANCH  11  12
ATOM     12  C6  UNL     1     -21.066   6.966 -38.437  0.00  0.00    +0.000 A 
ATOM     13  C7  UNL     1     -20.567   8.182 -37.857  0.00  0.00    +0.000 A 
ATOM     14  C8  UNL     1     -19.642   8.813 -38.656  0.00  0.00    +0.000 A 
ATOM     15  S1  UNL     1     -19.361   7.957 -40.107  0.00  0.00    +0.000 S 
ATOM     16  C9  UNL     1     -20.479   6.739 -39.669  0.00  0.00    +0.000 A 
ENDBRANCH  11  12
ENDBRANCH   3  11
TORSDOF 4
ENDMDL
MODEL 7
REMARK VINA RESULT:    -3.929     16.483     17.297
REMARK INTER + INTRA:          -5.365
REMARK INTER:                  -4.843
REMARK INTRA:                  -0.521
REMARK UNBOUND:                -0.517
REMARK  Name = /home/anacleto/Desktop/manuscript_Mpro/naturecomm/supplementary_file_S2/6-chemical-library/molecular_docking/3D_ligand_structure/753.pdb
REMARK  4 active torsions:
REMARK  status: ('A' for Active; 'I' for Inactive)
REMARK    1  A    between atoms: N3_5  and  C3_6
REMARK    2  A    between atoms: C3_6  and  C4_7
REMARK    3  A    between atoms: N4_9  and  C5_10
REMARK    4  A    between atoms: C5_10  and  C6_11
REMARK                            x       y       z     vdW  Elec       q    Type
REMARK                         _______ _______ _______ _____ _____    ______ ____
ROOT
ATOM      1  C4  UNL     1     -21.836  -4.824 -26.810  0.00  0.00    +0.000 C 
ATOM      2  O1  UNL     1     -22.157  -4.296 -27.873  0.00  0.00    +0.000 OA
ATOM      3  N4  UNL     1     -20.529  -5.063 -26.455  0.00  0.00    +0.000 N 
ATOM      4  H5  UNL     1     -20.330  -5.531 -25.573  0.00  0.00    +0.000 HD
ENDROOT
BRANCH   1   5
ATOM      5  C3  UNL     1     -22.879  -5.316 -25.831  0.00  0.00    +0.000 C 
BRANCH   5  10
ATOM      6  N1  UNL     1     -22.220  -4.434 -23.678  0.00  0.00    +0.000 NA
ATOM      7  N2  UNL     1     -22.608  -3.491 -22.831  0.00  0.00    +0.000 NA
ATOM      8  C1  UNL     1     -23.709  -2.876 -23.359  0.00  0.00    +0.000 A 
ATOM      9  C2  UNL     1     -24.017  -3.443 -24.571  0.00  0.00    +0.000 A 
ATOM     10  N3  UNL     1     -23.062  -4.401 -24.729  0.00  0.00    +0.000 N 
ENDBRANCH   5  10
ENDBRANCH   1   5
BRANCH   3  11
ATOM     11  C5  UNL     1     -19.417  -4.763 -27.323  0.00  0.00    +0.000 C 
BRANCH  11  12
ATOM     12  C6  UNL     1     -19.198  -5.942 -28.214  0.00  0.00    +0.000 A 
ATOM     13  C7  UNL     1     -19.426  -5.940 -29.632  0.00  0.00    +0.000 A 
ATOM     14  C8  UNL     1     -19.149  -7.153 -30.219  0.00  0.00    +0.000 A 
ATOM     15  S1  UNL     1     -18.613  -8.307 -29.079  0.00  0.00    +0.000 S 
ATOM     16  C9  UNL     1     -18.751  -7.184 -27.796  0.00  0.00    +0.000 A 
ENDBRANCH  11  12
ENDBRANCH   3  11
TORSDOF 4
ENDMDL
MODEL 8
REMARK VINA RESULT:    -3.900     15.175     16.879
REMARK INTER + INTRA:          -5.330
REMARK INTER:                  -4.731
REMARK INTRA:                  -0.599
REMARK UNBOUND:                -0.517
REMARK  Name = /home/anacleto/Desktop/manuscript_Mpro/naturecomm/supplementary_file_S2/6-chemical-library/molecular_docking/3D_ligand_structure/753.pdb
REMARK  4 active torsions:
REMARK  status: ('A' for Active; 'I' for Inactive)
REMARK    1  A    between atoms: N3_5  and  C3_6
REMARK    2  A    between atoms: C3_6  and  C4_7
REMARK    3  A    between atoms: N4_9  and  C5_10
REMARK    4  A    between atoms: C5_10  and  C6_11
REMARK                            x       y       z     vdW  Elec       q    Type
REMARK                         _______ _______ _______ _____ _____    ______ ____
ROOT
ATOM      1  C4  UNL     1     -23.371  -4.426 -28.143  0.00  0.00    +0.000 C 
ATOM      2  O1  UNL     1     -22.832  -5.386 -28.691  0.00  0.00    +0.000 OA
ATOM      3  N4  UNL     1     -23.099  -4.051 -26.848  0.00  0.00    +0.000 N 
ATOM      4  H5  UNL     1     -23.602  -3.265 -26.441  0.00  0.00    +0.000 HD
ENDROOT
BRANCH   1   5
ATOM      5  C3  UNL     1     -24.439  -3.619 -28.846  0.00  0.00    +0.000 C 
BRANCH   5  10
ATOM      6  N1  UNL     1     -25.947  -4.916 -27.469  0.00  0.00    +0.000 NA
ATOM      7  N2  UNL     1     -27.229  -4.920 -27.135  0.00  0.00    +0.000 NA
ATOM      8  C1  UNL     1     -27.841  -3.889 -27.791  0.00  0.00    +0.000 A 
ATOM      9  C2  UNL     1     -26.918  -3.216 -28.553  0.00  0.00    +0.000 A 
ATOM     10  N3  UNL     1     -25.756  -3.886 -28.316  0.00  0.00    +0.000 N 
ENDBRANCH   5  10
ENDBRANCH   1   5
BRANCH   3  11
ATOM     11  C5  UNL     1     -22.194  -4.784 -25.997  0.00  0.00    +0.000 C 
BRANCH  11  12
ATOM     12  C6  UNL     1     -22.863  -4.984 -24.676  0.00  0.00    +0.000 A 
ATOM     13  C7  UNL     1     -24.091  -5.705 -24.491  0.00  0.00    +0.000 A 
ATOM     14  C8  UNL     1     -24.495  -5.742 -23.176  0.00  0.00    +0.000 A 
ATOM     15  S1  UNL     1     -23.407  -4.915 -22.150  0.00  0.00    +0.000 S 
ATOM     16  C9  UNL     1     -22.394  -4.504 -23.465  0.00  0.00    +0.000 A 
ENDBRANCH  11  12
ENDBRANCH   3  11
TORSDOF 4
ENDMDL
MODEL 9
REMARK VINA RESULT:    -3.851     16.983     18.386
REMARK INTER + INTRA:          -5.270
REMARK INTER:                  -4.752
REMARK INTRA:                  -0.517
REMARK UNBOUND:                -0.517
REMARK  Name = /home/anacleto/Desktop/manuscript_Mpro/naturecomm/supplementary_file_S2/6-chemical-library/molecular_docking/3D_ligand_structure/753.pdb
REMARK  4 active torsions:
REMARK  status: ('A' for Active; 'I' for Inactive)
REMARK    1  A    between atoms: N3_5  and  C3_6
REMARK    2  A    between atoms: C3_6  and  C4_7
REMARK    3  A    between atoms: N4_9  and  C5_10
REMARK    4  A    between atoms: C5_10  and  C6_11
REMARK                            x       y       z     vdW  Elec       q    Type
REMARK                         _______ _______ _______ _____ _____    ______ ____
ROOT
ATOM      1  C4  UNL     1     -23.609  -3.563 -23.874  0.00  0.00    +0.000 C 
ATOM      2  O1  UNL     1     -23.982  -2.394 -23.793  0.00  0.00    +0.000 OA
ATOM      3  N4  UNL     1     -23.690  -4.298 -25.034  0.00  0.00    +0.000 N 
ATOM      4  H5  UNL     1     -23.393  -5.271 -25.029  0.00  0.00    +0.000 HD
ENDROOT
BRANCH   1   5
ATOM      5  C3  UNL     1     -23.090  -4.308 -22.665  0.00  0.00    +0.000 C 
BRANCH   5  10
ATOM      6  N1  UNL     1     -25.395  -5.000 -22.430  0.00  0.00    +0.000 NA
ATOM      7  N2  UNL     1     -26.160  -5.616 -21.540  0.00  0.00    +0.000 NA
ATOM      8  C1  UNL     1     -25.388  -5.913 -20.451  0.00  0.00    +0.000 A 
ATOM      9  C2  UNL     1     -24.103  -5.478 -20.666  0.00  0.00    +0.000 A 
ATOM     10  N3  UNL     1     -24.155  -4.924 -21.909  0.00  0.00    +0.000 N 
ENDBRANCH   5  10
ENDBRANCH   1   5
BRANCH   3  11
ATOM     11  C5  UNL     1     -24.269  -3.778 -26.248  0.00  0.00    +0.000 C 
BRANCH  11  12
ATOM     12  C6  UNL     1     -25.664  -4.304 -26.356  0.00  0.00    +0.000 A 
ATOM     13  C7  UNL     1     -26.716  -3.665 -27.095  0.00  0.00    +0.000 A 
ATOM     14  C8  UNL     1     -27.906  -4.353 -27.033  0.00  0.00    +0.000 A 
ATOM     15  S1  UNL     1     -27.775  -5.771 -26.090  0.00  0.00    +0.000 S 
ATOM     16  C9  UNL     1     -26.124  -5.466 -25.762  0.00  0.00    +0.000 A 
ENDBRANCH  11  12
ENDBRANCH   3  11
TORSDOF 4
ENDMDL
