MODEL 1
REMARK VINA RESULT:    -5.618      0.000      0.000
REMARK INTER + INTRA:          -6.930
REMARK INTER:                  -6.651
REMARK INTRA:                  -0.278
REMARK UNBOUND:                -0.326
REMARK  Name = /home/anacleto/Desktop/manuscript_Mpro/naturecomm/supplementary_file_S2/6-chemical-library/molecular_docking/3D_ligand_structure/618.pdb
REMARK  3 active torsions:
REMARK  status: ('A' for Active; 'I' for Inactive)
REMARK    1  A    between atoms: C4_7  and  C5_8
REMARK    2  A    between atoms: N3_10  and  C6_11
REMARK    3  A    between atoms: C6_11  and  C7_12
REMARK                            x       y       z     vdW  Elec       q    Type
REMARK                         _______ _______ _______ _____ _____    ______ ____
ROOT
ATOM      1  C5  UNL     1      14.884  14.810  -2.050  0.00  0.00    +0.000 C 
ATOM      2  O2  UNL     1      15.967  14.777  -1.479  0.00  0.00    +0.000 OA
ATOM      3  N3  UNL     1      14.417  13.820  -2.880  0.00  0.00    +0.000 N 
ATOM      4  H4  UNL     1      13.548  14.017  -3.367  0.00  0.00    +0.000 HD
ENDROOT
BRANCH   1  11
ATOM      5  N1  UNL     1      12.650  15.715  -1.426  0.00  0.00    +0.000 NA
ATOM      6  C1  UNL     1      11.863  16.733  -1.353  0.00  0.00    +0.000 A 
ATOM      7  N2  UNL     1      12.206  17.996  -1.731  0.00  0.00    +0.000 N 
ATOM      8  C2  UNL     1      13.441  18.293  -2.225  0.00  0.00    +0.000 A 
ATOM      9  O1  UNL     1      13.766  19.423  -2.560  0.00  0.00    +0.000 OA
ATOM     10  C3  UNL     1      14.363  17.158  -2.329  0.00  0.00    +0.000 A 
ATOM     11  C4  UNL     1      13.916  15.961  -1.928  0.00  0.00    +0.000 A 
ATOM     12  H2  UNL     1      11.556  18.764  -1.653  0.00  0.00    +0.000 HD
ENDBRANCH   1  11
BRANCH   3  13
ATOM     13  C6  UNL     1      15.223  12.693  -3.275  0.00  0.00    +0.000 C 
BRANCH  13  14
ATOM     14  C7  UNL     1      14.779  12.147  -4.599  0.00  0.00    +0.000 A 
ATOM     15  C8  UNL     1      15.117  12.770  -5.803  0.00  0.00    +0.000 A 
ATOM     16  C9  UNL     1      14.694  12.217  -7.009  0.00  0.00    +0.000 A 
ATOM     17  C10 UNL     1      13.951  11.049  -6.970  0.00  0.00    +0.000 A 
ATOM     18  N4  UNL     1      13.614  10.412  -5.829  0.00  0.00    +0.000 NA
ATOM     19  C11 UNL     1      14.038  10.970  -4.672  0.00  0.00    +0.000 A 
ENDBRANCH  13  14
ENDBRANCH   3  13
TORSDOF 3
ENDMDL
MODEL 2
REMARK VINA RESULT:    -5.347      3.447      5.520
REMARK INTER + INTRA:          -6.611
REMARK INTER:                  -6.312
REMARK INTRA:                  -0.299
REMARK UNBOUND:                -0.326
REMARK  Name = /home/anacleto/Desktop/manuscript_Mpro/naturecomm/supplementary_file_S2/6-chemical-library/molecular_docking/3D_ligand_structure/618.pdb
REMARK  3 active torsions:
REMARK  status: ('A' for Active; 'I' for Inactive)
REMARK    1  A    between atoms: C4_7  and  C5_8
REMARK    2  A    between atoms: N3_10  and  C6_11
REMARK    3  A    between atoms: C6_11  and  C7_12
REMARK                            x       y       z     vdW  Elec       q    Type
REMARK                         _______ _______ _______ _____ _____    ______ ____
ROOT
ATOM      1  C5  UNL     1      14.920  14.763  -1.743  0.00  0.00    +0.000 C 
ATOM      2  O2  UNL     1      14.785  13.728  -2.384  0.00  0.00    +0.000 OA
ATOM      3  N3  UNL     1      15.991  15.033  -0.926  0.00  0.00    +0.000 N 
ATOM      4  H4  UNL     1      15.931  15.885  -0.377  0.00  0.00    +0.000 HD
ENDROOT
BRANCH   1  11
ATOM      5  N1  UNL     1      12.617  15.620  -1.344  0.00  0.00    +0.000 NA
ATOM      6  C1  UNL     1      11.796  16.612  -1.385  0.00  0.00    +0.000 A 
ATOM      7  N2  UNL     1      12.129  17.866  -1.799  0.00  0.00    +0.000 N 
ATOM      8  C2  UNL     1      13.390  18.181  -2.210  0.00  0.00    +0.000 A 
ATOM      9  O1  UNL     1      13.706  19.305  -2.576  0.00  0.00    +0.000 OA
ATOM     10  C3  UNL     1      14.352  17.075  -2.183  0.00  0.00    +0.000 A 
ATOM     11  C4  UNL     1      13.911  15.885  -1.757  0.00  0.00    +0.000 A 
ATOM     12  H2  UNL     1      11.452  18.614  -1.813  0.00  0.00    +0.000 HD
ENDBRANCH   1  11
BRANCH   3  13
ATOM     13  C6  UNL     1      17.007  14.056  -0.630  0.00  0.00    +0.000 C 
BRANCH  13  14
ATOM     14  C7  UNL     1      18.273  14.714  -0.167  0.00  0.00    +0.000 A 
ATOM     15  C8  UNL     1      19.490  14.027  -0.135  0.00  0.00    +0.000 A 
ATOM     16  C9  UNL     1      20.642  14.684   0.287  0.00  0.00    +0.000 A 
ATOM     17  C10 UNL     1      20.540  16.014   0.658  0.00  0.00    +0.000 A 
ATOM     18  N4  UNL     1      19.386  16.714   0.631  0.00  0.00    +0.000 NA
ATOM     19  C11 UNL     1      18.283  16.052   0.215  0.00  0.00    +0.000 A 
ENDBRANCH  13  14
ENDBRANCH   3  13
TORSDOF 3
ENDMDL
MODEL 3
REMARK VINA RESULT:    -5.320     15.957     17.244
REMARK INTER + INTRA:          -6.579
REMARK INTER:                  -6.312
REMARK INTRA:                  -0.268
REMARK UNBOUND:                -0.326
REMARK  Name = /home/anacleto/Desktop/manuscript_Mpro/naturecomm/supplementary_file_S2/6-chemical-library/molecular_docking/3D_ligand_structure/618.pdb
REMARK  3 active torsions:
REMARK  status: ('A' for Active; 'I' for Inactive)
REMARK    1  A    between atoms: C4_7  and  C5_8
REMARK    2  A    between atoms: N3_10  and  C6_11
REMARK    3  A    between atoms: C6_11  and  C7_12
REMARK                            x       y       z     vdW  Elec       q    Type
REMARK                         _______ _______ _______ _____ _____    ______ ____
ROOT
ATOM      1  C5  UNL     1      18.204   3.767   9.287  0.00  0.00    +0.000 C 
ATOM      2  O2  UNL     1      18.811   2.719   9.471  0.00  0.00    +0.000 OA
ATOM      3  N3  UNL     1      17.017   3.863   8.603  0.00  0.00    +0.000 N 
ATOM      4  H4  UNL     1      16.671   4.803   8.437  0.00  0.00    +0.000 HD
ENDROOT
BRANCH   1  11
ATOM      5  N1  UNL     1      18.734   5.339  11.144  0.00  0.00    +0.000 NA
ATOM      6  C1  UNL     1      19.152   6.503  11.506  0.00  0.00    +0.000 A 
ATOM      7  N2  UNL     1      19.544   7.480  10.643  0.00  0.00    +0.000 N 
ATOM      8  C2  UNL     1      19.530   7.300   9.292  0.00  0.00    +0.000 A 
ATOM      9  O1  UNL     1      19.888   8.165   8.505  0.00  0.00    +0.000 OA
ATOM     10  C3  UNL     1      19.055   5.989   8.840  0.00  0.00    +0.000 A 
ATOM     11  C4  UNL     1      18.694   5.106   9.780  0.00  0.00    +0.000 A 
ATOM     12  H2  UNL     1      19.867   8.377  10.973  0.00  0.00    +0.000 HD
ENDBRANCH   1  11
BRANCH   3  13
ATOM     13  C6  UNL     1      16.429   2.748   7.907  0.00  0.00    +0.000 C 
BRANCH  13  14
ATOM     14  C7  UNL     1      15.224   2.229   8.634  0.00  0.00    +0.000 A 
ATOM     15  C8  UNL     1      14.363   1.291   8.057  0.00  0.00    +0.000 A 
ATOM     16  C9  UNL     1      13.265   0.828   8.777  0.00  0.00    +0.000 A 
ATOM     17  C10 UNL     1      13.068   1.314  10.058  0.00  0.00    +0.000 A 
ATOM     18  N4  UNL     1      13.882   2.211  10.654  0.00  0.00    +0.000 NA
ATOM     19  C11 UNL     1      14.942   2.644   9.933  0.00  0.00    +0.000 A 
ENDBRANCH  13  14
ENDBRANCH   3  13
TORSDOF 3
ENDMDL
MODEL 4
REMARK VINA RESULT:    -5.297      3.864      6.716
REMARK INTER + INTRA:          -6.552
REMARK INTER:                  -6.252
REMARK INTRA:                  -0.300
REMARK UNBOUND:                -0.326
REMARK  Name = /home/anacleto/Desktop/manuscript_Mpro/naturecomm/supplementary_file_S2/6-chemical-library/molecular_docking/3D_ligand_structure/618.pdb
REMARK  3 active torsions:
REMARK  status: ('A' for Active; 'I' for Inactive)
REMARK    1  A    between atoms: C4_7  and  C5_8
REMARK    2  A    between atoms: N3_10  and  C6_11
REMARK    3  A    between atoms: C6_11  and  C7_12
REMARK                            x       y       z     vdW  Elec       q    Type
REMARK                         _______ _______ _______ _____ _____    ______ ____
ROOT
ATOM      1  C5  UNL     1      16.153  11.691  -2.034  0.00  0.00    +0.000 C 
ATOM      2  O2  UNL     1      15.787  10.928  -1.148  0.00  0.00    +0.000 OA
ATOM      3  N3  UNL     1      17.371  12.325  -2.053  0.00  0.00    +0.000 N 
ATOM      4  H4  UNL     1      17.508  13.007  -2.793  0.00  0.00    +0.000 HD
ENDROOT
BRANCH   1  11
ATOM      5  N1  UNL     1      15.097  13.386  -3.520  0.00  0.00    +0.000 NA
ATOM      6  C1  UNL     1      14.352  13.632  -4.543  0.00  0.00    +0.000 A 
ATOM      7  N2  UNL     1      13.777  12.675  -5.321  0.00  0.00    +0.000 N 
ATOM      8  C2  UNL     1      13.949  11.345  -5.077  0.00  0.00    +0.000 A 
ATOM      9  O1  UNL     1      13.446  10.473  -5.773  0.00  0.00    +0.000 OA
ATOM     10  C3  UNL     1      14.787  11.025  -3.918  0.00  0.00    +0.000 A 
ATOM     11  C4  UNL     1      15.299  12.049  -3.225  0.00  0.00    +0.000 A 
ATOM     12  H2  UNL     1      13.202  12.915  -6.115  0.00  0.00    +0.000 HD
ENDBRANCH   1  11
BRANCH   3  13
ATOM     13  C6  UNL     1      18.296  12.264  -0.951  0.00  0.00    +0.000 C 
BRANCH  13  14
ATOM     14  C7  UNL     1      18.496  13.616  -0.335  0.00  0.00    +0.000 A 
ATOM     15  C8  UNL     1      19.743  14.032   0.140  0.00  0.00    +0.000 A 
ATOM     16  C9  UNL     1      19.883  15.303   0.691  0.00  0.00    +0.000 A 
ATOM     17  C10 UNL     1      18.768  16.122   0.742  0.00  0.00    +0.000 A 
ATOM     18  N4  UNL     1      17.550  15.762   0.285  0.00  0.00    +0.000 NA
ATOM     19  C11 UNL     1      17.443  14.522  -0.247  0.00  0.00    +0.000 A 
ENDBRANCH  13  14
ENDBRANCH   3  13
TORSDOF 3
ENDMDL
MODEL 5
REMARK VINA RESULT:    -5.239      4.241      6.764
REMARK INTER + INTRA:          -6.484
REMARK INTER:                  -6.095
REMARK INTRA:                  -0.389
REMARK UNBOUND:                -0.326
REMARK  Name = /home/anacleto/Desktop/manuscript_Mpro/naturecomm/supplementary_file_S2/6-chemical-library/molecular_docking/3D_ligand_structure/618.pdb
REMARK  3 active torsions:
REMARK  status: ('A' for Active; 'I' for Inactive)
REMARK    1  A    between atoms: C4_7  and  C5_8
REMARK    2  A    between atoms: N3_10  and  C6_11
REMARK    3  A    between atoms: C6_11  and  C7_12
REMARK                            x       y       z     vdW  Elec       q    Type
REMARK                         _______ _______ _______ _____ _____    ______ ____
ROOT
ATOM      1  C5  UNL     1      16.281  10.918  -3.594  0.00  0.00    +0.000 C 
ATOM      2  O2  UNL     1      17.303  10.243  -3.597  0.00  0.00    +0.000 OA
ATOM      3  N3  UNL     1      15.775  11.550  -2.485  0.00  0.00    +0.000 N 
ATOM      4  H4  UNL     1      14.869  11.994  -2.597  0.00  0.00    +0.000 HD
ENDROOT
BRANCH   1  11
ATOM      5  N1  UNL     1      16.050  11.298  -6.045  0.00  0.00    +0.000 NA
ATOM      6  C1  UNL     1      15.271  11.489  -7.053  0.00  0.00    +0.000 A 
ATOM      7  N2  UNL     1      13.912  11.535  -6.975  0.00  0.00    +0.000 N 
ATOM      8  C2  UNL     1      13.250  11.375  -5.795  0.00  0.00    +0.000 A 
ATOM      9  O1  UNL     1      12.029  11.405  -5.711  0.00  0.00    +0.000 OA
ATOM     10  C3  UNL     1      14.103  11.161  -4.623  0.00  0.00    +0.000 A 
ATOM     11  C4  UNL     1      15.426  11.135  -4.819  0.00  0.00    +0.000 A 
ATOM     12  H2  UNL     1      13.342  11.685  -7.794  0.00  0.00    +0.000 HD
ENDBRANCH   1  11
BRANCH   3  13
ATOM     13  C6  UNL     1      16.327  11.366  -1.167  0.00  0.00    +0.000 C 
BRANCH  13  14
ATOM     14  C7  UNL     1      17.276  12.473  -0.818  0.00  0.00    +0.000 A 
ATOM     15  C8  UNL     1      18.659  12.276  -0.790  0.00  0.00    +0.000 A 
ATOM     16  C9  UNL     1      19.501  13.339  -0.474  0.00  0.00    +0.000 A 
ATOM     17  C10 UNL     1      18.930  14.571  -0.203  0.00  0.00    +0.000 A 
ATOM     18  N4  UNL     1      17.601  14.803  -0.230  0.00  0.00    +0.000 NA
ATOM     19  C11 UNL     1      16.806  13.754  -0.541  0.00  0.00    +0.000 A 
ENDBRANCH  13  14
ENDBRANCH   3  13
TORSDOF 3
ENDMDL
MODEL 6
REMARK VINA RESULT:    -5.135      4.146      7.233
REMARK INTER + INTRA:          -6.361
REMARK INTER:                  -5.994
REMARK INTRA:                  -0.367
REMARK UNBOUND:                -0.326
REMARK  Name = /home/anacleto/Desktop/manuscript_Mpro/naturecomm/supplementary_file_S2/6-chemical-library/molecular_docking/3D_ligand_structure/618.pdb
REMARK  3 active torsions:
REMARK  status: ('A' for Active; 'I' for Inactive)
REMARK    1  A    between atoms: C4_7  and  C5_8
REMARK    2  A    between atoms: N3_10  and  C6_11
REMARK    3  A    between atoms: C6_11  and  C7_12
REMARK                            x       y       z     vdW  Elec       q    Type
REMARK                         _______ _______ _______ _____ _____    ______ ____
ROOT
ATOM      1  C5  UNL     1      15.977  14.315  -1.588  0.00  0.00    +0.000 C 
ATOM      2  O2  UNL     1      15.715  15.320  -2.238  0.00  0.00    +0.000 OA
ATOM      3  N3  UNL     1      16.502  14.331  -0.319  0.00  0.00    +0.000 N 
ATOM      4  H4  UNL     1      16.765  13.429   0.067  0.00  0.00    +0.000 HD
ENDROOT
BRANCH   1  11
ATOM      5  N1  UNL     1      16.336  11.857  -1.414  0.00  0.00    +0.000 NA
ATOM      6  C1  UNL     1      16.134  10.685  -1.909  0.00  0.00    +0.000 A 
ATOM      7  N2  UNL     1      15.417  10.442  -3.040  0.00  0.00    +0.000 N 
ATOM      8  C2  UNL     1      14.836  11.445  -3.757  0.00  0.00    +0.000 A 
ATOM      9  O1  UNL     1      14.181  11.242  -4.770  0.00  0.00    +0.000 OA
ATOM     10  C3  UNL     1      15.047  12.796  -3.228  0.00  0.00    +0.000 A 
ATOM     11  C4  UNL     1      15.771  12.913  -2.108  0.00  0.00    +0.000 A 
ATOM     12  H2  UNL     1      15.284   9.505  -3.390  0.00  0.00    +0.000 HD
ENDBRANCH   1  11
BRANCH   3  13
ATOM     13  C6  UNL     1      16.928  15.543   0.330  0.00  0.00    +0.000 C 
BRANCH  13  14
ATOM     14  C7  UNL     1      18.423  15.670   0.314  0.00  0.00    +0.000 A 
ATOM     15  C8  UNL     1      19.256  14.548   0.296  0.00  0.00    +0.000 A 
ATOM     16  C9  UNL     1      20.638  14.715   0.267  0.00  0.00    +0.000 A 
ATOM     17  C10 UNL     1      21.142  16.004   0.248  0.00  0.00    +0.000 A 
ATOM     18  N4  UNL     1      20.371  17.112   0.254  0.00  0.00    +0.000 NA
ATOM     19  C11 UNL     1      19.032  16.921   0.281  0.00  0.00    +0.000 A 
ENDBRANCH  13  14
ENDBRANCH   3  13
TORSDOF 3
ENDMDL
MODEL 7
REMARK VINA RESULT:    -5.132      3.867      5.078
REMARK INTER + INTRA:          -6.358
REMARK INTER:                  -6.003
REMARK INTRA:                  -0.356
REMARK UNBOUND:                -0.326
REMARK  Name = /home/anacleto/Desktop/manuscript_Mpro/naturecomm/supplementary_file_S2/6-chemical-library/molecular_docking/3D_ligand_structure/618.pdb
REMARK  3 active torsions:
REMARK  status: ('A' for Active; 'I' for Inactive)
REMARK    1  A    between atoms: C4_7  and  C5_8
REMARK    2  A    between atoms: N3_10  and  C6_11
REMARK    3  A    between atoms: C6_11  and  C7_12
REMARK                            x       y       z     vdW  Elec       q    Type
REMARK                         _______ _______ _______ _____ _____    ______ ____
ROOT
ATOM      1  C5  UNL     1      18.084  12.849  -0.843  0.00  0.00    +0.000 C 
ATOM      2  O2  UNL     1      18.875  12.154  -1.469  0.00  0.00    +0.000 OA
ATOM      3  N3  UNL     1      16.753  12.551  -0.683  0.00  0.00    +0.000 N 
ATOM      4  H4  UNL     1      16.187  13.260  -0.227  0.00  0.00    +0.000 HD
ENDROOT
BRANCH   1  11
ATOM      5  N1  UNL     1      17.478  15.076   0.091  0.00  0.00    +0.000 NA
ATOM      6  C1  UNL     1      17.866  16.166   0.658  0.00  0.00    +0.000 A 
ATOM      7  N2  UNL     1      19.156  16.436   1.002  0.00  0.00    +0.000 N 
ATOM      8  C2  UNL     1      20.166  15.551   0.771  0.00  0.00    +0.000 A 
ATOM      9  O1  UNL     1      21.327  15.775   1.083  0.00  0.00    +0.000 OA
ATOM     10  C3  UNL     1      19.765  14.299   0.122  0.00  0.00    +0.000 A 
ATOM     11  C4  UNL     1      18.468  14.144  -0.171  0.00  0.00    +0.000 A 
ATOM     12  H2  UNL     1      19.412  17.305   1.447  0.00  0.00    +0.000 HD
ENDBRANCH   1  11
BRANCH   3  13
ATOM     13  C6  UNL     1      16.117  11.450  -1.359  0.00  0.00    +0.000 C 
BRANCH  13  14
ATOM     14  C7  UNL     1      15.460  11.900  -2.630  0.00  0.00    +0.000 A 
ATOM     15  C8  UNL     1      15.272  11.032  -3.709  0.00  0.00    +0.000 A 
ATOM     16  C9  UNL     1      14.644  11.492  -4.863  0.00  0.00    +0.000 A 
ATOM     17  C10 UNL     1      14.215  12.808  -4.897  0.00  0.00    +0.000 A 
ATOM     18  N4  UNL     1      14.369  13.673  -3.873  0.00  0.00    +0.000 NA
ATOM     19  C11 UNL     1      14.981  13.200  -2.763  0.00  0.00    +0.000 A 
ENDBRANCH  13  14
ENDBRANCH   3  13
TORSDOF 3
ENDMDL
MODEL 8
REMARK VINA RESULT:    -5.036      4.544      6.789
REMARK INTER + INTRA:          -6.246
REMARK INTER:                  -5.901
REMARK INTRA:                  -0.345
REMARK UNBOUND:                -0.326
REMARK  Name = /home/anacleto/Desktop/manuscript_Mpro/naturecomm/supplementary_file_S2/6-chemical-library/molecular_docking/3D_ligand_structure/618.pdb
REMARK  3 active torsions:
REMARK  status: ('A' for Active; 'I' for Inactive)
REMARK    1  A    between atoms: C4_7  and  C5_8
REMARK    2  A    between atoms: N3_10  and  C6_11
REMARK    3  A    between atoms: C6_11  and  C7_12
REMARK                            x       y       z     vdW  Elec       q    Type
REMARK                         _______ _______ _______ _____ _____    ______ ____
ROOT
ATOM      1  C5  UNL     1      16.706  14.874  -0.453  0.00  0.00    +0.000 C 
ATOM      2  O2  UNL     1      17.182  13.811  -0.074  0.00  0.00    +0.000 OA
ATOM      3  N3  UNL     1      17.122  16.107  -0.014  0.00  0.00    +0.000 N 
ATOM      4  H4  UNL     1      16.577  16.902  -0.333  0.00  0.00    +0.000 HD
ENDROOT
BRANCH   1  11
ATOM      5  N1  UNL     1      14.662  15.999  -1.322  0.00  0.00    +0.000 NA
ATOM      6  C1  UNL     1      13.715  16.025  -2.196  0.00  0.00    +0.000 A 
ATOM      7  N2  UNL     1      13.579  15.122  -3.206  0.00  0.00    +0.000 N 
ATOM      8  C2  UNL     1      14.456  14.094  -3.381  0.00  0.00    +0.000 A 
ATOM      9  O1  UNL     1      14.352  13.281  -4.289  0.00  0.00    +0.000 OA
ATOM     10  C3  UNL     1      15.545  14.028  -2.401  0.00  0.00    +0.000 A 
ATOM     11  C4  UNL     1      15.578  14.969  -1.451  0.00  0.00    +0.000 A 
ATOM     12  H2  UNL     1      12.821  15.184  -3.870  0.00  0.00    +0.000 HD
ENDBRANCH   1  11
BRANCH   3  13
ATOM     13  C6  UNL     1      18.078  16.271   1.050  0.00  0.00    +0.000 C 
BRANCH  13  14
ATOM     14  C7  UNL     1      19.481  16.291   0.521  0.00  0.00    +0.000 A 
ATOM     15  C8  UNL     1      20.334  15.191   0.654  0.00  0.00    +0.000 A 
ATOM     16  C9  UNL     1      21.624  15.251   0.133  0.00  0.00    +0.000 A 
ATOM     17  C10 UNL     1      22.017  16.411  -0.514  0.00  0.00    +0.000 A 
ATOM     18  N4  UNL     1      21.220  17.488  -0.672  0.00  0.00    +0.000 NA
ATOM     19  C11 UNL     1      19.971  17.403  -0.157  0.00  0.00    +0.000 A 
ENDBRANCH  13  14
ENDBRANCH   3  13
TORSDOF 3
ENDMDL
MODEL 9
REMARK VINA RESULT:    -4.753     16.361     17.617
REMARK INTER + INTRA:          -5.912
REMARK INTER:                  -5.586
REMARK INTRA:                  -0.326
REMARK UNBOUND:                -0.326
REMARK  Name = /home/anacleto/Desktop/manuscript_Mpro/naturecomm/supplementary_file_S2/6-chemical-library/molecular_docking/3D_ligand_structure/618.pdb
REMARK  3 active torsions:
REMARK  status: ('A' for Active; 'I' for Inactive)
REMARK    1  A    between atoms: C4_7  and  C5_8
REMARK    2  A    between atoms: N3_10  and  C6_11
REMARK    3  A    between atoms: C6_11  and  C7_12
REMARK                            x       y       z     vdW  Elec       q    Type
REMARK                         _______ _______ _______ _____ _____    ______ ____
ROOT
ATOM      1  C5  UNL     1      18.389   5.181  11.837  0.00  0.00    +0.000 C 
ATOM      2  O2  UNL     1      18.013   5.280  12.998  0.00  0.00    +0.000 OA
ATOM      3  N3  UNL     1      17.884   4.276  10.935  0.00  0.00    +0.000 N 
ATOM      4  H4  UNL     1      18.352   4.232  10.035  0.00  0.00    +0.000 HD
ENDROOT
BRANCH   1  11
ATOM      5  N1  UNL     1      20.694   6.120  11.898  0.00  0.00    +0.000 NA
ATOM      6  C1  UNL     1      21.583   6.874  11.349  0.00  0.00    +0.000 A 
ATOM      7  N2  UNL     1      21.392   7.568  10.193  0.00  0.00    +0.000 N 
ATOM      8  C2  UNL     1      20.217   7.518   9.505  0.00  0.00    +0.000 A 
ATOM      9  O1  UNL     1      20.034   8.129   8.461  0.00  0.00    +0.000 OA
ATOM     10  C3  UNL     1      19.178   6.674  10.102  0.00  0.00    +0.000 A 
ATOM     11  C4  UNL     1      19.478   6.039  11.241  0.00  0.00    +0.000 A 
ATOM     12  H2  UNL     1      22.120   8.146   9.799  0.00  0.00    +0.000 HD
ENDBRANCH   1  11
BRANCH   3  13
ATOM     13  C6  UNL     1      16.946   3.249  11.308  0.00  0.00    +0.000 C 
BRANCH  13  14
ATOM     14  C7  UNL     1      16.290   2.649  10.100  0.00  0.00    +0.000 A 
ATOM     15  C8  UNL     1      16.781   2.869   8.810  0.00  0.00    +0.000 A 
ATOM     16  C9  UNL     1      16.147   2.279   7.721  0.00  0.00    +0.000 A 
ATOM     17  C10 UNL     1      15.044   1.477   7.959  0.00  0.00    +0.000 A 
ATOM     18  N4  UNL     1      14.547   1.231   9.189  0.00  0.00    +0.000 NA
ATOM     19  C11 UNL     1      15.182   1.816  10.230  0.00  0.00    +0.000 A 
ENDBRANCH  13  14
ENDBRANCH   3  13
TORSDOF 3
ENDMDL
