MODEL 1
REMARK VINA RESULT:    -4.817      0.000      0.000
REMARK INTER + INTRA:          -9.068
REMARK INTER:                  -6.940
REMARK INTRA:                  -2.129
REMARK UNBOUND:                -1.998
REMARK  Name = /home/anacleto/Desktop/manuscript_Mpro/naturecomm/supplementary_file_S2/6-chemical-library/molecular_docking/3D_ligand_structure/436.pdb
REMARK  8 active torsions:
REMARK  status: ('A' for Active; 'I' for Inactive)
REMARK    1  A    between atoms: C6_6  and  C7_7
REMARK    2  A    between atoms: C7_7  and  C8_8
REMARK    3  A    between atoms: C8_8  and  N1_9
REMARK    4  A    between atoms: C9_10  and  C10_12
REMARK    5  A    between atoms: C10_12  and  N2_13
REMARK    6  A    between atoms: N2_13  and  C11_14
REMARK    7  A    between atoms: C11_14  and  C12_15
REMARK    8  A    between atoms: C12_15  and  C13_16
REMARK                            x       y       z     vdW  Elec       q    Type
REMARK                         _______ _______ _______ _____ _____    ______ ____
ROOT
ATOM      1  N1  UNL     1      17.460   3.151  10.874  0.00  0.00    +0.000 N 
ATOM      2  C9  UNL     1      16.112   2.873  10.892  0.00  0.00    +0.000 C 
ATOM      3  O1  UNL     1      15.473   2.542   9.898  0.00  0.00    +0.000 OA
ATOM      4  H10 UNL     1      17.836   3.533  11.739  0.00  0.00    +0.000 HD
ENDROOT
BRANCH   1   5
ATOM      5  C8  UNL     1      18.248   3.147   9.662  0.00  0.00    +0.000 C 
BRANCH   5   6
ATOM      6  C7  UNL     1      18.000   4.391   8.808  0.00  0.00    +0.000 C 
BRANCH   6  12
ATOM      7  C1  UNL     1      18.882   6.751   9.025  0.00  0.00    +0.000 A 
ATOM      8  C2  UNL     1      19.937   7.656   9.143  0.00  0.00    +0.000 A 
ATOM      9  C3  UNL     1      21.253   7.198   9.156  0.00  0.00    +0.000 A 
ATOM     10  C4  UNL     1      21.516   5.833   9.051  0.00  0.00    +0.000 A 
ATOM     11  C5  UNL     1      20.462   4.926   8.933  0.00  0.00    +0.000 A 
ATOM     12  C6  UNL     1      19.136   5.377   8.915  0.00  0.00    +0.000 A 
ENDBRANCH   6  12
ENDBRANCH   5   6
ENDBRANCH   1   5
BRANCH   2  13
ATOM     13  C10 UNL     1      15.454   3.053  12.270  0.00  0.00    +0.000 C 
BRANCH  13  14
ATOM     14  N2  UNL     1      15.324   4.490  12.605  0.00  0.00    +0.000 NA
ATOM     15  H13 UNL     1      15.761   5.029  11.854  0.00  0.00    +0.000 HD
BRANCH  14  16
ATOM     16  C11 UNL     1      15.973   4.821  13.877  0.00  0.00    +0.000 C 
BRANCH  16  17
ATOM     17  C12 UNL     1      16.745   6.148  13.840  0.00  0.00    +0.000 C 
BRANCH  17  18
ATOM     18  C13 UNL     1      17.862   6.169  12.773  0.00  0.00    +0.000 C 
ATOM     19  C14 UNL     1      19.044   5.260  13.165  0.00  0.00    +0.000 C 
ATOM     20  C15 UNL     1      20.344   5.699  12.502  0.00  0.00    +0.000 C 
ATOM     21  C16 UNL     1      20.749   7.108  12.935  0.00  0.00    +0.000 C 
ATOM     22  C17 UNL     1      19.556   8.004  13.277  0.00  0.00    +0.000 C 
ATOM     23  C18 UNL     1      18.314   7.618  12.484  0.00  0.00    +0.000 C 
ENDBRANCH  17  18
ENDBRANCH  16  17
ENDBRANCH  14  16
ENDBRANCH  13  14
ENDBRANCH   2  13
TORSDOF 8
ENDMDL
MODEL 2
REMARK VINA RESULT:    -4.676      3.316      4.852
REMARK INTER + INTRA:          -8.862
REMARK INTER:                  -7.267
REMARK INTRA:                  -1.595
REMARK UNBOUND:                -1.998
REMARK  Name = /home/anacleto/Desktop/manuscript_Mpro/naturecomm/supplementary_file_S2/6-chemical-library/molecular_docking/3D_ligand_structure/436.pdb
REMARK  8 active torsions:
REMARK  status: ('A' for Active; 'I' for Inactive)
REMARK    1  A    between atoms: C6_6  and  C7_7
REMARK    2  A    between atoms: C7_7  and  C8_8
REMARK    3  A    between atoms: C8_8  and  N1_9
REMARK    4  A    between atoms: C9_10  and  C10_12
REMARK    5  A    between atoms: C10_12  and  N2_13
REMARK    6  A    between atoms: N2_13  and  C11_14
REMARK    7  A    between atoms: C11_14  and  C12_15
REMARK    8  A    between atoms: C12_15  and  C13_16
REMARK                            x       y       z     vdW  Elec       q    Type
REMARK                         _______ _______ _______ _____ _____    ______ ____
ROOT
ATOM      1  N1  UNL     1      22.297   5.766  12.021  0.00  0.00    +0.000 N 
ATOM      2  C9  UNL     1      23.106   6.531  12.830  0.00  0.00    +0.000 C 
ATOM      3  O1  UNL     1      24.325   6.599  12.703  0.00  0.00    +0.000 OA
ATOM      4  H10 UNL     1      21.324   5.703  12.313  0.00  0.00    +0.000 HD
ENDROOT
BRANCH   1   5
ATOM      5  C8  UNL     1      22.813   4.907  10.978  0.00  0.00    +0.000 C 
BRANCH   5   6
ATOM      6  C7  UNL     1      22.831   5.600   9.615  0.00  0.00    +0.000 C 
BRANCH   6  12
ATOM      7  C1  UNL     1      21.189   7.466   9.146  0.00  0.00    +0.000 A 
ATOM      8  C2  UNL     1      19.925   7.914   8.763  0.00  0.00    +0.000 A 
ATOM      9  C3  UNL     1      18.924   6.997   8.446  0.00  0.00    +0.000 A 
ATOM     10  C4  UNL     1      19.186   5.630   8.513  0.00  0.00    +0.000 A 
ATOM     11  C5  UNL     1      20.450   5.179   8.897  0.00  0.00    +0.000 A 
ATOM     12  C6  UNL     1      21.461   6.093   9.221  0.00  0.00    +0.000 A 
ENDBRANCH   6  12
ENDBRANCH   5   6
ENDBRANCH   1   5
BRANCH   2  13
ATOM     13  C10 UNL     1      22.353   7.273  13.946  0.00  0.00    +0.000 C 
BRANCH  13  14
ATOM     14  N2  UNL     1      21.451   8.301  13.376  0.00  0.00    +0.000 NA
ATOM     15  H13 UNL     1      21.672   9.194  13.822  0.00  0.00    +0.000 HD
BRANCH  14  16
ATOM     16  C11 UNL     1      20.038   7.984  13.603  0.00  0.00    +0.000 C 
BRANCH  16  17
ATOM     17  C12 UNL     1      19.213   7.917  12.311  0.00  0.00    +0.000 C 
BRANCH  17  18
ATOM     18  C13 UNL     1      17.987   6.984  12.423  0.00  0.00    +0.000 C 
ATOM     19  C14 UNL     1      17.299   7.106  13.798  0.00  0.00    +0.000 C 
ATOM     20  C15 UNL     1      16.523   5.846  14.160  0.00  0.00    +0.000 C 
ATOM     21  C16 UNL     1      17.443   4.629  14.267  0.00  0.00    +0.000 C 
ATOM     22  C17 UNL     1      18.666   4.710  13.351  0.00  0.00    +0.000 C 
ATOM     23  C18 UNL     1      18.378   5.526  12.097  0.00  0.00    +0.000 C 
ENDBRANCH  17  18
ENDBRANCH  16  17
ENDBRANCH  14  16
ENDBRANCH  13  14
ENDBRANCH   2  13
TORSDOF 8
ENDMDL
MODEL 3
REMARK VINA RESULT:    -4.640      1.193      4.088
REMARK INTER + INTRA:          -8.809
REMARK INTER:                  -7.076
REMARK INTRA:                  -1.733
REMARK UNBOUND:                -1.998
REMARK  Name = /home/anacleto/Desktop/manuscript_Mpro/naturecomm/supplementary_file_S2/6-chemical-library/molecular_docking/3D_ligand_structure/436.pdb
REMARK  8 active torsions:
REMARK  status: ('A' for Active; 'I' for Inactive)
REMARK    1  A    between atoms: C6_6  and  C7_7
REMARK    2  A    between atoms: C7_7  and  C8_8
REMARK    3  A    between atoms: C8_8  and  N1_9
REMARK    4  A    between atoms: C9_10  and  C10_12
REMARK    5  A    between atoms: C10_12  and  N2_13
REMARK    6  A    between atoms: N2_13  and  C11_14
REMARK    7  A    between atoms: C11_14  and  C12_15
REMARK    8  A    between atoms: C12_15  and  C13_16
REMARK                            x       y       z     vdW  Elec       q    Type
REMARK                         _______ _______ _______ _____ _____    ______ ____
ROOT
ATOM      1  N1  UNL     1      16.217   3.077  12.193  0.00  0.00    +0.000 N 
ATOM      2  C9  UNL     1      15.262   3.356  11.241  0.00  0.00    +0.000 C 
ATOM      3  O1  UNL     1      14.314   4.112  11.431  0.00  0.00    +0.000 OA
ATOM      4  H10 UNL     1      16.874   2.340  11.946  0.00  0.00    +0.000 HD
ENDROOT
BRANCH   1   5
ATOM      5  C8  UNL     1      16.159   3.598  13.541  0.00  0.00    +0.000 C 
BRANCH   5   6
ATOM      6  C7  UNL     1      17.545   3.949  14.084  0.00  0.00    +0.000 C 
BRANCH   6  12
ATOM      7  C1  UNL     1      17.191   6.353  13.387  0.00  0.00    +0.000 A 
ATOM      8  C2  UNL     1      17.669   7.564  12.886  0.00  0.00    +0.000 A 
ATOM      9  C3  UNL     1      19.008   7.690  12.522  0.00  0.00    +0.000 A 
ATOM     10  C4  UNL     1      19.872   6.605  12.659  0.00  0.00    +0.000 A 
ATOM     11  C5  UNL     1      19.396   5.392  13.160  0.00  0.00    +0.000 A 
ATOM     12  C6  UNL     1      18.050   5.255  13.524  0.00  0.00    +0.000 A 
ENDBRANCH   6  12
ENDBRANCH   5   6
ENDBRANCH   1   5
BRANCH   2  13
ATOM     13  C10 UNL     1      15.460   2.601   9.917  0.00  0.00    +0.000 C 
BRANCH  13  14
ATOM     14  N2  UNL     1      16.078   3.483   8.899  0.00  0.00    +0.000 NA
ATOM     15  H13 UNL     1      15.725   3.199   7.982  0.00  0.00    +0.000 HD
BRANCH  14  16
ATOM     16  C11 UNL     1      17.540   3.390   8.903  0.00  0.00    +0.000 C 
BRANCH  16  17
ATOM     17  C12 UNL     1      18.226   4.606   9.544  0.00  0.00    +0.000 C 
BRANCH  17  18
ATOM     18  C13 UNL     1      19.428   5.123   8.724  0.00  0.00    +0.000 C 
ATOM     19  C14 UNL     1      20.738   5.075   9.537  0.00  0.00    +0.000 C 
ATOM     20  C15 UNL     1      21.761   6.085   9.030  0.00  0.00    +0.000 C 
ATOM     21  C16 UNL     1      21.249   7.519   9.161  0.00  0.00    +0.000 C 
ATOM     22  C17 UNL     1      19.727   7.634   9.046  0.00  0.00    +0.000 C 
ATOM     23  C18 UNL     1      19.143   6.536   8.166  0.00  0.00    +0.000 C 
ENDBRANCH  17  18
ENDBRANCH  16  17
ENDBRANCH  14  16
ENDBRANCH  13  14
ENDBRANCH   2  13
TORSDOF 8
ENDMDL
MODEL 4
REMARK VINA RESULT:    -4.502      2.124      4.895
REMARK INTER + INTRA:          -8.606
REMARK INTER:                  -7.471
REMARK INTRA:                  -1.135
REMARK UNBOUND:                -1.998
REMARK  Name = /home/anacleto/Desktop/manuscript_Mpro/naturecomm/supplementary_file_S2/6-chemical-library/molecular_docking/3D_ligand_structure/436.pdb
REMARK  8 active torsions:
REMARK  status: ('A' for Active; 'I' for Inactive)
REMARK    1  A    between atoms: C6_6  and  C7_7
REMARK    2  A    between atoms: C7_7  and  C8_8
REMARK    3  A    between atoms: C8_8  and  N1_9
REMARK    4  A    between atoms: C9_10  and  C10_12
REMARK    5  A    between atoms: C10_12  and  N2_13
REMARK    6  A    between atoms: N2_13  and  C11_14
REMARK    7  A    between atoms: C11_14  and  C12_15
REMARK    8  A    between atoms: C12_15  and  C13_16
REMARK                            x       y       z     vdW  Elec       q    Type
REMARK                         _______ _______ _______ _____ _____    ______ ____
ROOT
ATOM      1  N1  UNL     1      17.040   5.295  12.933  0.00  0.00    +0.000 N 
ATOM      2  C9  UNL     1      15.931   5.403  13.742  0.00  0.00    +0.000 C 
ATOM      3  O1  UNL     1      15.736   6.345  14.505  0.00  0.00    +0.000 OA
ATOM      4  H10 UNL     1      17.137   4.407  12.445  0.00  0.00    +0.000 HD
ENDROOT
BRANCH   1   5
ATOM      5  C8  UNL     1      18.125   6.251  12.954  0.00  0.00    +0.000 C 
BRANCH   5   6
ATOM      6  C7  UNL     1      19.377   5.718  12.256  0.00  0.00    +0.000 C 
BRANCH   6  12
ATOM      7  C1  UNL     1      19.013   5.084   9.835  0.00  0.00    +0.000 A 
ATOM      8  C2  UNL     1      18.999   5.401   8.477  0.00  0.00    +0.000 A 
ATOM      9  C3  UNL     1      19.344   6.683   8.055  0.00  0.00    +0.000 A 
ATOM     10  C4  UNL     1      19.705   7.651   8.991  0.00  0.00    +0.000 A 
ATOM     11  C5  UNL     1      19.721   7.336  10.351  0.00  0.00    +0.000 A 
ATOM     12  C6  UNL     1      19.379   6.048  10.784  0.00  0.00    +0.000 A 
ENDBRANCH   6  12
ENDBRANCH   5   6
ENDBRANCH   1   5
BRANCH   2  13
ATOM     13  C10 UNL     1      14.963   4.214  13.639  0.00  0.00    +0.000 C 
BRANCH  13  14
ATOM     14  N2  UNL     1      13.821   4.543  12.754  0.00  0.00    +0.000 NA
ATOM     15  H13 UNL     1      12.960   4.303  13.251  0.00  0.00    +0.000 HD
BRANCH  14  16
ATOM     16  C11 UNL     1      13.870   3.802  11.490  0.00  0.00    +0.000 C 
BRANCH  16  17
ATOM     17  C12 UNL     1      14.071   2.292  11.676  0.00  0.00    +0.000 C 
BRANCH  17  18
ATOM     18  C13 UNL     1      15.200   1.718  10.793  0.00  0.00    +0.000 C 
ATOM     19  C14 UNL     1      16.066   2.834  10.174  0.00  0.00    +0.000 C 
ATOM     20  C15 UNL     1      16.750   2.379   8.891  0.00  0.00    +0.000 C 
ATOM     21  C16 UNL     1      15.734   2.002   7.813  0.00  0.00    +0.000 C 
ATOM     22  C17 UNL     1      14.419   1.463   8.381  0.00  0.00    +0.000 C 
ATOM     23  C18 UNL     1      14.626   0.766   9.720  0.00  0.00    +0.000 C 
ENDBRANCH  17  18
ENDBRANCH  16  17
ENDBRANCH  14  16
ENDBRANCH  13  14
ENDBRANCH   2  13
TORSDOF 8
ENDMDL
MODEL 5
REMARK VINA RESULT:    -4.496      2.152      4.868
REMARK INTER + INTRA:          -8.597
REMARK INTER:                  -7.489
REMARK INTRA:                  -1.107
REMARK UNBOUND:                -1.998
REMARK  Name = /home/anacleto/Desktop/manuscript_Mpro/naturecomm/supplementary_file_S2/6-chemical-library/molecular_docking/3D_ligand_structure/436.pdb
REMARK  8 active torsions:
REMARK  status: ('A' for Active; 'I' for Inactive)
REMARK    1  A    between atoms: C6_6  and  C7_7
REMARK    2  A    between atoms: C7_7  and  C8_8
REMARK    3  A    between atoms: C8_8  and  N1_9
REMARK    4  A    between atoms: C9_10  and  C10_12
REMARK    5  A    between atoms: C10_12  and  N2_13
REMARK    6  A    between atoms: N2_13  and  C11_14
REMARK    7  A    between atoms: C11_14  and  C12_15
REMARK    8  A    between atoms: C12_15  and  C13_16
REMARK                            x       y       z     vdW  Elec       q    Type
REMARK                         _______ _______ _______ _____ _____    ______ ____
ROOT
ATOM      1  N1  UNL     1      16.607   4.440  12.531  0.00  0.00    +0.000 N 
ATOM      2  C9  UNL     1      16.465   5.347  13.557  0.00  0.00    +0.000 C 
ATOM      3  O1  UNL     1      15.632   5.236  14.452  0.00  0.00    +0.000 OA
ATOM      4  H10 UNL     1      17.249   4.717  11.792  0.00  0.00    +0.000 HD
ENDROOT
BRANCH   1   5
ATOM      5  C8  UNL     1      15.738   3.295  12.367  0.00  0.00    +0.000 C 
BRANCH   5   6
ATOM      6  C7  UNL     1      14.688   3.519  11.277  0.00  0.00    +0.000 C 
BRANCH   6  12
ATOM      7  C1  UNL     1      14.315   1.727   9.533  0.00  0.00    +0.000 A 
ATOM      8  C2  UNL     1      14.652   1.099   8.334  0.00  0.00    +0.000 A 
ATOM      9  C3  UNL     1      15.732   1.559   7.583  0.00  0.00    +0.000 A 
ATOM     10  C4  UNL     1      16.476   2.650   8.029  0.00  0.00    +0.000 A 
ATOM     11  C5  UNL     1      16.141   3.280   9.228  0.00  0.00    +0.000 A 
ATOM     12  C6  UNL     1      15.060   2.822   9.993  0.00  0.00    +0.000 A 
ENDBRANCH   6  12
ENDBRANCH   5   6
ENDBRANCH   1   5
BRANCH   2  13
ATOM     13  C10 UNL     1      17.421   6.547  13.467  0.00  0.00    +0.000 C 
BRANCH  13  14
ATOM     14  N2  UNL     1      18.824   6.117  13.671  0.00  0.00    +0.000 NA
ATOM     15  H13 UNL     1      19.160   6.543  14.537  0.00  0.00    +0.000 HD
BRANCH  14  16
ATOM     16  C11 UNL     1      19.692   6.524  12.563  0.00  0.00    +0.000 C 
BRANCH  16  17
ATOM     17  C12 UNL     1      19.011   7.480  11.574  0.00  0.00    +0.000 C 
BRANCH  17  18
ATOM     18  C13 UNL     1      18.980   6.935  10.130  0.00  0.00    +0.000 C 
ATOM     19  C14 UNL     1      19.167   5.405  10.091  0.00  0.00    +0.000 C 
ATOM     20  C15 UNL     1      19.732   4.932   8.757  0.00  0.00    +0.000 C 
ATOM     21  C16 UNL     1      21.117   5.522   8.491  0.00  0.00    +0.000 C 
ATOM     22  C17 UNL     1      21.323   6.898   9.128  0.00  0.00    +0.000 C 
ATOM     23  C18 UNL     1      20.014   7.668   9.246  0.00  0.00    +0.000 C 
ENDBRANCH  17  18
ENDBRANCH  16  17
ENDBRANCH  14  16
ENDBRANCH  13  14
ENDBRANCH   2  13
TORSDOF 8
ENDMDL
MODEL 6
REMARK VINA RESULT:    -4.479     14.514     16.467
REMARK INTER + INTRA:          -8.571
REMARK INTER:                  -6.500
REMARK INTRA:                  -2.071
REMARK UNBOUND:                -1.998
REMARK  Name = /home/anacleto/Desktop/manuscript_Mpro/naturecomm/supplementary_file_S2/6-chemical-library/molecular_docking/3D_ligand_structure/436.pdb
REMARK  8 active torsions:
REMARK  status: ('A' for Active; 'I' for Inactive)
REMARK    1  A    between atoms: C6_6  and  C7_7
REMARK    2  A    between atoms: C7_7  and  C8_8
REMARK    3  A    between atoms: C8_8  and  N1_9
REMARK    4  A    between atoms: C9_10  and  C10_12
REMARK    5  A    between atoms: C10_12  and  N2_13
REMARK    6  A    between atoms: N2_13  and  C11_14
REMARK    7  A    between atoms: C11_14  and  C12_15
REMARK    8  A    between atoms: C12_15  and  C13_16
REMARK                            x       y       z     vdW  Elec       q    Type
REMARK                         _______ _______ _______ _____ _____    ______ ____
ROOT
ATOM      1  N1  UNL     1      14.777  13.283  -3.231  0.00  0.00    +0.000 N 
ATOM      2  C9  UNL     1      14.686  12.579  -4.411  0.00  0.00    +0.000 C 
ATOM      3  O1  UNL     1      14.647  13.109  -5.517  0.00  0.00    +0.000 OA
ATOM      4  H10 UNL     1      14.674  12.728  -2.385  0.00  0.00    +0.000 HD
ENDROOT
BRANCH   1   5
ATOM      5  C8  UNL     1      14.766  14.729  -3.175  0.00  0.00    +0.000 C 
BRANCH   5   6
ATOM      6  C7  UNL     1      14.550  15.250  -1.753  0.00  0.00    +0.000 C 
BRANCH   6  12
ATOM      7  C1  UNL     1      16.588  16.732  -1.963  0.00  0.00    +0.000 A 
ATOM      8  C2  UNL     1      17.737  17.313  -1.426  0.00  0.00    +0.000 A 
ATOM      9  C3  UNL     1      18.112  17.038  -0.113  0.00  0.00    +0.000 A 
ATOM     10  C4  UNL     1      17.338  16.182   0.667  0.00  0.00    +0.000 A 
ATOM     11  C5  UNL     1      16.188  15.599   0.134  0.00  0.00    +0.000 A 
ATOM     12  C6  UNL     1      15.805  15.865  -1.188  0.00  0.00    +0.000 A 
ENDBRANCH   6  12
ENDBRANCH   5   6
ENDBRANCH   1   5
BRANCH   2  13
ATOM     13  C10 UNL     1      14.595  11.057  -4.225  0.00  0.00    +0.000 C 
BRANCH  13  14
ATOM     14  N2  UNL     1      15.767  10.549  -3.472  0.00  0.00    +0.000 NA
ATOM     15  H13 UNL     1      15.829  11.074  -2.597  0.00  0.00    +0.000 HD
BRANCH  14  16
ATOM     16  C11 UNL     1      17.016  10.711  -4.222  0.00  0.00    +0.000 C 
BRANCH  16  17
ATOM     17  C12 UNL     1      18.219  11.060  -3.334  0.00  0.00    +0.000 C 
BRANCH  17  18
ATOM     18  C13 UNL     1      18.233  12.539  -2.889  0.00  0.00    +0.000 C 
ATOM     19  C14 UNL     1      19.582  13.217  -3.203  0.00  0.00    +0.000 C 
ATOM     20  C15 UNL     1      19.850  14.404  -2.286  0.00  0.00    +0.000 C 
ATOM     21  C16 UNL     1      19.936  13.976  -0.821  0.00  0.00    +0.000 C 
ATOM     22  C17 UNL     1      19.078  12.753  -0.494  0.00  0.00    +0.000 C 
ATOM     23  C18 UNL     1      17.853  12.665  -1.397  0.00  0.00    +0.000 C 
ENDBRANCH  17  18
ENDBRANCH  16  17
ENDBRANCH  14  16
ENDBRANCH  13  14
ENDBRANCH   2  13
TORSDOF 8
ENDMDL
MODEL 7
REMARK VINA RESULT:    -4.455     14.426     16.651
REMARK INTER + INTRA:          -8.537
REMARK INTER:                  -6.396
REMARK INTRA:                  -2.141
REMARK UNBOUND:                -1.998
REMARK  Name = /home/anacleto/Desktop/manuscript_Mpro/naturecomm/supplementary_file_S2/6-chemical-library/molecular_docking/3D_ligand_structure/436.pdb
REMARK  8 active torsions:
REMARK  status: ('A' for Active; 'I' for Inactive)
REMARK    1  A    between atoms: C6_6  and  C7_7
REMARK    2  A    between atoms: C7_7  and  C8_8
REMARK    3  A    between atoms: C8_8  and  N1_9
REMARK    4  A    between atoms: C9_10  and  C10_12
REMARK    5  A    between atoms: C10_12  and  N2_13
REMARK    6  A    between atoms: N2_13  and  C11_14
REMARK    7  A    between atoms: C11_14  and  C12_15
REMARK    8  A    between atoms: C12_15  and  C13_16
REMARK                            x       y       z     vdW  Elec       q    Type
REMARK                         _______ _______ _______ _____ _____    ______ ____
ROOT
ATOM      1  N1  UNL     1      16.364  12.796  -5.332  0.00  0.00    +0.000 N 
ATOM      2  C9  UNL     1      16.095  11.446  -5.299  0.00  0.00    +0.000 C 
ATOM      3  O1  UNL     1      14.961  10.978  -5.351  0.00  0.00    +0.000 OA
ATOM      4  H10 UNL     1      17.334  13.049  -5.155  0.00  0.00    +0.000 HD
ENDROOT
BRANCH   1   5
ATOM      5  C8  UNL     1      15.328  13.804  -5.362  0.00  0.00    +0.000 C 
BRANCH   5   6
ATOM      6  C7  UNL     1      14.592  13.916  -4.026  0.00  0.00    +0.000 C 
BRANCH   6  12
ATOM      7  C1  UNL     1      16.312  15.707  -3.550  0.00  0.00    +0.000 A 
ATOM      8  C2  UNL     1      16.925  16.615  -2.686  0.00  0.00    +0.000 A 
ATOM      9  C3  UNL     1      16.504  16.713  -1.361  0.00  0.00    +0.000 A 
ATOM     10  C4  UNL     1      15.468  15.903  -0.898  0.00  0.00    +0.000 A 
ATOM     11  C5  UNL     1      14.854  14.994  -1.760  0.00  0.00    +0.000 A 
ATOM     12  C6  UNL     1      15.273  14.885  -3.092  0.00  0.00    +0.000 A 
ENDBRANCH   6  12
ENDBRANCH   5   6
ENDBRANCH   1   5
BRANCH   2  13
ATOM     13  C10 UNL     1      17.343  10.562  -5.149  0.00  0.00    +0.000 C 
BRANCH  13  14
ATOM     14  N2  UNL     1      17.275   9.767  -3.901  0.00  0.00    +0.000 NA
ATOM     15  H13 UNL     1      16.319   9.823  -3.544  0.00  0.00    +0.000 HD
BRANCH  14  16
ATOM     16  C11 UNL     1      18.201  10.264  -2.879  0.00  0.00    +0.000 C 
BRANCH  16  17
ATOM     17  C12 UNL     1      17.518  11.112  -1.797  0.00  0.00    +0.000 C 
BRANCH  17  18
ATOM     18  C13 UNL     1      17.807  12.622  -1.939  0.00  0.00    +0.000 C 
ATOM     19  C14 UNL     1      19.050  12.887  -2.813  0.00  0.00    +0.000 C 
ATOM     20  C15 UNL     1      19.697  14.228  -2.492  0.00  0.00    +0.000 C 
ATOM     21  C16 UNL     1      20.192  14.283  -1.046  0.00  0.00    +0.000 C 
ATOM     22  C17 UNL     1      19.367  13.421  -0.089  0.00  0.00    +0.000 C 
ATOM     23  C18 UNL     1      17.921  13.290  -0.551  0.00  0.00    +0.000 C 
ENDBRANCH  17  18
ENDBRANCH  16  17
ENDBRANCH  14  16
ENDBRANCH  13  14
ENDBRANCH   2  13
TORSDOF 8
ENDMDL
MODEL 8
REMARK VINA RESULT:    -4.369     14.583     16.391
REMARK INTER + INTRA:          -8.411
REMARK INTER:                  -6.617
REMARK INTRA:                  -1.794
REMARK UNBOUND:                -1.998
REMARK  Name = /home/anacleto/Desktop/manuscript_Mpro/naturecomm/supplementary_file_S2/6-chemical-library/molecular_docking/3D_ligand_structure/436.pdb
REMARK  8 active torsions:
REMARK  status: ('A' for Active; 'I' for Inactive)
REMARK    1  A    between atoms: C6_6  and  C7_7
REMARK    2  A    between atoms: C7_7  and  C8_8
REMARK    3  A    between atoms: C8_8  and  N1_9
REMARK    4  A    between atoms: C9_10  and  C10_12
REMARK    5  A    between atoms: C10_12  and  N2_13
REMARK    6  A    between atoms: N2_13  and  C11_14
REMARK    7  A    between atoms: C11_14  and  C12_15
REMARK    8  A    between atoms: C12_15  and  C13_16
REMARK                            x       y       z     vdW  Elec       q    Type
REMARK                         _______ _______ _______ _____ _____    ______ ____
ROOT
ATOM      1  N1  UNL     1      15.860  11.313  -4.368  0.00  0.00    +0.000 N 
ATOM      2  C9  UNL     1      15.103  11.776  -5.420  0.00  0.00    +0.000 C 
ATOM      3  O1  UNL     1      15.371  11.556  -6.598  0.00  0.00    +0.000 OA
ATOM      4  H10 UNL     1      15.596  11.672  -3.452  0.00  0.00    +0.000 HD
ENDROOT
BRANCH   1   5
ATOM      5  C8  UNL     1      17.090  10.575  -4.548  0.00  0.00    +0.000 C 
BRANCH   5   6
ATOM      6  C7  UNL     1      17.738  10.197  -3.214  0.00  0.00    +0.000 C 
BRANCH   6  12
ATOM      7  C1  UNL     1      18.267  11.567  -1.156  0.00  0.00    +0.000 A 
ATOM      8  C2  UNL     1      18.870  12.663  -0.538  0.00  0.00    +0.000 A 
ATOM      9  C3  UNL     1      19.583  13.589  -1.298  0.00  0.00    +0.000 A 
ATOM     10  C4  UNL     1      19.694  13.420  -2.677  0.00  0.00    +0.000 A 
ATOM     11  C5  UNL     1      19.091  12.324  -3.297  0.00  0.00    +0.000 A 
ATOM     12  C6  UNL     1      18.369  11.391  -2.543  0.00  0.00    +0.000 A 
ENDBRANCH   6  12
ENDBRANCH   5   6
ENDBRANCH   1   5
BRANCH   2  13
ATOM     13  C10 UNL     1      13.902  12.636  -4.997  0.00  0.00    +0.000 C 
BRANCH  13  14
ATOM     14  N2  UNL     1      14.340  14.004  -4.631  0.00  0.00    +0.000 NA
ATOM     15  H13 UNL     1      15.312  14.112  -4.929  0.00  0.00    +0.000 HD
BRANCH  14  16
ATOM     16  C11 UNL     1      14.247  14.245  -3.189  0.00  0.00    +0.000 C 
BRANCH  16  17
ATOM     17  C12 UNL     1      15.615  14.347  -2.499  0.00  0.00    +0.000 C 
BRANCH  17  18
ATOM     18  C13 UNL     1      15.895  15.749  -1.915  0.00  0.00    +0.000 C 
ATOM     19  C14 UNL     1      17.323  16.230  -2.242  0.00  0.00    +0.000 C 
ATOM     20  C15 UNL     1      17.824  17.256  -1.232  0.00  0.00    +0.000 C 
ATOM     21  C16 UNL     1      17.901  16.668   0.177  0.00  0.00    +0.000 C 
ATOM     22  C17 UNL     1      16.865  15.572   0.435  0.00  0.00    +0.000 C 
ATOM     23  C18 UNL     1      15.606  15.778  -0.397  0.00  0.00    +0.000 C 
ENDBRANCH  17  18
ENDBRANCH  16  17
ENDBRANCH  14  16
ENDBRANCH  13  14
ENDBRANCH   2  13
TORSDOF 8
ENDMDL
MODEL 9
REMARK VINA RESULT:    -4.253     14.104     16.497
REMARK INTER + INTRA:          -8.239
REMARK INTER:                  -6.241
REMARK INTRA:                  -1.998
REMARK UNBOUND:                -1.998
REMARK  Name = /home/anacleto/Desktop/manuscript_Mpro/naturecomm/supplementary_file_S2/6-chemical-library/molecular_docking/3D_ligand_structure/436.pdb
REMARK  8 active torsions:
REMARK  status: ('A' for Active; 'I' for Inactive)
REMARK    1  A    between atoms: C6_6  and  C7_7
REMARK    2  A    between atoms: C7_7  and  C8_8
REMARK    3  A    between atoms: C8_8  and  N1_9
REMARK    4  A    between atoms: C9_10  and  C10_12
REMARK    5  A    between atoms: C10_12  and  N2_13
REMARK    6  A    between atoms: N2_13  and  C11_14
REMARK    7  A    between atoms: C11_14  and  C12_15
REMARK    8  A    between atoms: C12_15  and  C13_16
REMARK                            x       y       z     vdW  Elec       q    Type
REMARK                         _______ _______ _______ _____ _____    ______ ____
ROOT
ATOM      1  N1  UNL     1      18.318  11.435  -1.684  0.00  0.00    +0.000 N 
ATOM      2  C9  UNL     1      16.959  11.238  -1.588  0.00  0.00    +0.000 C 
ATOM      3  O1  UNL     1      16.251  11.782  -0.746  0.00  0.00    +0.000 OA
ATOM      4  H10 UNL     1      18.800  10.828  -2.345  0.00  0.00    +0.000 HD
ENDROOT
BRANCH   1   5
ATOM      5  C8  UNL     1      19.062  12.254  -0.753  0.00  0.00    +0.000 C 
BRANCH   5   6
ATOM      6  C7  UNL     1      19.723  13.452  -1.437  0.00  0.00    +0.000 C 
BRANCH   6  12
ATOM      7  C1  UNL     1      17.963  14.775  -0.193  0.00  0.00    +0.000 A 
ATOM      8  C2  UNL     1      17.294  15.970   0.075  0.00  0.00    +0.000 A 
ATOM      9  C3  UNL     1      17.636  17.132  -0.612  0.00  0.00    +0.000 A 
ATOM     10  C4  UNL     1      18.650  17.103  -1.569  0.00  0.00    +0.000 A 
ATOM     11  C5  UNL     1      19.321  15.910  -1.839  0.00  0.00    +0.000 A 
ATOM     12  C6  UNL     1      18.980  14.734  -1.157  0.00  0.00    +0.000 A 
ENDBRANCH   6  12
ENDBRANCH   5   6
ENDBRANCH   1   5
BRANCH   2  13
ATOM     13  C10 UNL     1      16.398  10.237  -2.610  0.00  0.00    +0.000 C 
BRANCH  13  14
ATOM     14  N2  UNL     1      17.429   9.879  -3.613  0.00  0.00    +0.000 NA
ATOM     15  H13 UNL     1      18.345  10.088  -3.210  0.00  0.00    +0.000 HD
BRANCH  14  16
ATOM     16  C11 UNL     1      17.267  10.628  -4.862  0.00  0.00    +0.000 C 
BRANCH  16  17
ATOM     17  C12 UNL     1      15.847  11.175  -5.066  0.00  0.00    +0.000 C 
BRANCH  17  18
ATOM     18  C13 UNL     1      15.808  12.710  -5.231  0.00  0.00    +0.000 C 
ATOM     19  C14 UNL     1      17.058  13.382  -4.629  0.00  0.00    +0.000 C 
ATOM     20  C15 UNL     1      16.793  14.830  -4.235  0.00  0.00    +0.000 C 
ATOM     21  C16 UNL     1      15.713  14.931  -3.157  0.00  0.00    +0.000 C 
ATOM     22  C17 UNL     1      14.680  13.805  -3.225  0.00  0.00    +0.000 C 
ATOM     23  C18 UNL     1      14.500  13.289  -4.648  0.00  0.00    +0.000 C 
ENDBRANCH  17  18
ENDBRANCH  16  17
ENDBRANCH  14  16
ENDBRANCH  13  14
ENDBRANCH   2  13
TORSDOF 8
ENDMDL
