MODEL 1
REMARK VINA RESULT:    -3.709      0.000      0.000
REMARK INTER + INTRA:          -3.709
REMARK INTER:                  -3.709
REMARK INTRA:                   0.000
REMARK UNBOUND:                 0.000
REMARK  Name = /home/anacleto/Desktop/manuscript_Mpro/naturecomm/supplementary_file_S2/6-chemical-library/molecular_docking/3D_ligand_structure/223.pdb
REMARK  0 active torsions:
REMARK  status: ('A' for Active; 'I' for Inactive)
REMARK                            x       y       z     vdW  Elec       q    Type
REMARK                         _______ _______ _______ _____ _____    ______ ____
ROOT
ATOM      1  C1  UNL     1     -35.114  10.948 -33.294  0.00  0.00    +0.000 C 
ATOM      2  C2  UNL     1     -33.671  11.416 -33.416  0.00  0.00    +0.000 C 
ATOM      3  C3  UNL     1     -33.598  12.893 -33.062  0.00  0.00    +0.000 C 
ATOM      4  O1  UNL     1     -33.989  13.143 -31.707  0.00  0.00    +0.000 OA
ATOM      5  C4  UNL     1     -35.146  12.519 -31.323  0.00  0.00    +0.000 A 
ATOM      6  C5  UNL     1     -35.722  11.464 -32.028  0.00  0.00    +0.000 A 
ATOM      7  C6  UNL     1     -35.727  12.968 -30.144  0.00  0.00    +0.000 A 
ATOM      8  C7  UNL     1     -36.895  12.358 -29.723  0.00  0.00    +0.000 A 
ATOM      9  N1  UNL     1     -37.499  11.350 -30.389  0.00  0.00    +0.000 NA
ATOM     10  C8  UNL     1     -36.900  10.928 -31.524  0.00  0.00    +0.000 A 
ENDROOT
TORSDOF 0
ENDMDL
MODEL 2
REMARK VINA RESULT:    -3.699     14.907     16.749
REMARK INTER + INTRA:          -3.699
REMARK INTER:                  -3.699
REMARK INTRA:                   0.000
REMARK UNBOUND:                 0.000
REMARK  Name = /home/anacleto/Desktop/manuscript_Mpro/naturecomm/supplementary_file_S2/6-chemical-library/molecular_docking/3D_ligand_structure/223.pdb
REMARK  0 active torsions:
REMARK  status: ('A' for Active; 'I' for Inactive)
REMARK                            x       y       z     vdW  Elec       q    Type
REMARK                         _______ _______ _______ _____ _____    ______ ____
ROOT
ATOM      1  C1  UNL     1     -22.085   7.661 -37.897  0.00  0.00    +0.000 C 
ATOM      2  C2  UNL     1     -23.130   8.743 -37.660  0.00  0.00    +0.000 C 
ATOM      3  C3  UNL     1     -22.542   9.807 -36.746  0.00  0.00    +0.000 C 
ATOM      4  O1  UNL     1     -21.412  10.460 -37.336  0.00  0.00    +0.000 OA
ATOM      5  C4  UNL     1     -20.492   9.614 -37.895  0.00  0.00    +0.000 A 
ATOM      6  C5  UNL     1     -20.756   8.279 -38.195  0.00  0.00    +0.000 A 
ATOM      7  C6  UNL     1     -19.251  10.163 -38.195  0.00  0.00    +0.000 A 
ATOM      8  C7  UNL     1     -18.297   9.339 -38.765  0.00  0.00    +0.000 A 
ATOM      9  N1  UNL     1     -18.504   8.035 -39.048  0.00  0.00    +0.000 NA
ATOM     10  C8  UNL     1     -19.726   7.536 -38.757  0.00  0.00    +0.000 A 
ENDROOT
TORSDOF 0
ENDMDL
MODEL 3
REMARK VINA RESULT:    -3.647      1.186      2.105
REMARK INTER + INTRA:          -3.647
REMARK INTER:                  -3.647
REMARK INTRA:                   0.000
REMARK UNBOUND:                 0.000
REMARK  Name = /home/anacleto/Desktop/manuscript_Mpro/naturecomm/supplementary_file_S2/6-chemical-library/molecular_docking/3D_ligand_structure/223.pdb
REMARK  0 active torsions:
REMARK  status: ('A' for Active; 'I' for Inactive)
REMARK                            x       y       z     vdW  Elec       q    Type
REMARK                         _______ _______ _______ _____ _____    ______ ____
ROOT
ATOM      1  C1  UNL     1     -33.887  13.203 -31.840  0.00  0.00    +0.000 C 
ATOM      2  C2  UNL     1     -33.610  12.866 -33.299  0.00  0.00    +0.000 C 
ATOM      3  C3  UNL     1     -33.812  11.373 -33.508  0.00  0.00    +0.000 C 
ATOM      4  O1  UNL     1     -35.162  10.970 -33.252  0.00  0.00    +0.000 OA
ATOM      5  C4  UNL     1     -35.692  11.461 -32.088  0.00  0.00    +0.000 A 
ATOM      6  C5  UNL     1     -35.139  12.526 -31.380  0.00  0.00    +0.000 A 
ATOM      7  C6  UNL     1     -36.862  10.861 -31.642  0.00  0.00    +0.000 A 
ATOM      8  C7  UNL     1     -37.429  11.333 -30.472  0.00  0.00    +0.000 A 
ATOM      9  N1  UNL     1     -36.913  12.345 -29.743  0.00  0.00    +0.000 NA
ATOM     10  C8  UNL     1     -35.782  12.917 -30.212  0.00  0.00    +0.000 A 
ENDROOT
TORSDOF 0
ENDMDL
MODEL 4
REMARK VINA RESULT:    -3.643     11.558     13.288
REMARK INTER + INTRA:          -3.643
REMARK INTER:                  -3.643
REMARK INTRA:                   0.000
REMARK UNBOUND:                 0.000
REMARK  Name = /home/anacleto/Desktop/manuscript_Mpro/naturecomm/supplementary_file_S2/6-chemical-library/molecular_docking/3D_ligand_structure/223.pdb
REMARK  0 active torsions:
REMARK  status: ('A' for Active; 'I' for Inactive)
REMARK                            x       y       z     vdW  Elec       q    Type
REMARK                         _______ _______ _______ _____ _____    ______ ____
ROOT
ATOM      1  C1  UNL     1     -25.506   4.163 -39.097  0.00  0.00    +0.000 C 
ATOM      2  C2  UNL     1     -25.761   2.663 -39.068  0.00  0.00    +0.000 C 
ATOM      3  C3  UNL     1     -26.719   2.346 -37.930  0.00  0.00    +0.000 C 
ATOM      4  O1  UNL     1     -27.996   2.968 -38.109  0.00  0.00    +0.000 OA
ATOM      5  C4  UNL     1     -27.941   4.291 -38.458  0.00  0.00    +0.000 A 
ATOM      6  C5  UNL     1     -26.792   4.912 -38.944  0.00  0.00    +0.000 A 
ATOM      7  C6  UNL     1     -29.124   5.010 -38.340  0.00  0.00    +0.000 A 
ATOM      8  C7  UNL     1     -29.107   6.349 -38.688  0.00  0.00    +0.000 A 
ATOM      9  N1  UNL     1     -28.010   6.994 -39.139  0.00  0.00    +0.000 NA
ATOM     10  C8  UNL     1     -26.880   6.263 -39.256  0.00  0.00    +0.000 A 
ENDROOT
TORSDOF 0
ENDMDL
MODEL 5
REMARK VINA RESULT:    -3.567     14.625     16.556
REMARK INTER + INTRA:          -3.567
REMARK INTER:                  -3.567
REMARK INTRA:                   0.000
REMARK UNBOUND:                 0.000
REMARK  Name = /home/anacleto/Desktop/manuscript_Mpro/naturecomm/supplementary_file_S2/6-chemical-library/molecular_docking/3D_ligand_structure/223.pdb
REMARK  0 active torsions:
REMARK  status: ('A' for Active; 'I' for Inactive)
REMARK                            x       y       z     vdW  Elec       q    Type
REMARK                         _______ _______ _______ _____ _____    ______ ____
ROOT
ATOM      1  C1  UNL     1     -21.762  10.452 -37.383  0.00  0.00    +0.000 C 
ATOM      2  C2  UNL     1     -23.002   9.771 -36.821  0.00  0.00    +0.000 C 
ATOM      3  C3  UNL     1     -23.484   8.724 -37.812  0.00  0.00    +0.000 C 
ATOM      4  O1  UNL     1     -22.516   7.690 -38.018  0.00  0.00    +0.000 OA
ATOM      5  C4  UNL     1     -21.240   8.138 -38.235  0.00  0.00    +0.000 A 
ATOM      6  C5  UNL     1     -20.820   9.434 -37.943  0.00  0.00    +0.000 A 
ATOM      7  C6  UNL     1     -20.338   7.211 -38.743  0.00  0.00    +0.000 A 
ATOM      8  C7  UNL     1     -19.039   7.627 -38.971  0.00  0.00    +0.000 A 
ATOM      9  N1  UNL     1     -18.598   8.880 -38.725  0.00  0.00    +0.000 NA
ATOM     10  C8  UNL     1     -19.496   9.752 -38.218  0.00  0.00    +0.000 A 
ENDROOT
TORSDOF 0
ENDMDL
MODEL 6
REMARK VINA RESULT:    -3.560     14.314     15.975
REMARK INTER + INTRA:          -3.560
REMARK INTER:                  -3.560
REMARK INTRA:                   0.000
REMARK UNBOUND:                 0.000
REMARK  Name = /home/anacleto/Desktop/manuscript_Mpro/naturecomm/supplementary_file_S2/6-chemical-library/molecular_docking/3D_ligand_structure/223.pdb
REMARK  0 active torsions:
REMARK  status: ('A' for Active; 'I' for Inactive)
REMARK                            x       y       z     vdW  Elec       q    Type
REMARK                         _______ _______ _______ _____ _____    ______ ____
ROOT
ATOM      1  C1  UNL     1     -20.563   7.280 -39.214  0.00  0.00    +0.000 C 
ATOM      2  C2  UNL     1     -19.097   7.571 -38.922  0.00  0.00    +0.000 C 
ATOM      3  C3  UNL     1     -18.880   9.076 -38.936  0.00  0.00    +0.000 C 
ATOM      4  O1  UNL     1     -19.632   9.740 -37.914  0.00  0.00    +0.000 OA
ATOM      5  C4  UNL     1     -20.943   9.352 -37.830  0.00  0.00    +0.000 A 
ATOM      6  C5  UNL     1     -21.442   8.190 -38.416  0.00  0.00    +0.000 A 
ATOM      7  C6  UNL     1     -21.782  10.171 -37.084  0.00  0.00    +0.000 A 
ATOM      8  C7  UNL     1     -23.112   9.809 -36.973  0.00  0.00    +0.000 A 
ATOM      9  N1  UNL     1     -23.640   8.706 -37.545  0.00  0.00    +0.000 NA
ATOM     10  C8  UNL     1     -22.795   7.923 -38.251  0.00  0.00    +0.000 A 
ENDROOT
TORSDOF 0
ENDMDL
MODEL 7
REMARK VINA RESULT:    -3.534     18.968     19.760
REMARK INTER + INTRA:          -3.534
REMARK INTER:                  -3.534
REMARK INTRA:                   0.000
REMARK UNBOUND:                 0.000
REMARK  Name = /home/anacleto/Desktop/manuscript_Mpro/naturecomm/supplementary_file_S2/6-chemical-library/molecular_docking/3D_ligand_structure/223.pdb
REMARK  0 active torsions:
REMARK  status: ('A' for Active; 'I' for Inactive)
REMARK                            x       y       z     vdW  Elec       q    Type
REMARK                         _______ _______ _______ _____ _____    ______ ____
ROOT
ATOM      1  C1  UNL     1     -26.746  -3.515 -28.546  0.00  0.00    +0.000 C 
ATOM      2  C2  UNL     1     -27.653  -3.586 -27.325  0.00  0.00    +0.000 C 
ATOM      3  C3  UNL     1     -27.227  -4.763 -26.460  0.00  0.00    +0.000 C 
ATOM      4  O1  UNL     1     -25.893  -4.611 -25.962  0.00  0.00    +0.000 OA
ATOM      5  C4  UNL     1     -24.973  -4.231 -26.903  0.00  0.00    +0.000 A 
ATOM      6  C5  UNL     1     -25.317  -3.693 -28.141  0.00  0.00    +0.000 A 
ATOM      7  C6  UNL     1     -23.637  -4.371 -26.551  0.00  0.00    +0.000 A 
ATOM      8  C7  UNL     1     -22.679  -3.993 -27.474  0.00  0.00    +0.000 A 
ATOM      9  N1  UNL     1     -22.969  -3.491 -28.694  0.00  0.00    +0.000 NA
ATOM     10  C8  UNL     1     -24.278  -3.353 -28.999  0.00  0.00    +0.000 A 
ENDROOT
TORSDOF 0
ENDMDL
MODEL 8
REMARK VINA RESULT:    -3.516     19.045     19.856
REMARK INTER + INTRA:          -3.516
REMARK INTER:                  -3.516
REMARK INTRA:                   0.000
REMARK UNBOUND:                 0.000
REMARK  Name = /home/anacleto/Desktop/manuscript_Mpro/naturecomm/supplementary_file_S2/6-chemical-library/molecular_docking/3D_ligand_structure/223.pdb
REMARK  0 active torsions:
REMARK  status: ('A' for Active; 'I' for Inactive)
REMARK                            x       y       z     vdW  Elec       q    Type
REMARK                         _______ _______ _______ _____ _____    ______ ____
ROOT
ATOM      1  C1  UNL     1     -26.072  -4.756 -25.972  0.00  0.00    +0.000 C 
ATOM      2  C2  UNL     1     -27.366  -4.929 -26.754  0.00  0.00    +0.000 C 
ATOM      3  C3  UNL     1     -27.549  -3.736 -27.679  0.00  0.00    +0.000 C 
ATOM      4  O1  UNL     1     -26.502  -3.640 -28.650  0.00  0.00    +0.000 OA
ATOM      5  C4  UNL     1     -25.238  -3.780 -28.142  0.00  0.00    +0.000 A 
ATOM      6  C5  UNL     1     -24.970  -4.314 -26.883  0.00  0.00    +0.000 A 
ATOM      7  C6  UNL     1     -24.193  -3.391 -28.970  0.00  0.00    +0.000 A 
ATOM      8  C7  UNL     1     -22.902  -3.522 -28.491  0.00  0.00    +0.000 A 
ATOM      9  N1  UNL     1     -22.600  -4.010 -27.269  0.00  0.00    +0.000 NA
ATOM     10  C8  UNL     1     -23.639  -4.394 -26.494  0.00  0.00    +0.000 A 
ENDROOT
TORSDOF 0
ENDMDL
MODEL 9
REMARK VINA RESULT:    -3.406     16.517     18.015
REMARK INTER + INTRA:          -3.406
REMARK INTER:                  -3.406
REMARK INTRA:                   0.000
REMARK UNBOUND:                 0.000
REMARK  Name = /home/anacleto/Desktop/manuscript_Mpro/naturecomm/supplementary_file_S2/6-chemical-library/molecular_docking/3D_ligand_structure/223.pdb
REMARK  0 active torsions:
REMARK  status: ('A' for Active; 'I' for Inactive)
REMARK                            x       y       z     vdW  Elec       q    Type
REMARK                         _______ _______ _______ _____ _____    ______ ____
ROOT
ATOM      1  C1  UNL     1     -21.281   8.323 -37.619  0.00  0.00    +0.000 C 
ATOM      2  C2  UNL     1     -21.598   6.855 -37.866  0.00  0.00    +0.000 C 
ATOM      3  C3  UNL     1     -21.394   6.546 -39.341  0.00  0.00    +0.000 C 
ATOM      4  O1  UNL     1     -20.035   6.738 -39.749  0.00  0.00    +0.000 OA
ATOM      5  C4  UNL     1     -19.474   7.915 -39.329  0.00  0.00    +0.000 A 
ATOM      6  C5  UNL     1     -20.012   8.704 -38.314  0.00  0.00    +0.000 A 
ATOM      7  C6  UNL     1     -18.288   8.289 -39.947  0.00  0.00    +0.000 A 
ATOM      8  C7  UNL     1     -17.690   9.470 -39.545  0.00  0.00    +0.000 A 
ATOM      9  N1  UNL     1     -18.191  10.276 -38.584  0.00  0.00    +0.000 NA
ATOM     10  C8  UNL     1     -19.338   9.875 -37.992  0.00  0.00    +0.000 A 
ENDROOT
TORSDOF 0
ENDMDL
