MODEL 1
REMARK VINA RESULT:    -4.980      0.000      0.000
REMARK INTER + INTRA:          -6.259
REMARK INTER:                  -5.889
REMARK INTRA:                  -0.370
REMARK UNBOUND:                -0.406
REMARK  Name = /home/anacleto/Desktop/manuscript_Mpro/naturecomm/supplementary_file_S2/6-chemical-library/molecular_docking/3D_ligand_structure/724.pdb
REMARK  3 active torsions:
REMARK  status: ('A' for Active; 'I' for Inactive)
REMARK    1  A    between atoms: C5_6  and  C6_7
REMARK    2  A    between atoms: N2_9  and  C7_10
REMARK    3  A    between atoms: C7_10  and  C8_11
REMARK                            x       y       z     vdW  Elec       q    Type
REMARK                         _______ _______ _______ _____ _____    ______ ____
ROOT
ATOM      1  C6  UNL     1      15.918  10.765  -3.289  0.00  0.00    +0.000 C 
ATOM      2  O1  UNL     1      16.882  10.013  -3.215  0.00  0.00    +0.000 OA
ATOM      3  N2  UNL     1      15.409  11.450  -2.207  0.00  0.00    +0.000 N 
ATOM      4  H5  UNL     1      14.813  12.249  -2.370  0.00  0.00    +0.000 HD
ENDROOT
BRANCH   1  10
ATOM      5  C1  UNL     1      13.895  10.737  -4.714  0.00  0.00    +0.000 A 
ATOM      6  C2  UNL     1      13.285  10.967  -5.933  0.00  0.00    +0.000 A 
ATOM      7  N1  UNL     1      13.936  11.445  -7.015  0.00  0.00    +0.000 NA
ATOM      8  C3  UNL     1      15.250  11.718  -6.873  0.00  0.00    +0.000 A 
ATOM      9  C4  UNL     1      15.953  11.521  -5.697  0.00  0.00    +0.000 A 
ATOM     10  C5  UNL     1      15.259  11.008  -4.601  0.00  0.00    +0.000 A 
ENDBRANCH   1  10
BRANCH   3  11
ATOM     11  C7  UNL     1      16.071  11.368  -0.925  0.00  0.00    +0.000 C 
BRANCH  11  12
ATOM     12  C8  UNL     1      17.103  12.445  -0.786  0.00  0.00    +0.000 A 
ATOM     13  C9  UNL     1      18.470  12.155  -0.839  0.00  0.00    +0.000 A 
ATOM     14  C10 UNL     1      19.401  13.178  -0.686  0.00  0.00    +0.000 A 
ATOM     15  C11 UNL     1      18.931  14.465  -0.478  0.00  0.00    +0.000 A 
ATOM     16  N3  UNL     1      17.621  14.783  -0.412  0.00  0.00    +0.000 NA
ATOM     17  C12 UNL     1      16.739  13.770  -0.570  0.00  0.00    +0.000 A 
ENDBRANCH  11  12
ENDBRANCH   3  11
TORSDOF 3
ENDMDL
MODEL 2
REMARK VINA RESULT:    -4.912      3.477      4.272
REMARK INTER + INTRA:          -6.179
REMARK INTER:                  -5.747
REMARK INTRA:                  -0.432
REMARK UNBOUND:                -0.406
REMARK  Name = /home/anacleto/Desktop/manuscript_Mpro/naturecomm/supplementary_file_S2/6-chemical-library/molecular_docking/3D_ligand_structure/724.pdb
REMARK  3 active torsions:
REMARK  status: ('A' for Active; 'I' for Inactive)
REMARK    1  A    between atoms: C5_6  and  C6_7
REMARK    2  A    between atoms: N2_9  and  C7_10
REMARK    3  A    between atoms: C7_10  and  C8_11
REMARK                            x       y       z     vdW  Elec       q    Type
REMARK                         _______ _______ _______ _____ _____    ______ ____
ROOT
ATOM      1  C6  UNL     1      15.271  13.743  -4.373  0.00  0.00    +0.000 C 
ATOM      2  O1  UNL     1      16.012  14.638  -4.760  0.00  0.00    +0.000 OA
ATOM      3  N2  UNL     1      14.882  13.601  -3.058  0.00  0.00    +0.000 N 
ATOM      4  H5  UNL     1      14.070  13.037  -2.846  0.00  0.00    +0.000 HD
ENDROOT
BRANCH   1  10
ATOM      5  C1  UNL     1      13.476  12.182  -5.055  0.00  0.00    +0.000 A 
ATOM      6  C2  UNL     1      12.958  11.275  -5.960  0.00  0.00    +0.000 A 
ATOM      7  N1  UNL     1      13.578  10.928  -7.108  0.00  0.00    +0.000 NA
ATOM      8  C3  UNL     1      14.761  11.520  -7.371  0.00  0.00    +0.000 A 
ATOM      9  C4  UNL     1      15.366  12.438  -6.530  0.00  0.00    +0.000 A 
ATOM     10  C5  UNL     1      14.711  12.764  -5.343  0.00  0.00    +0.000 A 
ENDBRANCH   1  10
BRANCH   3  11
ATOM     11  C7  UNL     1      15.278  14.585  -2.078  0.00  0.00    +0.000 C 
BRANCH  11  12
ATOM     12  C8  UNL     1      14.278  15.699  -2.004  0.00  0.00    +0.000 A 
ATOM     13  C9  UNL     1      12.942  15.456  -1.674  0.00  0.00    +0.000 A 
ATOM     14  C10 UNL     1      12.036  16.513  -1.634  0.00  0.00    +0.000 A 
ATOM     15  C11 UNL     1      12.499  17.784  -1.934  0.00  0.00    +0.000 A 
ATOM     16  N3  UNL     1      13.779  18.056  -2.265  0.00  0.00    +0.000 NA
ATOM     17  C12 UNL     1      14.638  17.012  -2.289  0.00  0.00    +0.000 A 
ENDBRANCH  11  12
ENDBRANCH   3  11
TORSDOF 3
ENDMDL
MODEL 3
REMARK VINA RESULT:    -4.890     13.715     15.874
REMARK INTER + INTRA:          -6.153
REMARK INTER:                  -5.904
REMARK INTRA:                  -0.249
REMARK UNBOUND:                -0.406
REMARK  Name = /home/anacleto/Desktop/manuscript_Mpro/naturecomm/supplementary_file_S2/6-chemical-library/molecular_docking/3D_ligand_structure/724.pdb
REMARK  3 active torsions:
REMARK  status: ('A' for Active; 'I' for Inactive)
REMARK    1  A    between atoms: C5_6  and  C6_7
REMARK    2  A    between atoms: N2_9  and  C7_10
REMARK    3  A    between atoms: C7_10  and  C8_11
REMARK                            x       y       z     vdW  Elec       q    Type
REMARK                         _______ _______ _______ _____ _____    ______ ____
ROOT
ATOM      1  C6  UNL     1      18.228   3.746   8.956  0.00  0.00    +0.000 C 
ATOM      2  O1  UNL     1      18.862   2.740   9.251  0.00  0.00    +0.000 OA
ATOM      3  N2  UNL     1      17.048   3.714   8.244  0.00  0.00    +0.000 N 
ATOM      4  H5  UNL     1      16.437   4.518   8.272  0.00  0.00    +0.000 HD
ENDROOT
BRANCH   1  10
ATOM      5  C1  UNL     1      19.059   6.016   8.427  0.00  0.00    +0.000 A 
ATOM      6  C2  UNL     1      19.495   7.260   8.845  0.00  0.00    +0.000 A 
ATOM      7  N1  UNL     1      19.583   7.623  10.142  0.00  0.00    +0.000 NA
ATOM      8  C3  UNL     1      19.210   6.711  11.063  0.00  0.00    +0.000 A 
ATOM      9  C4  UNL     1      18.763   5.439  10.750  0.00  0.00    +0.000 A 
ATOM     10  C5  UNL     1      18.699   5.085   9.402  0.00  0.00    +0.000 A 
ENDBRANCH   1  10
BRANCH   3  11
ATOM     11  C7  UNL     1      16.456   2.445   7.886  0.00  0.00    +0.000 C 
BRANCH  11  12
ATOM     12  C8  UNL     1      15.238   2.170   8.714  0.00  0.00    +0.000 A 
ATOM     13  C9  UNL     1      14.178   1.405   8.217  0.00  0.00    +0.000 A 
ATOM     14  C10 UNL     1      13.053   1.187   9.007  0.00  0.00    +0.000 A 
ATOM     15  C11 UNL     1      13.022   1.750  10.272  0.00  0.00    +0.000 A 
ATOM     16  N3  UNL     1      14.020   2.501  10.782  0.00  0.00    +0.000 NA
ATOM     17  C12 UNL     1      15.104   2.691   9.996  0.00  0.00    +0.000 A 
ENDBRANCH  11  12
ENDBRANCH   3  11
TORSDOF 3
ENDMDL
MODEL 4
REMARK VINA RESULT:    -4.684      1.618      6.400
REMARK INTER + INTRA:          -5.911
REMARK INTER:                  -5.564
REMARK INTRA:                  -0.347
REMARK UNBOUND:                -0.406
REMARK  Name = /home/anacleto/Desktop/manuscript_Mpro/naturecomm/supplementary_file_S2/6-chemical-library/molecular_docking/3D_ligand_structure/724.pdb
REMARK  3 active torsions:
REMARK  status: ('A' for Active; 'I' for Inactive)
REMARK    1  A    between atoms: C5_6  and  C6_7
REMARK    2  A    between atoms: N2_9  and  C7_10
REMARK    3  A    between atoms: C7_10  and  C8_11
REMARK                            x       y       z     vdW  Elec       q    Type
REMARK                         _______ _______ _______ _____ _____    ______ ____
ROOT
ATOM      1  C6  UNL     1      17.376  12.588  -1.095  0.00  0.00    +0.000 C 
ATOM      2  O1  UNL     1      18.058  11.571  -1.043  0.00  0.00    +0.000 OA
ATOM      3  N2  UNL     1      16.151  12.643  -1.723  0.00  0.00    +0.000 N 
ATOM      4  H5  UNL     1      15.520  13.401  -1.500  0.00  0.00    +0.000 HD
ENDROOT
BRANCH   1  10
ATOM      5  C1  UNL     1      16.893  14.814  -0.129  0.00  0.00    +0.000 A 
ATOM      6  C2  UNL     1      17.327  15.969   0.493  0.00  0.00    +0.000 A 
ATOM      7  N1  UNL     1      18.614  16.197   0.833  0.00  0.00    +0.000 NA
ATOM      8  C3  UNL     1      19.506  15.224   0.550  0.00  0.00    +0.000 A 
ATOM      9  C4  UNL     1      19.174  14.033  -0.073  0.00  0.00    +0.000 A 
ATOM     10  C5  UNL     1      17.840  13.834  -0.428  0.00  0.00    +0.000 A 
ENDBRANCH   1  10
BRANCH   3  11
ATOM     11  C7  UNL     1      15.571  11.444  -2.283  0.00  0.00    +0.000 C 
BRANCH  11  12
ATOM     12  C8  UNL     1      15.008  11.707  -3.646  0.00  0.00    +0.000 A 
ATOM     13  C9  UNL     1      15.171  12.946  -4.273  0.00  0.00    +0.000 A 
ATOM     14  C10 UNL     1      14.616  13.161  -5.532  0.00  0.00    +0.000 A 
ATOM     15  C11 UNL     1      13.909  12.126  -6.122  0.00  0.00    +0.000 A 
ATOM     16  N3  UNL     1      13.724  10.921  -5.544  0.00  0.00    +0.000 NA
ATOM     17  C12 UNL     1      14.278  10.737  -4.325  0.00  0.00    +0.000 A 
ENDBRANCH  11  12
ENDBRANCH   3  11
TORSDOF 3
ENDMDL
MODEL 5
REMARK VINA RESULT:    -4.573      2.108      6.273
REMARK INTER + INTRA:          -5.781
REMARK INTER:                  -5.373
REMARK INTRA:                  -0.408
REMARK UNBOUND:                -0.406
REMARK  Name = /home/anacleto/Desktop/manuscript_Mpro/naturecomm/supplementary_file_S2/6-chemical-library/molecular_docking/3D_ligand_structure/724.pdb
REMARK  3 active torsions:
REMARK  status: ('A' for Active; 'I' for Inactive)
REMARK    1  A    between atoms: C5_6  and  C6_7
REMARK    2  A    between atoms: N2_9  and  C7_10
REMARK    3  A    between atoms: C7_10  and  C8_11
REMARK                            x       y       z     vdW  Elec       q    Type
REMARK                         _______ _______ _______ _____ _____    ______ ____
ROOT
ATOM      1  C6  UNL     1      16.827  13.412  -0.892  0.00  0.00    +0.000 C 
ATOM      2  O1  UNL     1      15.921  13.955  -1.513  0.00  0.00    +0.000 OA
ATOM      3  N2  UNL     1      16.946  12.044  -0.774  0.00  0.00    +0.000 N 
ATOM      4  H5  UNL     1      17.838  11.652  -0.503  0.00  0.00    +0.000 HD
ENDROOT
BRANCH   1  10
ATOM      5  C1  UNL     1      17.548  15.490   0.241  0.00  0.00    +0.000 A 
ATOM      6  C2  UNL     1      18.539  16.247   0.838  0.00  0.00    +0.000 A 
ATOM      7  N1  UNL     1      19.816  15.831   0.974  0.00  0.00    +0.000 NA
ATOM      8  C3  UNL     1      20.116  14.601   0.506  0.00  0.00    +0.000 A 
ATOM      9  C4  UNL     1      19.199  13.767  -0.109  0.00  0.00    +0.000 A 
ATOM     10  C5  UNL     1      17.891  14.231  -0.252  0.00  0.00    +0.000 A 
ENDBRANCH   1  10
BRANCH   3  11
ATOM     11  C7  UNL     1      16.027  11.176  -1.474  0.00  0.00    +0.000 C 
BRANCH  11  12
ATOM     12  C8  UNL     1      16.487  10.930  -2.879  0.00  0.00    +0.000 A 
ATOM     13  C9  UNL     1      17.765  10.435  -3.149  0.00  0.00    +0.000 A 
ATOM     14  C10 UNL     1      18.166  10.237  -4.468  0.00  0.00    +0.000 A 
ATOM     15  C11 UNL     1      17.270  10.551  -5.478  0.00  0.00    +0.000 A 
ATOM     16  N3  UNL     1      16.032  11.039  -5.256  0.00  0.00    +0.000 NA
ATOM     17  C12 UNL     1      15.667  11.214  -3.966  0.00  0.00    +0.000 A 
ENDBRANCH  11  12
ENDBRANCH   3  11
TORSDOF 3
ENDMDL
MODEL 6
REMARK VINA RESULT:    -4.514     15.047     17.355
REMARK INTER + INTRA:          -5.711
REMARK INTER:                  -5.437
REMARK INTRA:                  -0.274
REMARK UNBOUND:                -0.406
REMARK  Name = /home/anacleto/Desktop/manuscript_Mpro/naturecomm/supplementary_file_S2/6-chemical-library/molecular_docking/3D_ligand_structure/724.pdb
REMARK  3 active torsions:
REMARK  status: ('A' for Active; 'I' for Inactive)
REMARK    1  A    between atoms: C5_6  and  C6_7
REMARK    2  A    between atoms: N2_9  and  C7_10
REMARK    3  A    between atoms: C7_10  and  C8_11
REMARK                            x       y       z     vdW  Elec       q    Type
REMARK                         _______ _______ _______ _____ _____    ______ ____
ROOT
ATOM      1  C6  UNL     1      17.567   7.380  14.093  0.00  0.00    +0.000 C 
ATOM      2  O1  UNL     1      18.487   7.475  14.896  0.00  0.00    +0.000 OA
ATOM      3  N2  UNL     1      17.742   7.473  12.730  0.00  0.00    +0.000 N 
ATOM      4  H5  UNL     1      17.021   7.116  12.118  0.00  0.00    +0.000 HD
ENDROOT
BRANCH   1  10
ATOM      5  C1  UNL     1      15.666   5.828  14.412  0.00  0.00    +0.000 A 
ATOM      6  C2  UNL     1      14.381   5.585  14.859  0.00  0.00    +0.000 A 
ATOM      7  N1  UNL     1      13.604   6.520  15.445  0.00  0.00    +0.000 NA
ATOM      8  C3  UNL     1      14.135   7.751  15.604  0.00  0.00    +0.000 A 
ATOM      9  C4  UNL     1      15.410   8.097  15.189  0.00  0.00    +0.000 A 
ATOM     10  C5  UNL     1      16.183   7.115  14.570  0.00  0.00    +0.000 A 
ENDBRANCH   1  10
BRANCH   3  11
ATOM     11  C7  UNL     1      19.072   7.601  12.180  0.00  0.00    +0.000 C 
BRANCH  11  12
ATOM     12  C8  UNL     1      19.177   6.897  10.862  0.00  0.00    +0.000 A 
ATOM     13  C9  UNL     1      19.504   7.589   9.692  0.00  0.00    +0.000 A 
ATOM     14  C10 UNL     1      19.573   6.905   8.481  0.00  0.00    +0.000 A 
ATOM     15  C11 UNL     1      19.305   5.546   8.481  0.00  0.00    +0.000 A 
ATOM     16  N3  UNL     1      18.979   4.846   9.588  0.00  0.00    +0.000 NA
ATOM     17  C12 UNL     1      18.926   5.534  10.751  0.00  0.00    +0.000 A 
ENDBRANCH  11  12
ENDBRANCH   3  11
TORSDOF 3
ENDMDL
MODEL 7
REMARK VINA RESULT:    -4.463     13.803     15.321
REMARK INTER + INTRA:          -5.651
REMARK INTER:                  -5.276
REMARK INTRA:                  -0.375
REMARK UNBOUND:                -0.406
REMARK  Name = /home/anacleto/Desktop/manuscript_Mpro/naturecomm/supplementary_file_S2/6-chemical-library/molecular_docking/3D_ligand_structure/724.pdb
REMARK  3 active torsions:
REMARK  status: ('A' for Active; 'I' for Inactive)
REMARK    1  A    between atoms: C5_6  and  C6_7
REMARK    2  A    between atoms: N2_9  and  C7_10
REMARK    3  A    between atoms: C7_10  and  C8_11
REMARK                            x       y       z     vdW  Elec       q    Type
REMARK                         _______ _______ _______ _____ _____    ______ ____
ROOT
ATOM      1  C6  UNL     1      17.120   2.690  10.090  0.00  0.00    +0.000 C 
ATOM      2  O1  UNL     1      17.315   2.818  11.293  0.00  0.00    +0.000 OA
ATOM      3  N2  UNL     1      18.065   3.000   9.136  0.00  0.00    +0.000 N 
ATOM      4  H5  UNL     1      17.963   2.622   8.205  0.00  0.00    +0.000 HD
ENDROOT
BRANCH   1  10
ATOM      5  C1  UNL     1      15.830   1.441   8.389  0.00  0.00    +0.000 A 
ATOM      6  C2  UNL     1      14.628   0.931   7.934  0.00  0.00    +0.000 A 
ATOM      7  N1  UNL     1      13.459   1.068   8.595  0.00  0.00    +0.000 NA
ATOM      8  C3  UNL     1      13.491   1.733   9.769  0.00  0.00    +0.000 A 
ATOM      9  C4  UNL     1      14.640   2.283  10.310  0.00  0.00    +0.000 A 
ATOM     10  C5  UNL     1      15.829   2.142   9.595  0.00  0.00    +0.000 A 
ENDBRANCH   1  10
BRANCH   3  11
ATOM     11  C7  UNL     1      19.389   3.416   9.540  0.00  0.00    +0.000 C 
BRANCH  11  12
ATOM     12  C8  UNL     1      19.531   4.905   9.457  0.00  0.00    +0.000 A 
ATOM     13  C9  UNL     1      18.984   5.630   8.394  0.00  0.00    +0.000 A 
ATOM     14  C10 UNL     1      19.153   7.011   8.339  0.00  0.00    +0.000 A 
ATOM     15  C11 UNL     1      19.873   7.623   9.352  0.00  0.00    +0.000 A 
ATOM     16  N3  UNL     1      20.423   6.957  10.389  0.00  0.00    +0.000 NA
ATOM     17  C12 UNL     1      20.238   5.617  10.420  0.00  0.00    +0.000 A 
ENDBRANCH  11  12
ENDBRANCH   3  11
TORSDOF 3
ENDMDL
MODEL 8
REMARK VINA RESULT:    -4.423      2.295      2.790
REMARK INTER + INTRA:          -5.605
REMARK INTER:                  -5.231
REMARK INTRA:                  -0.374
REMARK UNBOUND:                -0.406
REMARK  Name = /home/anacleto/Desktop/manuscript_Mpro/naturecomm/supplementary_file_S2/6-chemical-library/molecular_docking/3D_ligand_structure/724.pdb
REMARK  3 active torsions:
REMARK  status: ('A' for Active; 'I' for Inactive)
REMARK    1  A    between atoms: C5_6  and  C6_7
REMARK    2  A    between atoms: N2_9  and  C7_10
REMARK    3  A    between atoms: C7_10  and  C8_11
REMARK                            x       y       z     vdW  Elec       q    Type
REMARK                         _______ _______ _______ _____ _____    ______ ____
ROOT
ATOM      1  C6  UNL     1      15.635  14.393  -2.995  0.00  0.00    +0.000 C 
ATOM      2  O1  UNL     1      15.924  15.459  -3.526  0.00  0.00    +0.000 OA
ATOM      3  N2  UNL     1      15.724  14.177  -1.637  0.00  0.00    +0.000 N 
ATOM      4  H5  UNL     1      15.220  13.401  -1.230  0.00  0.00    +0.000 HD
ENDROOT
BRANCH   1  10
ATOM      5  C1  UNL     1      15.103  11.990  -3.248  0.00  0.00    +0.000 A 
ATOM      6  C2  UNL     1      14.623  10.943  -4.013  0.00  0.00    +0.000 A 
ATOM      7  N1  UNL     1      14.166  11.089  -5.275  0.00  0.00    +0.000 NA
ATOM      8  C3  UNL     1      14.177  12.334  -5.794  0.00  0.00    +0.000 A 
ATOM      9  C4  UNL     1      14.638  13.447  -5.112  0.00  0.00    +0.000 A 
ATOM     10  C5  UNL     1      15.122  13.264  -3.816  0.00  0.00    +0.000 A 
ENDBRANCH   1  10
BRANCH   3  11
ATOM     11  C7  UNL     1      16.090  15.263  -0.756  0.00  0.00    +0.000 C 
BRANCH  11  12
ATOM     12  C8  UNL     1      17.498  15.105  -0.268  0.00  0.00    +0.000 A 
ATOM     13  C9  UNL     1      18.224  13.934  -0.508  0.00  0.00    +0.000 A 
ATOM     14  C10 UNL     1      19.522  13.815  -0.022  0.00  0.00    +0.000 A 
ATOM     15  C11 UNL     1      20.053  14.873   0.698  0.00  0.00    +0.000 A 
ATOM     16  N3  UNL     1      19.380  16.014   0.957  0.00  0.00    +0.000 NA
ATOM     17  C12 UNL     1      18.123  16.106   0.467  0.00  0.00    +0.000 A 
ENDBRANCH  11  12
ENDBRANCH   3  11
TORSDOF 3
ENDMDL
MODEL 9
REMARK VINA RESULT:    -4.407      3.907      5.496
REMARK INTER + INTRA:          -5.586
REMARK INTER:                  -5.180
REMARK INTRA:                  -0.406
REMARK UNBOUND:                -0.406
REMARK  Name = /home/anacleto/Desktop/manuscript_Mpro/naturecomm/supplementary_file_S2/6-chemical-library/molecular_docking/3D_ligand_structure/724.pdb
REMARK  3 active torsions:
REMARK  status: ('A' for Active; 'I' for Inactive)
REMARK    1  A    between atoms: C5_6  and  C6_7
REMARK    2  A    between atoms: N2_9  and  C7_10
REMARK    3  A    between atoms: C7_10  and  C8_11
REMARK                            x       y       z     vdW  Elec       q    Type
REMARK                         _______ _______ _______ _____ _____    ______ ____
ROOT
ATOM      1  C6  UNL     1      18.935  10.317  -4.980  0.00  0.00    +0.000 C 
ATOM      2  O1  UNL     1      19.484  11.328  -4.559  0.00  0.00    +0.000 OA
ATOM      3  N2  UNL     1      17.739   9.845  -4.485  0.00  0.00    +0.000 N 
ATOM      4  H5  UNL     1      17.204   9.191  -5.038  0.00  0.00    +0.000 HD
ENDROOT
BRANCH   1  10
ATOM      5  C1  UNL     1      20.741   8.884  -5.880  0.00  0.00    +0.000 A 
ATOM      6  C2  UNL     1      21.296   8.173  -6.928  0.00  0.00    +0.000 A 
ATOM      7  N1  UNL     1      20.733   8.085  -8.152  0.00  0.00    +0.000 NA
ATOM      8  C3  UNL     1      19.559   8.725  -8.337  0.00  0.00    +0.000 A 
ATOM      9  C4  UNL     1      18.923   9.465  -7.355  0.00  0.00    +0.000 A 
ATOM     10  C5  UNL     1      19.537   9.553  -6.106  0.00  0.00    +0.000 A 
ENDBRANCH   1  10
BRANCH   3  11
ATOM     11  C7  UNL     1      17.026  10.600  -3.479  0.00  0.00    +0.000 C 
BRANCH  11  12
ATOM     12  C8  UNL     1      15.889  11.362  -4.089  0.00  0.00    +0.000 A 
ATOM     13  C9  UNL     1      15.300  10.953  -5.289  0.00  0.00    +0.000 A 
ATOM     14  C10 UNL     1      14.258  11.697  -5.836  0.00  0.00    +0.000 A 
ATOM     15  C11 UNL     1      13.843  12.835  -5.164  0.00  0.00    +0.000 A 
ATOM     16  N3  UNL     1      14.392  13.266  -4.009  0.00  0.00    +0.000 NA
ATOM     17  C12 UNL     1      15.398  12.520  -3.496  0.00  0.00    +0.000 A 
ENDBRANCH  11  12
ENDBRANCH   3  11
TORSDOF 3
ENDMDL
