MODEL 1
REMARK VINA RESULT:    -5.148      0.000      0.000
REMARK INTER + INTRA:          -5.992
REMARK INTER:                  -5.741
REMARK INTRA:                  -0.250
REMARK UNBOUND:                -0.241
REMARK  Name = /home/anacleto/Desktop/manuscript_Mpro/naturecomm/supplementary_file_S2/6-chemical-library/molecular_docking/3D_ligand_structure/983.pdb
REMARK  2 active torsions:
REMARK  status: ('A' for Active; 'I' for Inactive)
REMARK    1  A    between atoms: C3_5  and  C4_6
REMARK    2  A    between atoms: N3_8  and  C5_9
REMARK                            x       y       z     vdW  Elec       q    Type
REMARK                         _______ _______ _______ _____ _____    ______ ____
ROOT
ATOM      1  C4  UNL     1      21.902   7.161  12.416  0.00  0.00    +0.000 C 
ATOM      2  O1  UNL     1      21.277   6.245  12.941  0.00  0.00    +0.000 OA
ATOM      3  N3  UNL     1      21.817   7.571  11.101  0.00  0.00    +0.000 N 
ATOM      4  H4  UNL     1      22.428   8.353  10.880  0.00  0.00    +0.000 HD
ENDROOT
BRANCH   1   9
ATOM      5  N1  UNL     1      23.351   9.171  12.752  0.00  0.00    +0.000 N 
ATOM      6  C1  UNL     1      24.216   9.619  13.710  0.00  0.00    +0.000 A 
ATOM      7  C2  UNL     1      24.211   8.646  14.681  0.00  0.00    +0.000 A 
ATOM      8  N2  UNL     1      23.368   7.618  14.340  0.00  0.00    +0.000 NA
ATOM      9  C3  UNL     1      22.857   7.960  13.166  0.00  0.00    +0.000 A 
ATOM     10  H1  UNL     1      23.098   9.625  11.884  0.00  0.00    +0.000 HD
ENDBRANCH   1   9
BRANCH   3  11
ATOM     11  C5  UNL     1      21.016   7.054  10.069  0.00  0.00    +0.000 A 
ATOM     12  C6  UNL     1      21.523   5.963   9.353  0.00  0.00    +0.000 A 
ATOM     13  C7  UNL     1      20.788   5.390   8.311  0.00  0.00    +0.000 A 
ATOM     14  C8  UNL     1      19.540   5.905   7.975  0.00  0.00    +0.000 A 
ATOM     15  C9  UNL     1      19.027   6.991   8.682  0.00  0.00    +0.000 A 
ATOM     16  C10 UNL     1      19.762   7.564   9.725  0.00  0.00    +0.000 A 
ENDBRANCH   3  11
TORSDOF 2
ENDMDL
MODEL 2
REMARK VINA RESULT:    -5.140     17.813     18.687
REMARK INTER + INTRA:          -5.982
REMARK INTER:                  -5.747
REMARK INTRA:                  -0.236
REMARK UNBOUND:                -0.241
REMARK  Name = /home/anacleto/Desktop/manuscript_Mpro/naturecomm/supplementary_file_S2/6-chemical-library/molecular_docking/3D_ligand_structure/983.pdb
REMARK  2 active torsions:
REMARK  status: ('A' for Active; 'I' for Inactive)
REMARK    1  A    between atoms: C3_5  and  C4_6
REMARK    2  A    between atoms: N3_8  and  C5_9
REMARK                            x       y       z     vdW  Elec       q    Type
REMARK                         _______ _______ _______ _____ _____    ______ ____
ROOT
ATOM      1  C4  UNL     1      14.260  14.466  -2.917  0.00  0.00    +0.000 C 
ATOM      2  O1  UNL     1      14.895  13.692  -2.208  0.00  0.00    +0.000 OA
ATOM      3  N3  UNL     1      14.141  14.418  -4.291  0.00  0.00    +0.000 N 
ATOM      4  H4  UNL     1      13.563  15.162  -4.673  0.00  0.00    +0.000 HD
ENDROOT
BRANCH   1   9
ATOM      5  N1  UNL     1      13.695  16.894  -2.719  0.00  0.00    +0.000 N 
ATOM      6  C1  UNL     1      12.833  17.653  -1.980  0.00  0.00    +0.000 A 
ATOM      7  C2  UNL     1      12.160  16.758  -1.182  0.00  0.00    +0.000 A 
ATOM      8  N2  UNL     1      12.591  15.475  -1.416  0.00  0.00    +0.000 NA
ATOM      9  C3  UNL     1      13.521  15.583  -2.352  0.00  0.00    +0.000 A 
ATOM     10  H1  UNL     1      14.355  17.209  -3.419  0.00  0.00    +0.000 HD
ENDBRANCH   1   9
BRANCH   3  11
ATOM     11  C5  UNL     1      14.702  13.497  -5.190  0.00  0.00    +0.000 A 
ATOM     12  C6  UNL     1      13.868  12.477  -5.664  0.00  0.00    +0.000 A 
ATOM     13  C7  UNL     1      14.350  11.520  -6.561  0.00  0.00    +0.000 A 
ATOM     14  C8  UNL     1      15.672  11.575  -6.992  0.00  0.00    +0.000 A 
ATOM     15  C9  UNL     1      16.510  12.586  -6.527  0.00  0.00    +0.000 A 
ATOM     16  C10 UNL     1      16.027  13.544  -5.628  0.00  0.00    +0.000 A 
ENDBRANCH   3  11
TORSDOF 2
ENDMDL
MODEL 3
REMARK VINA RESULT:    -5.087     17.117     18.597
REMARK INTER + INTRA:          -5.923
REMARK INTER:                  -5.720
REMARK INTRA:                  -0.203
REMARK UNBOUND:                -0.241
REMARK  Name = /home/anacleto/Desktop/manuscript_Mpro/naturecomm/supplementary_file_S2/6-chemical-library/molecular_docking/3D_ligand_structure/983.pdb
REMARK  2 active torsions:
REMARK  status: ('A' for Active; 'I' for Inactive)
REMARK    1  A    between atoms: C3_5  and  C4_6
REMARK    2  A    between atoms: N3_8  and  C5_9
REMARK                            x       y       z     vdW  Elec       q    Type
REMARK                         _______ _______ _______ _____ _____    ______ ____
ROOT
ATOM      1  C4  UNL     1      14.703  13.564  -3.484  0.00  0.00    +0.000 C 
ATOM      2  O1  UNL     1      15.614  12.789  -3.209  0.00  0.00    +0.000 OA
ATOM      3  N3  UNL     1      13.826  13.463  -4.545  0.00  0.00    +0.000 N 
ATOM      4  H4  UNL     1      13.146  14.219  -4.581  0.00  0.00    +0.000 HD
ENDROOT
BRANCH   1   9
ATOM      5  N1  UNL     1      13.447  15.656  -2.939  0.00  0.00    +0.000 N 
ATOM      6  C1  UNL     1      13.494  16.615  -1.967  0.00  0.00    +0.000 A 
ATOM      7  C2  UNL     1      14.521  16.234  -1.137  0.00  0.00    +0.000 A 
ATOM      8  N2  UNL     1      15.101  15.070  -1.578  0.00  0.00    +0.000 NA
ATOM      9  C3  UNL     1      14.432  14.739  -2.672  0.00  0.00    +0.000 A 
ATOM     10  H1  UNL     1      12.814  15.602  -3.727  0.00  0.00    +0.000 HD
ENDBRANCH   1   9
BRANCH   3  11
ATOM     11  C5  UNL     1      13.764  12.478  -5.544  0.00  0.00    +0.000 A 
ATOM     12  C6  UNL     1      14.801  12.459  -6.486  0.00  0.00    +0.000 A 
ATOM     13  C7  UNL     1      14.814  11.510  -7.512  0.00  0.00    +0.000 A 
ATOM     14  C8  UNL     1      13.789  10.574  -7.606  0.00  0.00    +0.000 A 
ATOM     15  C9  UNL     1      12.754  10.585  -6.674  0.00  0.00    +0.000 A 
ATOM     16  C10 UNL     1      12.741  11.534  -5.646  0.00  0.00    +0.000 A 
ENDBRANCH   3  11
TORSDOF 2
ENDMDL
MODEL 4
REMARK VINA RESULT:    -5.049      5.022      6.935
REMARK INTER + INTRA:          -5.880
REMARK INTER:                  -5.648
REMARK INTRA:                  -0.232
REMARK UNBOUND:                -0.241
REMARK  Name = /home/anacleto/Desktop/manuscript_Mpro/naturecomm/supplementary_file_S2/6-chemical-library/molecular_docking/3D_ligand_structure/983.pdb
REMARK  2 active torsions:
REMARK  status: ('A' for Active; 'I' for Inactive)
REMARK    1  A    between atoms: C3_5  and  C4_6
REMARK    2  A    between atoms: N3_8  and  C5_9
REMARK                            x       y       z     vdW  Elec       q    Type
REMARK                         _______ _______ _______ _____ _____    ______ ____
ROOT
ATOM      1  C4  UNL     1      18.207   3.907   9.116  0.00  0.00    +0.000 C 
ATOM      2  O1  UNL     1      18.928   2.989   9.497  0.00  0.00    +0.000 OA
ATOM      3  N3  UNL     1      16.902   3.804   8.679  0.00  0.00    +0.000 N 
ATOM      4  H4  UNL     1      16.494   4.696   8.410  0.00  0.00    +0.000 HD
ENDROOT
BRANCH   1   9
ATOM      5  N1  UNL     1      18.730   6.058   7.955  0.00  0.00    +0.000 N 
ATOM      6  C1  UNL     1      19.223   7.282   8.311  0.00  0.00    +0.000 A 
ATOM      7  C2  UNL     1      19.452   7.196   9.664  0.00  0.00    +0.000 A 
ATOM      8  N2  UNL     1      19.113   5.954  10.140  0.00  0.00    +0.000 NA
ATOM      9  C3  UNL     1      18.677   5.282   9.085  0.00  0.00    +0.000 A 
ATOM     10  H1  UNL     1      18.446   5.749   7.035  0.00  0.00    +0.000 HD
ENDBRANCH   1   9
BRANCH   3  11
ATOM     11  C5  UNL     1      16.102   2.656   8.563  0.00  0.00    +0.000 A 
ATOM     12  C6  UNL     1      15.126   2.456   9.547  0.00  0.00    +0.000 A 
ATOM     13  C7  UNL     1      14.288   1.338   9.504  0.00  0.00    +0.000 A 
ATOM     14  C8  UNL     1      14.420   0.410   8.476  0.00  0.00    +0.000 A 
ATOM     15  C9  UNL     1      15.388   0.599   7.492  0.00  0.00    +0.000 A 
ATOM     16  C10 UNL     1      16.226   1.719   7.535  0.00  0.00    +0.000 A 
ENDBRANCH   3  11
TORSDOF 2
ENDMDL
MODEL 5
REMARK VINA RESULT:    -4.997      4.619      7.475
REMARK INTER + INTRA:          -5.822
REMARK INTER:                  -5.588
REMARK INTRA:                  -0.235
REMARK UNBOUND:                -0.241
REMARK  Name = /home/anacleto/Desktop/manuscript_Mpro/naturecomm/supplementary_file_S2/6-chemical-library/molecular_docking/3D_ligand_structure/983.pdb
REMARK  2 active torsions:
REMARK  status: ('A' for Active; 'I' for Inactive)
REMARK    1  A    between atoms: C3_5  and  C4_6
REMARK    2  A    between atoms: N3_8  and  C5_9
REMARK                            x       y       z     vdW  Elec       q    Type
REMARK                         _______ _______ _______ _____ _____    ______ ____
ROOT
ATOM      1  C4  UNL     1      17.469   3.843   9.583  0.00  0.00    +0.000 C 
ATOM      2  O1  UNL     1      17.641   3.917  10.796  0.00  0.00    +0.000 OA
ATOM      3  N3  UNL     1      18.126   4.570   8.611  0.00  0.00    +0.000 N 
ATOM      4  H4  UNL     1      17.825   4.346   7.666  0.00  0.00    +0.000 HD
ENDROOT
BRANCH   1   9
ATOM      5  N1  UNL     1      15.365   2.494   9.644  0.00  0.00    +0.000 N 
ATOM      6  C1  UNL     1      14.705   1.649   8.797  0.00  0.00    +0.000 A 
ATOM      7  C2  UNL     1      15.479   1.604   7.661  0.00  0.00    +0.000 A 
ATOM      8  N2  UNL     1      16.591   2.398   7.795  0.00  0.00    +0.000 NA
ATOM      9  C3  UNL     1      16.500   2.927   9.006  0.00  0.00    +0.000 A 
ATOM     10  H1  UNL     1      15.094   2.771  10.579  0.00  0.00    +0.000 HD
ENDBRANCH   1   9
BRANCH   3  11
ATOM     11  C5  UNL     1      19.123   5.547   8.767  0.00  0.00    +0.000 A 
ATOM     12  C6  UNL     1      20.429   5.095   8.996  0.00  0.00    +0.000 A 
ATOM     13  C7  UNL     1      21.478   6.003   9.162  0.00  0.00    +0.000 A 
ATOM     14  C8  UNL     1      21.231   7.371   9.101  0.00  0.00    +0.000 A 
ATOM     15  C9  UNL     1      19.935   7.830   8.873  0.00  0.00    +0.000 A 
ATOM     16  C10 UNL     1      18.884   6.921   8.707  0.00  0.00    +0.000 A 
ENDBRANCH   3  11
TORSDOF 2
ENDMDL
MODEL 6
REMARK VINA RESULT:    -4.715     14.473     16.708
REMARK INTER + INTRA:          -5.508
REMARK INTER:                  -5.284
REMARK INTRA:                  -0.224
REMARK UNBOUND:                -0.241
REMARK  Name = /home/anacleto/Desktop/manuscript_Mpro/naturecomm/supplementary_file_S2/6-chemical-library/molecular_docking/3D_ligand_structure/983.pdb
REMARK  2 active torsions:
REMARK  status: ('A' for Active; 'I' for Inactive)
REMARK    1  A    between atoms: C3_5  and  C4_6
REMARK    2  A    between atoms: N3_8  and  C5_9
REMARK                            x       y       z     vdW  Elec       q    Type
REMARK                         _______ _______ _______ _____ _____    ______ ____
ROOT
ATOM      1  C4  UNL     1      15.734  12.002  -2.279  0.00  0.00    +0.000 C 
ATOM      2  O1  UNL     1      15.728  11.217  -1.335  0.00  0.00    +0.000 OA
ATOM      3  N3  UNL     1      16.480  13.158  -2.385  0.00  0.00    +0.000 N 
ATOM      4  H4  UNL     1      16.328  13.659  -3.257  0.00  0.00    +0.000 HD
ENDROOT
BRANCH   1   9
ATOM      5  N1  UNL     1      14.450  10.560  -3.867  0.00  0.00    +0.000 N 
ATOM      6  C1  UNL     1      13.712  10.748  -5.001  0.00  0.00    +0.000 A 
ATOM      7  C2  UNL     1      13.752  12.103  -5.233  0.00  0.00    +0.000 A 
ATOM      8  N2  UNL     1      14.495  12.742  -4.272  0.00  0.00    +0.000 NA
ATOM      9  C3  UNL     1      14.907  11.786  -3.454  0.00  0.00    +0.000 A 
ATOM     10  H1  UNL     1      14.644   9.687  -3.392  0.00  0.00    +0.000 HD
ENDBRANCH   1   9
BRANCH   3  11
ATOM     11  C5  UNL     1      17.389  13.706  -1.466  0.00  0.00    +0.000 A 
ATOM     12  C6  UNL     1      17.012  14.892  -0.825  0.00  0.00    +0.000 A 
ATOM     13  C7  UNL     1      17.861  15.502   0.103  0.00  0.00    +0.000 A 
ATOM     14  C8  UNL     1      19.094  14.930   0.398  0.00  0.00    +0.000 A 
ATOM     15  C9  UNL     1      19.478  13.749  -0.234  0.00  0.00    +0.000 A 
ATOM     16  C10 UNL     1      18.629  13.139  -1.164  0.00  0.00    +0.000 A 
ENDBRANCH   3  11
TORSDOF 2
ENDMDL
MODEL 7
REMARK VINA RESULT:    -4.674     19.823     21.768
REMARK INTER + INTRA:          -5.461
REMARK INTER:                  -5.274
REMARK INTRA:                  -0.187
REMARK UNBOUND:                -0.241
REMARK  Name = /home/anacleto/Desktop/manuscript_Mpro/naturecomm/supplementary_file_S2/6-chemical-library/molecular_docking/3D_ligand_structure/983.pdb
REMARK  2 active torsions:
REMARK  status: ('A' for Active; 'I' for Inactive)
REMARK    1  A    between atoms: C3_5  and  C4_6
REMARK    2  A    between atoms: N3_8  and  C5_9
REMARK                            x       y       z     vdW  Elec       q    Type
REMARK                         _______ _______ _______ _____ _____    ______ ____
ROOT
ATOM      1  C4  UNL     1      12.761  19.132  -3.008  0.00  0.00    +0.000 C 
ATOM      2  O1  UNL     1      13.571  20.053  -2.968  0.00  0.00    +0.000 OA
ATOM      3  N3  UNL     1      11.621  19.071  -3.783  0.00  0.00    +0.000 N 
ATOM      4  H4  UNL     1      11.092  18.211  -3.659  0.00  0.00    +0.000 HD
ENDROOT
BRANCH   1   9
ATOM      5  N1  UNL     1      11.958  17.421  -1.373  0.00  0.00    +0.000 N 
ATOM      6  C1  UNL     1      12.469  16.303  -0.777  0.00  0.00    +0.000 A 
ATOM      7  C2  UNL     1      13.746  16.185  -1.274  0.00  0.00    +0.000 A 
ATOM      8  N2  UNL     1      14.025  17.201  -2.154  0.00  0.00    +0.000 NA
ATOM      9  C3  UNL     1      12.924  17.937  -2.198  0.00  0.00    +0.000 A 
ATOM     10  H1  UNL     1      11.037  17.822  -1.249  0.00  0.00    +0.000 HD
ENDBRANCH   1   9
BRANCH   3  11
ATOM     11  C5  UNL     1      11.121  20.020  -4.690  0.00  0.00    +0.000 A 
ATOM     12  C6  UNL     1      11.025  19.633  -6.032  0.00  0.00    +0.000 A 
ATOM     13  C7  UNL     1      10.538  20.520  -6.997  0.00  0.00    +0.000 A 
ATOM     14  C8  UNL     1      10.144  21.801  -6.627  0.00  0.00    +0.000 A 
ATOM     15  C9  UNL     1      10.235  22.196  -5.294  0.00  0.00    +0.000 A 
ATOM     16  C10 UNL     1      10.722  21.309  -4.328  0.00  0.00    +0.000 A 
ENDBRANCH   3  11
TORSDOF 2
ENDMDL
MODEL 8
REMARK VINA RESULT:    -4.558     15.315     17.293
REMARK INTER + INTRA:          -5.331
REMARK INTER:                  -5.096
REMARK INTRA:                  -0.235
REMARK UNBOUND:                -0.241
REMARK  Name = /home/anacleto/Desktop/manuscript_Mpro/naturecomm/supplementary_file_S2/6-chemical-library/molecular_docking/3D_ligand_structure/983.pdb
REMARK  2 active torsions:
REMARK  status: ('A' for Active; 'I' for Inactive)
REMARK    1  A    between atoms: C3_5  and  C4_6
REMARK    2  A    between atoms: N3_8  and  C5_9
REMARK                            x       y       z     vdW  Elec       q    Type
REMARK                         _______ _______ _______ _____ _____    ______ ____
ROOT
ATOM      1  C4  UNL     1      14.885  14.029  -2.814  0.00  0.00    +0.000 C 
ATOM      2  O1  UNL     1      13.918  14.703  -3.153  0.00  0.00    +0.000 OA
ATOM      3  N3  UNL     1      15.345  12.880  -3.424  0.00  0.00    +0.000 N 
ATOM      4  H4  UNL     1      16.166  12.483  -2.974  0.00  0.00    +0.000 HD
ENDROOT
BRANCH   1   9
ATOM      5  N1  UNL     1      15.465  15.473  -0.857  0.00  0.00    +0.000 N 
ATOM      6  C1  UNL     1      16.430  15.490   0.110  0.00  0.00    +0.000 A 
ATOM      7  C2  UNL     1      17.223  14.399  -0.155  0.00  0.00    +0.000 A 
ATOM      8  N2  UNL     1      16.767  13.719  -1.257  0.00  0.00    +0.000 NA
ATOM      9  C3  UNL     1      15.699  14.390  -1.665  0.00  0.00    +0.000 A 
ATOM     10  H1  UNL     1      14.702  16.126  -0.982  0.00  0.00    +0.000 HD
ENDBRANCH   1   9
BRANCH   3  11
ATOM     11  C5  UNL     1      14.832  12.218  -4.552  0.00  0.00    +0.000 A 
ATOM     12  C6  UNL     1      15.133  12.765  -5.805  0.00  0.00    +0.000 A 
ATOM     13  C7  UNL     1      14.661  12.167  -6.977  0.00  0.00    +0.000 A 
ATOM     14  C8  UNL     1      13.883  11.015  -6.904  0.00  0.00    +0.000 A 
ATOM     15  C9  UNL     1      13.578  10.463  -5.662  0.00  0.00    +0.000 A 
ATOM     16  C10 UNL     1      14.051  11.062  -4.489  0.00  0.00    +0.000 A 
ENDBRANCH   3  11
TORSDOF 2
ENDMDL
MODEL 9
REMARK VINA RESULT:    -4.530     14.684     17.272
REMARK INTER + INTRA:          -5.300
REMARK INTER:                  -5.059
REMARK INTRA:                  -0.241
REMARK UNBOUND:                -0.241
REMARK  Name = /home/anacleto/Desktop/manuscript_Mpro/naturecomm/supplementary_file_S2/6-chemical-library/molecular_docking/3D_ligand_structure/983.pdb
REMARK  2 active torsions:
REMARK  status: ('A' for Active; 'I' for Inactive)
REMARK    1  A    between atoms: C3_5  and  C4_6
REMARK    2  A    between atoms: N3_8  and  C5_9
REMARK                            x       y       z     vdW  Elec       q    Type
REMARK                         _______ _______ _______ _____ _____    ______ ____
ROOT
ATOM      1  C4  UNL     1      16.025  12.366  -4.081  0.00  0.00    +0.000 C 
ATOM      2  O1  UNL     1      16.904  12.773  -4.836  0.00  0.00    +0.000 OA
ATOM      3  N3  UNL     1      16.048  12.387  -2.702  0.00  0.00    +0.000 N 
ATOM      4  H4  UNL     1      15.210  11.997  -2.277  0.00  0.00    +0.000 HD
ENDROOT
BRANCH   1   9
ATOM      5  N1  UNL     1      14.320  10.545  -4.247  0.00  0.00    +0.000 N 
ATOM      6  C1  UNL     1      13.147  10.345  -4.918  0.00  0.00    +0.000 A 
ATOM      7  C2  UNL     1      12.953  11.492  -5.651  0.00  0.00    +0.000 A 
ATOM      8  N2  UNL     1      13.976  12.383  -5.445  0.00  0.00    +0.000 NA
ATOM      9  C3  UNL     1      14.793  11.787  -4.590  0.00  0.00    +0.000 A 
ATOM     10  H1  UNL     1      14.784   9.913  -3.607  0.00  0.00    +0.000 HD
ENDBRANCH   1   9
BRANCH   3  11
ATOM     11  C5  UNL     1      17.055  12.862  -1.846  0.00  0.00    +0.000 A 
ATOM     12  C6  UNL     1      18.082  11.972  -1.512  0.00  0.00    +0.000 A 
ATOM     13  C7  UNL     1      19.122  12.367  -0.666  0.00  0.00    +0.000 A 
ATOM     14  C8  UNL     1      19.142  13.657  -0.145  0.00  0.00    +0.000 A 
ATOM     15  C9  UNL     1      18.125  14.551  -0.472  0.00  0.00    +0.000 A 
ATOM     16  C10 UNL     1      17.084  14.155  -1.319  0.00  0.00    +0.000 A 
ENDBRANCH   3  11
TORSDOF 2
ENDMDL
