MODEL 1
REMARK VINA RESULT:    -5.729      0.000      0.000
REMARK INTER + INTRA:          -8.147
REMARK INTER:                  -7.743
REMARK INTRA:                  -0.404
REMARK UNBOUND:                -0.409
REMARK  Name = /home/anacleto/Desktop/manuscript_Mpro/naturecomm/supplementary_file_S2/6-chemical-library/molecular_docking/3D_ligand_structure/466.pdb
REMARK  6 active torsions:
REMARK  status: ('A' for Active; 'I' for Inactive)
REMARK    1  A    between atoms: C2_5  and  C3_6
REMARK    2  A    between atoms: N4_8  and  C4_9
REMARK    3  A    between atoms: C4_9  and  C5_10
REMARK    4  A    between atoms: N5_12  and  C6_13
REMARK    5  A    between atoms: C6_13  and  C7_14
REMARK    6  A    between atoms: C7_14  and  C8_15
REMARK                            x       y       z     vdW  Elec       q    Type
REMARK                         _______ _______ _______ _____ _____    ______ ____
ROOT
ATOM      1  C5  UNL     1      18.926   4.608   9.079  0.00  0.00    +0.000 C 
ATOM      2  O2  UNL     1      19.839   3.794   9.200  0.00  0.00    +0.000 OA
ATOM      3  N5  UNL     1      17.613   4.239   8.882  0.00  0.00    +0.000 N 
ATOM      4  H6  UNL     1      16.956   4.970   8.641  0.00  0.00    +0.000 HD
ENDROOT
BRANCH   1   5
ATOM      5  C4  UNL     1      19.175   6.119   9.159  0.00  0.00    +0.000 C 
BRANCH   5   8
ATOM      6  C3  UNL     1      19.701   6.768  11.500  0.00  0.00    +0.000 C 
ATOM      7  O1  UNL     1      20.853   6.355  11.458  0.00  0.00    +0.000 OA
ATOM      8  N4  UNL     1      18.827   6.712  10.439  0.00  0.00    +0.000 N 
ATOM      9  H3  UNL     1      17.899   7.098  10.588  0.00  0.00    +0.000 HD
BRANCH   6  14
ATOM     10  N1  UNL     1      19.860   8.103  13.579  0.00  0.00    +0.000 NA
ATOM     11  N2  UNL     1      18.916   8.476  14.463  0.00  0.00    +0.000 N 
ATOM     12  N3  UNL     1      17.653   8.076  14.245  0.00  0.00    +0.000 NA
ATOM     13  C1  UNL     1      17.785   7.390  13.106  0.00  0.00    +0.000 A 
ATOM     14  C2  UNL     1      19.128   7.401  12.686  0.00  0.00    +0.000 A 
ATOM     15  H1  UNL     1      19.149   9.042  15.276  0.00  0.00    +0.000 HD
ENDBRANCH   6  14
ENDBRANCH   5   8
ENDBRANCH   1   5
BRANCH   3  16
ATOM     16  C6  UNL     1      17.224   2.855   8.694  0.00  0.00    +0.000 C 
BRANCH  16  17
ATOM     17  C7  UNL     1      16.122   2.702   7.643  0.00  0.00    +0.000 C 
BRANCH  17  18
ATOM     18  C8  UNL     1      15.266   1.489   7.908  0.00  0.00    +0.000 A 
ATOM     19  C9  UNL     1      15.689   0.213   7.510  0.00  0.00    +0.000 A 
ATOM     20  C10 UNL     1      14.883  -0.901   7.741  0.00  0.00    +0.000 A 
ATOM     21  C11 UNL     1      13.646  -0.752   8.366  0.00  0.00    +0.000 A 
ATOM     22  C12 UNL     1      13.214   0.512   8.761  0.00  0.00    +0.000 A 
ATOM     23  C13 UNL     1      14.019   1.629   8.531  0.00  0.00    +0.000 A 
ENDBRANCH  17  18
ENDBRANCH  16  17
ENDBRANCH   3  16
TORSDOF 6
ENDMDL
MODEL 2
REMARK VINA RESULT:    -5.653     18.920     20.168
REMARK INTER + INTRA:          -8.045
REMARK INTER:                  -7.661
REMARK INTRA:                  -0.383
REMARK UNBOUND:                -0.409
REMARK  Name = /home/anacleto/Desktop/manuscript_Mpro/naturecomm/supplementary_file_S2/6-chemical-library/molecular_docking/3D_ligand_structure/466.pdb
REMARK  6 active torsions:
REMARK  status: ('A' for Active; 'I' for Inactive)
REMARK    1  A    between atoms: C2_5  and  C3_6
REMARK    2  A    between atoms: N4_8  and  C4_9
REMARK    3  A    between atoms: C4_9  and  C5_10
REMARK    4  A    between atoms: N5_12  and  C6_13
REMARK    5  A    between atoms: C6_13  and  C7_14
REMARK    6  A    between atoms: C7_14  and  C8_15
REMARK                            x       y       z     vdW  Elec       q    Type
REMARK                         _______ _______ _______ _____ _____    ______ ____
ROOT
ATOM      1  C5  UNL     1      13.023  16.388  -2.072  0.00  0.00    +0.000 C 
ATOM      2  O2  UNL     1      12.468  15.694  -1.224  0.00  0.00    +0.000 OA
ATOM      3  N5  UNL     1      13.802  15.862  -3.080  0.00  0.00    +0.000 N 
ATOM      4  H6  UNL     1      14.343  16.512  -3.637  0.00  0.00    +0.000 HD
ENDROOT
BRANCH   1   5
ATOM      5  C4  UNL     1      12.876  17.914  -2.089  0.00  0.00    +0.000 C 
BRANCH   5   8
ATOM      6  C3  UNL     1      12.272  19.774  -3.624  0.00  0.00    +0.000 C 
ATOM      7  O1  UNL     1      12.829  20.636  -2.955  0.00  0.00    +0.000 OA
ATOM      8  N4  UNL     1      12.257  18.438  -3.294  0.00  0.00    +0.000 N 
ATOM      9  H3  UNL     1      11.772  17.814  -3.933  0.00  0.00    +0.000 HD
BRANCH   6  14
ATOM     10  N1  UNL     1      10.502  19.374  -5.306  0.00  0.00    +0.000 NA
ATOM     11  N2  UNL     1      10.231  19.998  -6.468  0.00  0.00    +0.000 N 
ATOM     12  N3  UNL     1      11.028  21.010  -6.843  0.00  0.00    +0.000 NA
ATOM     13  C1  UNL     1      11.891  21.059  -5.824  0.00  0.00    +0.000 A 
ATOM     14  C2  UNL     1      11.579  20.067  -4.876  0.00  0.00    +0.000 A 
ATOM     15  H1  UNL     1       9.446  19.711  -7.050  0.00  0.00    +0.000 HD
ENDBRANCH   6  14
ENDBRANCH   5   8
ENDBRANCH   1   5
BRANCH   3  16
ATOM     16  C6  UNL     1      14.114  14.448  -3.151  0.00  0.00    +0.000 C 
BRANCH  16  17
ATOM     17  C7  UNL     1      15.288  14.161  -4.091  0.00  0.00    +0.000 C 
BRANCH  17  18
ATOM     18  C8  UNL     1      14.907  13.184  -5.175  0.00  0.00    +0.000 A 
ATOM     19  C9  UNL     1      13.757  12.393  -5.054  0.00  0.00    +0.000 A 
ATOM     20  C10 UNL     1      13.422  11.477  -6.052  0.00  0.00    +0.000 A 
ATOM     21  C11 UNL     1      14.234  11.342  -7.177  0.00  0.00    +0.000 A 
ATOM     22  C12 UNL     1      15.381  12.121  -7.304  0.00  0.00    +0.000 A 
ATOM     23  C13 UNL     1      15.719  13.037  -6.307  0.00  0.00    +0.000 A 
ENDBRANCH  17  18
ENDBRANCH  16  17
ENDBRANCH   3  16
TORSDOF 6
ENDMDL
MODEL 3
REMARK VINA RESULT:    -5.581     14.340     17.287
REMARK INTER + INTRA:          -7.947
REMARK INTER:                  -7.388
REMARK INTRA:                  -0.559
REMARK UNBOUND:                -0.409
REMARK  Name = /home/anacleto/Desktop/manuscript_Mpro/naturecomm/supplementary_file_S2/6-chemical-library/molecular_docking/3D_ligand_structure/466.pdb
REMARK  6 active torsions:
REMARK  status: ('A' for Active; 'I' for Inactive)
REMARK    1  A    between atoms: C2_5  and  C3_6
REMARK    2  A    between atoms: N4_8  and  C4_9
REMARK    3  A    between atoms: C4_9  and  C5_10
REMARK    4  A    between atoms: N5_12  and  C6_13
REMARK    5  A    between atoms: C6_13  and  C7_14
REMARK    6  A    between atoms: C7_14  and  C8_15
REMARK                            x       y       z     vdW  Elec       q    Type
REMARK                         _______ _______ _______ _____ _____    ______ ____
ROOT
ATOM      1  C5  UNL     1      17.514  11.198  -1.728  0.00  0.00    +0.000 C 
ATOM      2  O2  UNL     1      18.463  10.983  -0.977  0.00  0.00    +0.000 OA
ATOM      3  N5  UNL     1      16.710  12.312  -1.621  0.00  0.00    +0.000 N 
ATOM      4  H6  UNL     1      15.865  12.331  -2.178  0.00  0.00    +0.000 HD
ENDROOT
BRANCH   1   5
ATOM      5  C4  UNL     1      17.155  10.241  -2.871  0.00  0.00    +0.000 C 
BRANCH   5   8
ATOM      6  C3  UNL     1      15.860  10.976  -4.861  0.00  0.00    +0.000 C 
ATOM      7  O1  UNL     1      16.843  11.080  -5.583  0.00  0.00    +0.000 OA
ATOM      8  N4  UNL     1      15.912  10.564  -3.549  0.00  0.00    +0.000 N 
ATOM      9  H3  UNL     1      15.028  10.505  -3.051  0.00  0.00    +0.000 HD
BRANCH   6  14
ATOM     10  N1  UNL     1      13.933  12.476  -5.261  0.00  0.00    +0.000 NA
ATOM     11  N2  UNL     1      12.719  12.232  -5.791  0.00  0.00    +0.000 N 
ATOM     12  N3  UNL     1      12.437  10.977  -6.174  0.00  0.00    +0.000 NA
ATOM     13  C1  UNL     1      13.578  10.348  -5.880  0.00  0.00    +0.000 A 
ATOM     14  C2  UNL     1      14.502  11.253  -5.324  0.00  0.00    +0.000 A 
ATOM     15  H1  UNL     1      12.031  12.974  -5.896  0.00  0.00    +0.000 HD
ENDBRANCH   6  14
ENDBRANCH   5   8
ENDBRANCH   1   5
BRANCH   3  16
ATOM     16  C6  UNL     1      16.860  13.267  -0.540  0.00  0.00    +0.000 C 
BRANCH  16  17
ATOM     17  C7  UNL     1      17.200  14.669  -1.050  0.00  0.00    +0.000 C 
BRANCH  17  18
ATOM     18  C8  UNL     1      18.514  15.160  -0.496  0.00  0.00    +0.000 A 
ATOM     19  C9  UNL     1      19.439  14.262   0.054  0.00  0.00    +0.000 A 
ATOM     20  C10 UNL     1      20.644  14.726   0.583  0.00  0.00    +0.000 A 
ATOM     21  C11 UNL     1      20.933  16.089   0.572  0.00  0.00    +0.000 A 
ATOM     22  C12 UNL     1      20.018  16.990   0.032  0.00  0.00    +0.000 A 
ATOM     23  C13 UNL     1      18.812  16.529  -0.498  0.00  0.00    +0.000 A 
ENDBRANCH  17  18
ENDBRANCH  16  17
ENDBRANCH   3  16
TORSDOF 6
ENDMDL
MODEL 4
REMARK VINA RESULT:    -5.539     14.672     15.874
REMARK INTER + INTRA:          -7.891
REMARK INTER:                  -7.330
REMARK INTRA:                  -0.560
REMARK UNBOUND:                -0.409
REMARK  Name = /home/anacleto/Desktop/manuscript_Mpro/naturecomm/supplementary_file_S2/6-chemical-library/molecular_docking/3D_ligand_structure/466.pdb
REMARK  6 active torsions:
REMARK  status: ('A' for Active; 'I' for Inactive)
REMARK    1  A    between atoms: C2_5  and  C3_6
REMARK    2  A    between atoms: N4_8  and  C4_9
REMARK    3  A    between atoms: C4_9  and  C5_10
REMARK    4  A    between atoms: N5_12  and  C6_13
REMARK    5  A    between atoms: C6_13  and  C7_14
REMARK    6  A    between atoms: C7_14  and  C8_15
REMARK                            x       y       z     vdW  Elec       q    Type
REMARK                         _______ _______ _______ _____ _____    ______ ____
ROOT
ATOM      1  C5  UNL     1      15.340  14.198  -2.048  0.00  0.00    +0.000 C 
ATOM      2  O2  UNL     1      14.363  14.156  -2.792  0.00  0.00    +0.000 OA
ATOM      3  N5  UNL     1      16.134  13.102  -1.790  0.00  0.00    +0.000 N 
ATOM      4  H6  UNL     1      16.820  13.188  -1.050  0.00  0.00    +0.000 HD
ENDROOT
BRANCH   1   5
ATOM      5  C4  UNL     1      15.770  15.495  -1.352  0.00  0.00    +0.000 C 
BRANCH   5   8
ATOM      6  C3  UNL     1      17.583  15.892   0.302  0.00  0.00    +0.000 C 
ATOM      7  O1  UNL     1      16.821  16.202   1.208  0.00  0.00    +0.000 OA
ATOM      8  N4  UNL     1      17.167  15.522  -0.957  0.00  0.00    +0.000 N 
ATOM      9  H3  UNL     1      17.893  15.273  -1.625  0.00  0.00    +0.000 HD
BRANCH   6  14
ATOM     10  N1  UNL     1      19.799  16.958   0.578  0.00  0.00    +0.000 NA
ATOM     11  N2  UNL     1      21.028  16.422   0.705  0.00  0.00    +0.000 N 
ATOM     12  N3  UNL     1      21.140  15.085   0.668  0.00  0.00    +0.000 NA
ATOM     13  C1  UNL     1      19.866  14.715   0.518  0.00  0.00    +0.000 A 
ATOM     14  C2  UNL     1      19.035  15.850   0.465  0.00  0.00    +0.000 A 
ATOM     15  H1  UNL     1      21.850  17.009   0.822  0.00  0.00    +0.000 HD
ENDBRANCH   6  14
ENDBRANCH   5   8
ENDBRANCH   1   5
BRANCH   3  16
ATOM     16  C6  UNL     1      15.811  11.783  -2.298  0.00  0.00    +0.000 C 
BRANCH  16  17
ATOM     17  C7  UNL     1      16.553  11.467  -3.599  0.00  0.00    +0.000 C 
BRANCH  17  18
ATOM     18  C8  UNL     1      15.602  11.325  -4.761  0.00  0.00    +0.000 A 
ATOM     19  C9  UNL     1      16.021  11.610  -6.068  0.00  0.00    +0.000 A 
ATOM     20  C10 UNL     1      15.130  11.496  -7.135  0.00  0.00    +0.000 A 
ATOM     21  C11 UNL     1      13.813  11.100  -6.907  0.00  0.00    +0.000 A 
ATOM     22  C12 UNL     1      13.386  10.819  -5.612  0.00  0.00    +0.000 A 
ATOM     23  C13 UNL     1      14.275  10.932  -4.542  0.00  0.00    +0.000 A 
ENDBRANCH  17  18
ENDBRANCH  16  17
ENDBRANCH   3  16
TORSDOF 6
ENDMDL
MODEL 5
REMARK VINA RESULT:    -5.445     15.420     17.702
REMARK INTER + INTRA:          -7.764
REMARK INTER:                  -7.188
REMARK INTRA:                  -0.576
REMARK UNBOUND:                -0.409
REMARK  Name = /home/anacleto/Desktop/manuscript_Mpro/naturecomm/supplementary_file_S2/6-chemical-library/molecular_docking/3D_ligand_structure/466.pdb
REMARK  6 active torsions:
REMARK  status: ('A' for Active; 'I' for Inactive)
REMARK    1  A    between atoms: C2_5  and  C3_6
REMARK    2  A    between atoms: N4_8  and  C4_9
REMARK    3  A    between atoms: C4_9  and  C5_10
REMARK    4  A    between atoms: N5_12  and  C6_13
REMARK    5  A    between atoms: C6_13  and  C7_14
REMARK    6  A    between atoms: C7_14  and  C8_15
REMARK                            x       y       z     vdW  Elec       q    Type
REMARK                         _______ _______ _______ _____ _____    ______ ____
ROOT
ATOM      1  C5  UNL     1      15.200  15.386  -1.558  0.00  0.00    +0.000 C 
ATOM      2  O2  UNL     1      14.592  15.724  -0.545  0.00  0.00    +0.000 OA
ATOM      3  N5  UNL     1      16.467  14.844  -1.526  0.00  0.00    +0.000 N 
ATOM      4  H6  UNL     1      16.949  14.739  -2.410  0.00  0.00    +0.000 HD
ENDROOT
BRANCH   1   5
ATOM      5  C4  UNL     1      14.583  15.526  -2.954  0.00  0.00    +0.000 C 
BRANCH   5   8
ATOM      6  C3  UNL     1      14.979  13.430  -4.232  0.00  0.00    +0.000 C 
ATOM      7  O1  UNL     1      16.173  13.645  -4.400  0.00  0.00    +0.000 OA
ATOM      8  N4  UNL     1      14.140  14.271  -3.536  0.00  0.00    +0.000 N 
ATOM      9  H3  UNL     1      13.169  13.982  -3.451  0.00  0.00    +0.000 HD
BRANCH   6  14
ATOM     10  N1  UNL     1      14.498  11.003  -4.202  0.00  0.00    +0.000 NA
ATOM     11  N2  UNL     1      13.691  10.253  -4.976  0.00  0.00    +0.000 N 
ATOM     12  N3  UNL     1      13.013  10.864  -5.960  0.00  0.00    +0.000 NA
ATOM     13  C1  UNL     1      13.405  12.131  -5.805  0.00  0.00    +0.000 A 
ATOM     14  C2  UNL     1      14.310  12.231  -4.731  0.00  0.00    +0.000 A 
ATOM     15  H1  UNL     1      13.596   9.251  -4.824  0.00  0.00    +0.000 HD
ENDBRANCH   6  14
ENDBRANCH   5   8
ENDBRANCH   1   5
BRANCH   3  16
ATOM     16  C6  UNL     1      17.223  14.729  -0.295  0.00  0.00    +0.000 C 
BRANCH  16  17
ATOM     17  C7  UNL     1      18.301  13.646  -0.377  0.00  0.00    +0.000 C 
BRANCH  17  18
ATOM     18  C8  UNL     1      19.681  14.242  -0.501  0.00  0.00    +0.000 A 
ATOM     19  C9  UNL     1      20.364  14.707   0.631  0.00  0.00    +0.000 A 
ATOM     20  C10 UNL     1      21.632  15.276   0.505  0.00  0.00    +0.000 A 
ATOM     21  C11 UNL     1      22.226  15.388  -0.751  0.00  0.00    +0.000 A 
ATOM     22  C12 UNL     1      21.553  14.933  -1.882  0.00  0.00    +0.000 A 
ATOM     23  C13 UNL     1      20.285  14.364  -1.760  0.00  0.00    +0.000 A 
ENDBRANCH  17  18
ENDBRANCH  16  17
ENDBRANCH   3  16
TORSDOF 6
ENDMDL
MODEL 6
REMARK VINA RESULT:    -5.419     21.709     22.816
REMARK INTER + INTRA:          -7.729
REMARK INTER:                  -7.320
REMARK INTRA:                  -0.409
REMARK UNBOUND:                -0.409
REMARK  Name = /home/anacleto/Desktop/manuscript_Mpro/naturecomm/supplementary_file_S2/6-chemical-library/molecular_docking/3D_ligand_structure/466.pdb
REMARK  6 active torsions:
REMARK  status: ('A' for Active; 'I' for Inactive)
REMARK    1  A    between atoms: C2_5  and  C3_6
REMARK    2  A    between atoms: N4_8  and  C4_9
REMARK    3  A    between atoms: C4_9  and  C5_10
REMARK    4  A    between atoms: N5_12  and  C6_13
REMARK    5  A    between atoms: C6_13  and  C7_14
REMARK    6  A    between atoms: C7_14  and  C8_15
REMARK                            x       y       z     vdW  Elec       q    Type
REMARK                         _______ _______ _______ _____ _____    ______ ____
ROOT
ATOM      1  C5  UNL     1      11.879  20.728  -5.259  0.00  0.00    +0.000 C 
ATOM      2  O2  UNL     1      12.630  21.477  -5.881  0.00  0.00    +0.000 OA
ATOM      3  N5  UNL     1      11.038  19.827  -5.875  0.00  0.00    +0.000 N 
ATOM      4  H6  UNL     1      10.349  19.363  -5.297  0.00  0.00    +0.000 HD
ENDROOT
BRANCH   1   5
ATOM      5  C4  UNL     1      11.832  20.722  -3.726  0.00  0.00    +0.000 C 
BRANCH   5   8
ATOM      6  C3  UNL     1      13.178  18.960  -2.602  0.00  0.00    +0.000 C 
ATOM      7  O1  UNL     1      14.199  19.635  -2.555  0.00  0.00    +0.000 OA
ATOM      8  N4  UNL     1      11.989  19.407  -3.132  0.00  0.00    +0.000 N 
ATOM      9  H3  UNL     1      11.204  18.761  -3.105  0.00  0.00    +0.000 HD
BRANCH   6  14
ATOM     10  N1  UNL     1      12.007  17.117  -1.438  0.00  0.00    +0.000 NA
ATOM     11  N2  UNL     1      12.405  15.866  -1.142  0.00  0.00    +0.000 N 
ATOM     12  N3  UNL     1      13.645  15.496  -1.500  0.00  0.00    +0.000 NA
ATOM     13  C1  UNL     1      14.091  16.604  -2.096  0.00  0.00    +0.000 A 
ATOM     14  C2  UNL     1      13.099  17.603  -2.068  0.00  0.00    +0.000 A 
ATOM     15  H1  UNL     1      11.789  15.216  -0.658  0.00  0.00    +0.000 HD
ENDBRANCH   6  14
ENDBRANCH   5   8
ENDBRANCH   1   5
BRANCH   3  16
ATOM     16  C6  UNL     1      10.897  19.771  -7.317  0.00  0.00    +0.000 C 
BRANCH  16  17
ATOM     17  C7  UNL     1       9.433  19.671  -7.752  0.00  0.00    +0.000 C 
BRANCH  17  18
ATOM     18  C8  UNL     1       9.307  19.198  -9.178  0.00  0.00    +0.000 A 
ATOM     19  C9  UNL     1      10.278  18.362  -9.744  0.00  0.00    +0.000 A 
ATOM     20  C10 UNL     1      10.165  17.946 -11.071  0.00  0.00    +0.000 A 
ATOM     21  C11 UNL     1       9.083  18.363 -11.845  0.00  0.00    +0.000 A 
ATOM     22  C12 UNL     1       8.114  19.198 -11.293  0.00  0.00    +0.000 A 
ATOM     23  C13 UNL     1       8.225  19.616  -9.966  0.00  0.00    +0.000 A 
ENDBRANCH  17  18
ENDBRANCH  16  17
ENDBRANCH   3  16
TORSDOF 6
ENDMDL
MODEL 7
REMARK VINA RESULT:    -5.407     14.435     17.352
REMARK INTER + INTRA:          -7.713
REMARK INTER:                  -7.137
REMARK INTRA:                  -0.576
REMARK UNBOUND:                -0.409
REMARK  Name = /home/anacleto/Desktop/manuscript_Mpro/naturecomm/supplementary_file_S2/6-chemical-library/molecular_docking/3D_ligand_structure/466.pdb
REMARK  6 active torsions:
REMARK  status: ('A' for Active; 'I' for Inactive)
REMARK    1  A    between atoms: C2_5  and  C3_6
REMARK    2  A    between atoms: N4_8  and  C4_9
REMARK    3  A    between atoms: C4_9  and  C5_10
REMARK    4  A    between atoms: N5_12  and  C6_13
REMARK    5  A    between atoms: C6_13  and  C7_14
REMARK    6  A    between atoms: C7_14  and  C8_15
REMARK                            x       y       z     vdW  Elec       q    Type
REMARK                         _______ _______ _______ _____ _____    ______ ____
ROOT
ATOM      1  C5  UNL     1      17.522  11.356  -1.490  0.00  0.00    +0.000 C 
ATOM      2  O2  UNL     1      18.347  10.564  -1.941  0.00  0.00    +0.000 OA
ATOM      3  N5  UNL     1      17.859  12.611  -1.031  0.00  0.00    +0.000 N 
ATOM      4  H6  UNL     1      17.145  13.133  -0.538  0.00  0.00    +0.000 HD
ENDROOT
BRANCH   1   5
ATOM      5  C4  UNL     1      16.029  11.013  -1.419  0.00  0.00    +0.000 C 
BRANCH   5   8
ATOM      6  C3  UNL     1      14.966  12.107  -3.381  0.00  0.00    +0.000 C 
ATOM      7  O1  UNL     1      15.154  13.245  -2.970  0.00  0.00    +0.000 OA
ATOM      8  N4  UNL     1      15.367  10.974  -2.711  0.00  0.00    +0.000 N 
ATOM      9  H3  UNL     1      15.166  10.083  -3.157  0.00  0.00    +0.000 HD
BRANCH   6  14
ATOM     10  N1  UNL     1      14.312  12.685  -5.697  0.00  0.00    +0.000 NA
ATOM     11  N2  UNL     1      13.609  11.993  -6.615  0.00  0.00    +0.000 N 
ATOM     12  N3  UNL     1      13.143  10.782  -6.273  0.00  0.00    +0.000 NA
ATOM     13  C1  UNL     1      13.595  10.668  -5.021  0.00  0.00    +0.000 A 
ATOM     14  C2  UNL     1      14.314  11.822  -4.658  0.00  0.00    +0.000 A 
ATOM     15  H1  UNL     1      13.432  12.376  -7.541  0.00  0.00    +0.000 HD
ENDBRANCH   6  14
ENDBRANCH   5   8
ENDBRANCH   1   5
BRANCH   3  16
ATOM     16  C6  UNL     1      19.237  13.053  -0.946  0.00  0.00    +0.000 C 
BRANCH  16  17
ATOM     17  C7  UNL     1      19.480  13.960   0.263  0.00  0.00    +0.000 C 
BRANCH  17  18
ATOM     18  C8  UNL     1      19.076  15.385  -0.020  0.00  0.00    +0.000 A 
ATOM     19  C9  UNL     1      19.180  15.915  -1.313  0.00  0.00    +0.000 A 
ATOM     20  C10 UNL     1      18.823  17.241  -1.562  0.00  0.00    +0.000 A 
ATOM     21  C11 UNL     1      18.363  18.048  -0.524  0.00  0.00    +0.000 A 
ATOM     22  C12 UNL     1      18.260  17.532   0.766  0.00  0.00    +0.000 A 
ATOM     23  C13 UNL     1      18.617  16.206   1.018  0.00  0.00    +0.000 A 
ENDBRANCH  17  18
ENDBRANCH  16  17
ENDBRANCH   3  16
TORSDOF 6
ENDMDL
MODEL 8
REMARK VINA RESULT:    -5.392     14.283     15.458
REMARK INTER + INTRA:          -7.692
REMARK INTER:                  -7.289
REMARK INTRA:                  -0.403
REMARK UNBOUND:                -0.409
REMARK  Name = /home/anacleto/Desktop/manuscript_Mpro/naturecomm/supplementary_file_S2/6-chemical-library/molecular_docking/3D_ligand_structure/466.pdb
REMARK  6 active torsions:
REMARK  status: ('A' for Active; 'I' for Inactive)
REMARK    1  A    between atoms: C2_5  and  C3_6
REMARK    2  A    between atoms: N4_8  and  C4_9
REMARK    3  A    between atoms: C4_9  and  C5_10
REMARK    4  A    between atoms: N5_12  and  C6_13
REMARK    5  A    between atoms: C6_13  and  C7_14
REMARK    6  A    between atoms: C7_14  and  C8_15
REMARK                            x       y       z     vdW  Elec       q    Type
REMARK                         _______ _______ _______ _____ _____    ______ ____
ROOT
ATOM      1  C5  UNL     1      18.414  11.945  -1.853  0.00  0.00    +0.000 C 
ATOM      2  O2  UNL     1      18.760  12.322  -2.970  0.00  0.00    +0.000 OA
ATOM      3  N5  UNL     1      17.430  11.002  -1.650  0.00  0.00    +0.000 N 
ATOM      4  H6  UNL     1      17.104  10.866  -0.701  0.00  0.00    +0.000 HD
ENDROOT
BRANCH   1   5
ATOM      5  C4  UNL     1      19.072  12.487  -0.578  0.00  0.00    +0.000 C 
BRANCH   5   8
ATOM      6  C3  UNL     1      19.625  14.742   0.312  0.00  0.00    +0.000 C 
ATOM      7  O1  UNL     1      20.774  14.446   0.615  0.00  0.00    +0.000 OA
ATOM      8  N4  UNL     1      18.741  13.870  -0.281  0.00  0.00    +0.000 N 
ATOM      9  H3  UNL     1      17.816  14.232  -0.497  0.00  0.00    +0.000 HD
BRANCH   6  14
ATOM     10  N1  UNL     1      18.095  16.340   1.421  0.00  0.00    +0.000 NA
ATOM     11  N2  UNL     1      17.925  17.664   1.247  0.00  0.00    +0.000 N 
ATOM     12  N3  UNL     1      18.672  18.281   0.319  0.00  0.00    +0.000 NA
ATOM     13  C1  UNL     1      19.407  17.268  -0.146  0.00  0.00    +0.000 A 
ATOM     14  C2  UNL     1      19.068  16.076   0.521  0.00  0.00    +0.000 A 
ATOM     15  H1  UNL     1      17.248  18.185   1.800  0.00  0.00    +0.000 HD
ENDBRANCH   6  14
ENDBRANCH   5   8
ENDBRANCH   1   5
BRANCH   3  16
ATOM     16  C6  UNL     1      16.650  10.460  -2.745  0.00  0.00    +0.000 C 
BRANCH  16  17
ATOM     17  C7  UNL     1      15.394  11.288  -3.027  0.00  0.00    +0.000 C 
BRANCH  17  18
ATOM     18  C8  UNL     1      15.018  11.250  -4.487  0.00  0.00    +0.000 A 
ATOM     19  C9  UNL     1      15.888  11.753  -5.463  0.00  0.00    +0.000 A 
ATOM     20  C10 UNL     1      15.524  11.732  -6.810  0.00  0.00    +0.000 A 
ATOM     21  C11 UNL     1      14.288  11.213  -7.193  0.00  0.00    +0.000 A 
ATOM     22  C12 UNL     1      13.415  10.715  -6.229  0.00  0.00    +0.000 A 
ATOM     23  C13 UNL     1      13.776  10.735  -4.881  0.00  0.00    +0.000 A 
ENDBRANCH  17  18
ENDBRANCH  16  17
ENDBRANCH   3  16
TORSDOF 6
ENDMDL
MODEL 9
REMARK VINA RESULT:    -5.266     15.277     16.592
REMARK INTER + INTRA:          -7.521
REMARK INTER:                  -6.894
REMARK INTRA:                  -0.627
REMARK UNBOUND:                -0.409
REMARK  Name = /home/anacleto/Desktop/manuscript_Mpro/naturecomm/supplementary_file_S2/6-chemical-library/molecular_docking/3D_ligand_structure/466.pdb
REMARK  6 active torsions:
REMARK  status: ('A' for Active; 'I' for Inactive)
REMARK    1  A    between atoms: C2_5  and  C3_6
REMARK    2  A    between atoms: N4_8  and  C4_9
REMARK    3  A    between atoms: C4_9  and  C5_10
REMARK    4  A    between atoms: N5_12  and  C6_13
REMARK    5  A    between atoms: C6_13  and  C7_14
REMARK    6  A    between atoms: C7_14  and  C8_15
REMARK                            x       y       z     vdW  Elec       q    Type
REMARK                         _______ _______ _______ _____ _____    ______ ____
ROOT
ATOM      1  C5  UNL     1      17.615  13.633  -0.596  0.00  0.00    +0.000 C 
ATOM      2  O2  UNL     1      18.764  13.298  -0.316  0.00  0.00    +0.000 OA
ATOM      3  N5  UNL     1      16.798  12.894  -1.423  0.00  0.00    +0.000 N 
ATOM      4  H6  UNL     1      15.929  13.319  -1.720  0.00  0.00    +0.000 HD
ENDROOT
BRANCH   1   5
ATOM      5  C4  UNL     1      16.984  14.908  -0.023  0.00  0.00    +0.000 C 
BRANCH   5   8
ATOM      6  C3  UNL     1      15.597  16.278  -1.565  0.00  0.00    +0.000 C 
ATOM      7  O1  UNL     1      16.540  16.939  -1.981  0.00  0.00    +0.000 OA
ATOM      8  N4  UNL     1      15.718  15.270  -0.635  0.00  0.00    +0.000 N 
ATOM      9  H3  UNL     1      14.865  14.783  -0.374  0.00  0.00    +0.000 HD
BRANCH   6  14
ATOM     10  N1  UNL     1      13.475  15.470  -2.549  0.00  0.00    +0.000 NA
ATOM     11  N2  UNL     1      12.328  16.118  -2.827  0.00  0.00    +0.000 N 
ATOM     12  N3  UNL     1      12.263  17.432  -2.563  0.00  0.00    +0.000 NA
ATOM     13  C1  UNL     1      13.477  17.659  -2.052  0.00  0.00    +0.000 A 
ATOM     14  C2  UNL     1      14.226  16.468  -2.034  0.00  0.00    +0.000 A 
ATOM     15  H1  UNL     1      11.530  15.630  -3.230  0.00  0.00    +0.000 HD
ENDBRANCH   6  14
ENDBRANCH   5   8
ENDBRANCH   1   5
BRANCH   3  16
ATOM     16  C6  UNL     1      17.274  11.712  -2.116  0.00  0.00    +0.000 C 
BRANCH  16  17
ATOM     17  C7  UNL     1      16.130  10.780  -2.521  0.00  0.00    +0.000 C 
BRANCH  17  18
ATOM     18  C8  UNL     1      15.718  10.994  -3.956  0.00  0.00    +0.000 A 
ATOM     19  C9  UNL     1      16.677  11.252  -4.945  0.00  0.00    +0.000 A 
ATOM     20  C10 UNL     1      16.287  11.469  -6.266  0.00  0.00    +0.000 A 
ATOM     21  C11 UNL     1      14.937  11.435  -6.612  0.00  0.00    +0.000 A 
ATOM     22  C12 UNL     1      13.976  11.183  -5.635  0.00  0.00    +0.000 A 
ATOM     23  C13 UNL     1      14.363  10.966  -4.312  0.00  0.00    +0.000 A 
ENDBRANCH  17  18
ENDBRANCH  16  17
ENDBRANCH   3  16
TORSDOF 6
ENDMDL
