MODEL 1
REMARK VINA RESULT:    -2.825      0.000      0.000
REMARK INTER + INTRA:          -2.825
REMARK INTER:                  -2.825
REMARK INTRA:                   0.000
REMARK UNBOUND:                 0.000
REMARK  Name = /home/anacleto/Desktop/manuscript_Mpro/naturecomm/supplementary_file_S2/6-chemical-library/molecular_docking/3D_ligand_structure/108.pdb
REMARK  0 active torsions:
REMARK  status: ('A' for Active; 'I' for Inactive)
REMARK                            x       y       z     vdW  Elec       q    Type
REMARK                         _______ _______ _______ _____ _____    ______ ____
ROOT
ATOM      1  C1  UNL     1     -38.417   8.194 -14.529  0.00  0.00    +0.000 A 
ATOM      2  C2  UNL     1     -37.334   8.474 -15.384  0.00  0.00    +0.000 A 
ATOM      3  N1  UNL     1     -37.749   9.471 -16.226  0.00  0.00    +0.000 N 
ATOM      4  O1  UNL     1     -39.096   9.818 -15.897  0.00  0.00    +0.000 OA
ATOM      5  N2  UNL     1     -39.466   8.986 -14.826  0.00  0.00    +0.000 NA
ATOM      6  H3  UNL     1     -37.290   9.965 -16.985  0.00  0.00    +0.000 HD
ENDROOT
TORSDOF 0
ENDMDL
MODEL 2
REMARK VINA RESULT:    -2.720      1.891      1.891
REMARK INTER + INTRA:          -2.720
REMARK INTER:                  -2.720
REMARK INTRA:                   0.000
REMARK UNBOUND:                 0.000
REMARK  Name = /home/anacleto/Desktop/manuscript_Mpro/naturecomm/supplementary_file_S2/6-chemical-library/molecular_docking/3D_ligand_structure/108.pdb
REMARK  0 active torsions:
REMARK  status: ('A' for Active; 'I' for Inactive)
REMARK                            x       y       z     vdW  Elec       q    Type
REMARK                         _______ _______ _______ _____ _____    ______ ____
ROOT
ATOM      1  C1  UNL     1     -37.766   8.134 -13.842  0.00  0.00    +0.000 A 
ATOM      2  C2  UNL     1     -36.364   8.001 -13.820  0.00  0.00    +0.000 A 
ATOM      3  N1  UNL     1     -35.922   8.332 -15.073  0.00  0.00    +0.000 N 
ATOM      4  O1  UNL     1     -37.049   8.675 -15.882  0.00  0.00    +0.000 OA
ATOM      5  N2  UNL     1     -38.180   8.534 -15.060  0.00  0.00    +0.000 NA
ATOM      6  H3  UNL     1     -34.995   8.371 -15.486  0.00  0.00    +0.000 HD
ENDROOT
TORSDOF 0
ENDMDL
MODEL 3
REMARK VINA RESULT:    -2.682     25.221     25.526
REMARK INTER + INTRA:          -2.682
REMARK INTER:                  -2.682
REMARK INTRA:                   0.000
REMARK UNBOUND:                 0.000
REMARK  Name = /home/anacleto/Desktop/manuscript_Mpro/naturecomm/supplementary_file_S2/6-chemical-library/molecular_docking/3D_ligand_structure/108.pdb
REMARK  0 active torsions:
REMARK  status: ('A' for Active; 'I' for Inactive)
REMARK                            x       y       z     vdW  Elec       q    Type
REMARK                         _______ _______ _______ _____ _____    ______ ____
ROOT
ATOM      1  C1  UNL     1     -17.879  -3.905 -25.678  0.00  0.00    +0.000 A 
ATOM      2  C2  UNL     1     -17.613  -3.323 -24.424  0.00  0.00    +0.000 A 
ATOM      3  N1  UNL     1     -18.694  -3.597 -23.630  0.00  0.00    +0.000 N 
ATOM      4  O1  UNL     1     -19.641  -4.352 -24.389  0.00  0.00    +0.000 OA
ATOM      5  N2  UNL     1     -19.079  -4.517 -25.666  0.00  0.00    +0.000 NA
ATOM      6  H3  UNL     1     -18.914  -3.368 -22.665  0.00  0.00    +0.000 HD
ENDROOT
TORSDOF 0
ENDMDL
MODEL 4
REMARK VINA RESULT:    -2.613     30.437     31.021
REMARK INTER + INTRA:          -2.613
REMARK INTER:                  -2.613
REMARK INTRA:                   0.000
REMARK UNBOUND:                 0.000
REMARK  Name = /home/anacleto/Desktop/manuscript_Mpro/naturecomm/supplementary_file_S2/6-chemical-library/molecular_docking/3D_ligand_structure/108.pdb
REMARK  0 active torsions:
REMARK  status: ('A' for Active; 'I' for Inactive)
REMARK                            x       y       z     vdW  Elec       q    Type
REMARK                         _______ _______ _______ _____ _____    ______ ____
ROOT
ATOM      1  C1  UNL     1     -19.972  -5.063 -35.919  0.00  0.00    +0.000 A 
ATOM      2  C2  UNL     1     -20.065  -4.475 -34.643  0.00  0.00    +0.000 A 
ATOM      3  N1  UNL     1     -18.781  -4.278 -34.210  0.00  0.00    +0.000 N 
ATOM      4  O1  UNL     1     -17.881  -4.742 -35.218  0.00  0.00    +0.000 OA
ATOM      5  N2  UNL     1     -18.681  -5.224 -36.268  0.00  0.00    +0.000 NA
ATOM      6  H3  UNL     1     -18.398  -3.885 -33.356  0.00  0.00    +0.000 HD
ENDROOT
TORSDOF 0
ENDMDL
MODEL 5
REMARK VINA RESULT:    -2.582     16.103     16.351
REMARK INTER + INTRA:          -2.582
REMARK INTER:                  -2.582
REMARK INTRA:                   0.000
REMARK UNBOUND:                 0.000
REMARK  Name = /home/anacleto/Desktop/manuscript_Mpro/naturecomm/supplementary_file_S2/6-chemical-library/molecular_docking/3D_ligand_structure/108.pdb
REMARK  0 active torsions:
REMARK  status: ('A' for Active; 'I' for Inactive)
REMARK                            x       y       z     vdW  Elec       q    Type
REMARK                         _______ _______ _______ _____ _____    ______ ____
ROOT
ATOM      1  C1  UNL     1     -35.131  -2.993 -25.445  0.00  0.00    +0.000 A 
ATOM      2  C2  UNL     1     -34.214  -1.925 -25.444  0.00  0.00    +0.000 A 
ATOM      3  N1  UNL     1     -32.974  -2.475 -25.252  0.00  0.00    +0.000 N 
ATOM      4  O1  UNL     1     -33.115  -3.892 -25.134  0.00  0.00    +0.000 OA
ATOM      5  N2  UNL     1     -34.487  -4.163 -25.262  0.00  0.00    +0.000 NA
ATOM      6  H3  UNL     1     -32.046  -2.069 -25.187  0.00  0.00    +0.000 HD
ENDROOT
TORSDOF 0
ENDMDL
MODEL 6
REMARK VINA RESULT:    -2.461     20.676     21.183
REMARK INTER + INTRA:          -2.461
REMARK INTER:                  -2.461
REMARK INTRA:                   0.000
REMARK UNBOUND:                 0.000
REMARK  Name = /home/anacleto/Desktop/manuscript_Mpro/naturecomm/supplementary_file_S2/6-chemical-library/molecular_docking/3D_ligand_structure/108.pdb
REMARK  0 active torsions:
REMARK  status: ('A' for Active; 'I' for Inactive)
REMARK                            x       y       z     vdW  Elec       q    Type
REMARK                         _______ _______ _______ _____ _____    ______ ____
ROOT
ATOM      1  C1  UNL     1     -26.390  -4.392 -27.420  0.00  0.00    +0.000 A 
ATOM      2  C2  UNL     1     -27.737  -4.153 -27.085  0.00  0.00    +0.000 A 
ATOM      3  N1  UNL     1     -28.191  -3.198 -27.956  0.00  0.00    +0.000 N 
ATOM      4  O1  UNL     1     -27.127  -2.840 -28.840  0.00  0.00    +0.000 OA
ATOM      5  N2  UNL     1     -26.021  -3.619 -28.460  0.00  0.00    +0.000 NA
ATOM      6  H3  UNL     1     -29.092  -2.742 -28.065  0.00  0.00    +0.000 HD
ENDROOT
TORSDOF 0
ENDMDL
MODEL 7
REMARK VINA RESULT:    -2.446     26.091     26.158
REMARK INTER + INTRA:          -2.446
REMARK INTER:                  -2.446
REMARK INTRA:                   0.000
REMARK UNBOUND:                 0.000
REMARK  Name = /home/anacleto/Desktop/manuscript_Mpro/naturecomm/supplementary_file_S2/6-chemical-library/molecular_docking/3D_ligand_structure/108.pdb
REMARK  0 active torsions:
REMARK  status: ('A' for Active; 'I' for Inactive)
REMARK                            x       y       z     vdW  Elec       q    Type
REMARK                         _______ _______ _______ _____ _____    ______ ____
ROOT
ATOM      1  C1  UNL     1     -19.308  -4.748 -26.342  0.00  0.00    +0.000 A 
ATOM      2  C2  UNL     1     -18.406  -4.522 -25.285  0.00  0.00    +0.000 A 
ATOM      3  N1  UNL     1     -17.640  -3.447 -25.649  0.00  0.00    +0.000 N 
ATOM      4  O1  UNL     1     -18.063  -2.997 -26.937  0.00  0.00    +0.000 OA
ATOM      5  N2  UNL     1     -19.112  -3.848 -27.326  0.00  0.00    +0.000 NA
ATOM      6  H3  UNL     1     -16.881  -2.957 -25.186  0.00  0.00    +0.000 HD
ENDROOT
TORSDOF 0
ENDMDL
MODEL 8
REMARK VINA RESULT:    -2.437      9.211      9.292
REMARK INTER + INTRA:          -2.437
REMARK INTER:                  -2.437
REMARK INTRA:                   0.000
REMARK UNBOUND:                 0.000
REMARK  Name = /home/anacleto/Desktop/manuscript_Mpro/naturecomm/supplementary_file_S2/6-chemical-library/molecular_docking/3D_ligand_structure/108.pdb
REMARK  0 active torsions:
REMARK  status: ('A' for Active; 'I' for Inactive)
REMARK                            x       y       z     vdW  Elec       q    Type
REMARK                         _______ _______ _______ _____ _____    ______ ____
ROOT
ATOM      1  C1  UNL     1     -36.603   0.255 -16.979  0.00  0.00    +0.000 A 
ATOM      2  C2  UNL     1     -36.535   1.426 -17.758  0.00  0.00    +0.000 A 
ATOM      3  N1  UNL     1     -35.327   1.395 -18.403  0.00  0.00    +0.000 N 
ATOM      4  O1  UNL     1     -34.636   0.202 -18.028  0.00  0.00    +0.000 OA
ATOM      5  N2  UNL     1     -35.482  -0.476 -17.133  0.00  0.00    +0.000 NA
ATOM      6  H3  UNL     1     -34.880   2.034 -19.054  0.00  0.00    +0.000 HD
ENDROOT
TORSDOF 0
ENDMDL
MODEL 9
REMARK VINA RESULT:    -2.359     16.770     17.045
REMARK INTER + INTRA:          -2.359
REMARK INTER:                  -2.359
REMARK INTRA:                   0.000
REMARK UNBOUND:                 0.000
REMARK  Name = /home/anacleto/Desktop/manuscript_Mpro/naturecomm/supplementary_file_S2/6-chemical-library/molecular_docking/3D_ligand_structure/108.pdb
REMARK  0 active torsions:
REMARK  status: ('A' for Active; 'I' for Inactive)
REMARK                            x       y       z     vdW  Elec       q    Type
REMARK                         _______ _______ _______ _____ _____    ______ ____
ROOT
ATOM      1  C1  UNL     1     -35.474  11.962 -32.321  0.00  0.00    +0.000 A 
ATOM      2  C2  UNL     1     -35.681  10.776 -33.052  0.00  0.00    +0.000 A 
ATOM      3  N1  UNL     1     -36.661  10.080 -32.397  0.00  0.00    +0.000 N 
ATOM      4  O1  UNL     1     -37.071  10.831 -31.252  0.00  0.00    +0.000 OA
ATOM      5  N2  UNL     1     -36.294  12.003 -31.253  0.00  0.00    +0.000 NA
ATOM      6  H3  UNL     1     -37.108   9.187 -32.580  0.00  0.00    +0.000 HD
ENDROOT
TORSDOF 0
ENDMDL
