MODEL 1
REMARK VINA RESULT:    -4.314      0.000      0.000
REMARK INTER + INTRA:          -4.314
REMARK INTER:                  -4.314
REMARK INTRA:                   0.000
REMARK UNBOUND:                 0.000
REMARK  Name = /home/anacleto/Desktop/manuscript_Mpro/naturecomm/supplementary_file_S2/6-chemical-library/molecular_docking/3D_ligand_structure/263.pdb
REMARK  0 active torsions:
REMARK  status: ('A' for Active; 'I' for Inactive)
REMARK                            x       y       z     vdW  Elec       q    Type
REMARK                         _______ _______ _______ _____ _____    ______ ____
ROOT
ATOM      1  C1  UNL     1      17.576   3.791   8.930  0.00  0.00    +0.000 C 
ATOM      2  C2  UNL     1      18.853   4.124   9.137  0.00  0.00    +0.000 C 
ATOM      3  C3  UNL     1      19.917   3.205   9.496  0.00  0.00    +0.000 C 
ATOM      4  C4  UNL     1      21.072   3.880   9.626  0.00  0.00    +0.000 C 
ATOM      5  C5  UNL     1      20.799   5.292   9.353  0.00  0.00    +0.000 A 
ATOM      6  C6  UNL     1      19.437   5.463   9.049  0.00  0.00    +0.000 A 
ATOM      7  C7  UNL     1      21.667   6.369   9.362  0.00  0.00    +0.000 A 
ATOM      8  C8  UNL     1      21.152   7.634   9.062  0.00  0.00    +0.000 A 
ATOM      9  C9  UNL     1      19.788   7.802   8.759  0.00  0.00    +0.000 A 
ATOM     10  C10 UNL     1      18.916   6.709   8.750  0.00  0.00    +0.000 A 
ENDROOT
TORSDOF 0
ENDMDL
MODEL 2
REMARK VINA RESULT:    -4.194      0.611      2.271
REMARK INTER + INTRA:          -4.194
REMARK INTER:                  -4.194
REMARK INTRA:                   0.000
REMARK UNBOUND:                 0.000
REMARK  Name = /home/anacleto/Desktop/manuscript_Mpro/naturecomm/supplementary_file_S2/6-chemical-library/molecular_docking/3D_ligand_structure/263.pdb
REMARK  0 active torsions:
REMARK  status: ('A' for Active; 'I' for Inactive)
REMARK                            x       y       z     vdW  Elec       q    Type
REMARK                         _______ _______ _______ _____ _____    ______ ____
ROOT
ATOM      1  C1  UNL     1      21.102   2.775   9.910  0.00  0.00    +0.000 C 
ATOM      2  C2  UNL     1      20.172   3.662   9.544  0.00  0.00    +0.000 C 
ATOM      3  C3  UNL     1      18.781   3.360   9.264  0.00  0.00    +0.000 C 
ATOM      4  C4  UNL     1      18.134   4.487   8.925  0.00  0.00    +0.000 C 
ATOM      5  C5  UNL     1      19.096   5.588   8.971  0.00  0.00    +0.000 A 
ATOM      6  C6  UNL     1      20.359   5.100   9.350  0.00  0.00    +0.000 A 
ATOM      7  C7  UNL     1      18.903   6.932   8.703  0.00  0.00    +0.000 A 
ATOM      8  C8  UNL     1      19.999   7.792   8.821  0.00  0.00    +0.000 A 
ATOM      9  C9  UNL     1      21.262   7.300   9.200  0.00  0.00    +0.000 A 
ATOM     10  C10 UNL     1      21.451   5.942   9.470  0.00  0.00    +0.000 A 
ENDROOT
TORSDOF 0
ENDMDL
MODEL 3
REMARK VINA RESULT:    -4.165      6.115      8.276
REMARK INTER + INTRA:          -4.165
REMARK INTER:                  -4.165
REMARK INTRA:                   0.000
REMARK UNBOUND:                 0.000
REMARK  Name = /home/anacleto/Desktop/manuscript_Mpro/naturecomm/supplementary_file_S2/6-chemical-library/molecular_docking/3D_ligand_structure/263.pdb
REMARK  0 active torsions:
REMARK  status: ('A' for Active; 'I' for Inactive)
REMARK                            x       y       z     vdW  Elec       q    Type
REMARK                         _______ _______ _______ _____ _____    ______ ____
ROOT
ATOM      1  C1  UNL     1      16.009  -1.197   6.703  0.00  0.00    +0.000 C 
ATOM      2  C2  UNL     1      15.524  -0.143   7.365  0.00  0.00    +0.000 C 
ATOM      3  C3  UNL     1      16.096   1.191   7.364  0.00  0.00    +0.000 C 
ATOM      4  C4  UNL     1      15.352   2.001   8.136  0.00  0.00    +0.000 C 
ATOM      5  C5  UNL     1      14.247   1.212   8.679  0.00  0.00    +0.000 A 
ATOM      6  C6  UNL     1      14.334  -0.112   8.216  0.00  0.00    +0.000 A 
ATOM      7  C7  UNL     1      13.222   1.605   9.523  0.00  0.00    +0.000 A 
ATOM      8  C8  UNL     1      12.276   0.648   9.902  0.00  0.00    +0.000 A 
ATOM      9  C9  UNL     1      12.367  -0.677   9.437  0.00  0.00    +0.000 A 
ATOM     10  C10 UNL     1      13.404  -1.068   8.584  0.00  0.00    +0.000 A 
ENDROOT
TORSDOF 0
ENDMDL
MODEL 4
REMARK VINA RESULT:    -4.070      2.120      3.381
REMARK INTER + INTRA:          -4.070
REMARK INTER:                  -4.070
REMARK INTRA:                   0.000
REMARK UNBOUND:                 0.000
REMARK  Name = /home/anacleto/Desktop/manuscript_Mpro/naturecomm/supplementary_file_S2/6-chemical-library/molecular_docking/3D_ligand_structure/263.pdb
REMARK  0 active torsions:
REMARK  status: ('A' for Active; 'I' for Inactive)
REMARK                            x       y       z     vdW  Elec       q    Type
REMARK                         _______ _______ _______ _____ _____    ______ ____
ROOT
ATOM      1  C1  UNL     1      21.476   4.633   8.388  0.00  0.00    +0.000 C 
ATOM      2  C2  UNL     1      20.586   5.523   8.834  0.00  0.00    +0.000 C 
ATOM      3  C3  UNL     1      19.630   6.245   8.015  0.00  0.00    +0.000 C 
ATOM      4  C4  UNL     1      18.893   7.057   8.791  0.00  0.00    +0.000 C 
ATOM      5  C5  UNL     1      19.348   6.892  10.172  0.00  0.00    +0.000 A 
ATOM      6  C6  UNL     1      20.392   5.951  10.220  0.00  0.00    +0.000 A 
ATOM      7  C7  UNL     1      18.895   7.513  11.323  0.00  0.00    +0.000 A 
ATOM      8  C8  UNL     1      19.505   7.177  12.536  0.00  0.00    +0.000 A 
ATOM      9  C9  UNL     1      20.549   6.236  12.581  0.00  0.00    +0.000 A 
ATOM     10  C10 UNL     1      21.002   5.612  11.415  0.00  0.00    +0.000 A 
ENDROOT
TORSDOF 0
ENDMDL
MODEL 5
REMARK VINA RESULT:    -4.065      1.025      2.140
REMARK INTER + INTRA:          -4.065
REMARK INTER:                  -4.065
REMARK INTRA:                   0.000
REMARK UNBOUND:                 0.000
REMARK  Name = /home/anacleto/Desktop/manuscript_Mpro/naturecomm/supplementary_file_S2/6-chemical-library/molecular_docking/3D_ligand_structure/263.pdb
REMARK  0 active torsions:
REMARK  status: ('A' for Active; 'I' for Inactive)
REMARK                            x       y       z     vdW  Elec       q    Type
REMARK                         _______ _______ _______ _____ _____    ______ ____
ROOT
ATOM      1  C1  UNL     1      20.977   2.731   9.210  0.00  0.00    +0.000 C 
ATOM      2  C2  UNL     1      21.428   3.985   9.301  0.00  0.00    +0.000 C 
ATOM      3  C3  UNL     1      22.771   4.373   9.690  0.00  0.00    +0.000 C 
ATOM      4  C4  UNL     1      22.876   5.712   9.675  0.00  0.00    +0.000 C 
ATOM      5  C5  UNL     1      21.581   6.260   9.269  0.00  0.00    +0.000 A 
ATOM      6  C6  UNL     1      20.674   5.211   9.034  0.00  0.00    +0.000 A 
ATOM      7  C7  UNL     1      21.200   7.580   9.110  0.00  0.00    +0.000 A 
ATOM      8  C8  UNL     1      19.887   7.843   8.708  0.00  0.00    +0.000 A 
ATOM      9  C9  UNL     1      18.982   6.792   8.474  0.00  0.00    +0.000 A 
ATOM     10  C10 UNL     1      19.373   5.460   8.637  0.00  0.00    +0.000 A 
ENDROOT
TORSDOF 0
ENDMDL
MODEL 6
REMARK VINA RESULT:    -4.019     14.904     16.110
REMARK INTER + INTRA:          -4.019
REMARK INTER:                  -4.019
REMARK INTRA:                   0.000
REMARK UNBOUND:                 0.000
REMARK  Name = /home/anacleto/Desktop/manuscript_Mpro/naturecomm/supplementary_file_S2/6-chemical-library/molecular_docking/3D_ligand_structure/263.pdb
REMARK  0 active torsions:
REMARK  status: ('A' for Active; 'I' for Inactive)
REMARK                            x       y       z     vdW  Elec       q    Type
REMARK                         _______ _______ _______ _____ _____    ______ ____
ROOT
ATOM      1  C1  UNL     1      16.125  10.602  -2.267  0.00  0.00    +0.000 C 
ATOM      2  C2  UNL     1      16.393  10.857  -3.550  0.00  0.00    +0.000 C 
ATOM      3  C3  UNL     1      17.716  11.056  -4.113  0.00  0.00    +0.000 C 
ATOM      4  C4  UNL     1      17.615  11.292  -5.432  0.00  0.00    +0.000 C 
ATOM      5  C5  UNL     1      16.196  11.255  -5.786  0.00  0.00    +0.000 A 
ATOM      6  C6  UNL     1      15.426  10.989  -4.641  0.00  0.00    +0.000 A 
ATOM      7  C7  UNL     1      15.597  11.440  -7.020  0.00  0.00    +0.000 A 
ATOM      8  C8  UNL     1      14.203  11.354  -7.095  0.00  0.00    +0.000 A 
ATOM      9  C9  UNL     1      13.436  11.087  -5.947  0.00  0.00    +0.000 A 
ATOM     10  C10 UNL     1      14.047  10.902  -4.703  0.00  0.00    +0.000 A 
ENDROOT
TORSDOF 0
ENDMDL
MODEL 7
REMARK VINA RESULT:    -4.016     15.155     16.327
REMARK INTER + INTRA:          -4.016
REMARK INTER:                  -4.016
REMARK INTRA:                   0.000
REMARK UNBOUND:                 0.000
REMARK  Name = /home/anacleto/Desktop/manuscript_Mpro/naturecomm/supplementary_file_S2/6-chemical-library/molecular_docking/3D_ligand_structure/263.pdb
REMARK  0 active torsions:
REMARK  status: ('A' for Active; 'I' for Inactive)
REMARK                            x       y       z     vdW  Elec       q    Type
REMARK                         _______ _______ _______ _____ _____    ______ ____
ROOT
ATOM      1  C1  UNL     1      12.643  11.464  -5.770  0.00  0.00    +0.000 C 
ATOM      2  C2  UNL     1      13.961  11.434  -5.987  0.00  0.00    +0.000 C 
ATOM      3  C3  UNL     1      14.612  11.659  -7.264  0.00  0.00    +0.000 C 
ATOM      4  C4  UNL     1      15.943  11.554  -7.117  0.00  0.00    +0.000 C 
ATOM      5  C5  UNL     1      16.216  11.249  -5.712  0.00  0.00    +0.000 A 
ATOM      6  C6  UNL     1      15.008  11.172  -4.998  0.00  0.00    +0.000 A 
ATOM      7  C7  UNL     1      17.431  11.050  -5.080  0.00  0.00    +0.000 A 
ATOM      8  C8  UNL     1      17.423  10.769  -3.710  0.00  0.00    +0.000 A 
ATOM      9  C9  UNL     1      16.211  10.692  -2.998  0.00  0.00    +0.000 A 
ATOM     10  C10 UNL     1      14.987  10.894  -3.643  0.00  0.00    +0.000 A 
ENDROOT
TORSDOF 0
ENDMDL
MODEL 8
REMARK VINA RESULT:    -3.974     15.954     17.217
REMARK INTER + INTRA:          -3.974
REMARK INTER:                  -3.974
REMARK INTRA:                   0.000
REMARK UNBOUND:                 0.000
REMARK  Name = /home/anacleto/Desktop/manuscript_Mpro/naturecomm/supplementary_file_S2/6-chemical-library/molecular_docking/3D_ligand_structure/263.pdb
REMARK  0 active torsions:
REMARK  status: ('A' for Active; 'I' for Inactive)
REMARK                            x       y       z     vdW  Elec       q    Type
REMARK                         _______ _______ _______ _____ _____    ______ ____
ROOT
ATOM      1  C1  UNL     1      17.519  11.985  -8.259  0.00  0.00    +0.000 C 
ATOM      2  C2  UNL     1      17.084  11.710  -7.027  0.00  0.00    +0.000 C 
ATOM      3  C3  UNL     1      17.907  11.658  -5.833  0.00  0.00    +0.000 C 
ATOM      4  C4  UNL     1      17.143  11.353  -4.771  0.00  0.00    +0.000 C 
ATOM      5  C5  UNL     1      15.767  11.191  -5.240  0.00  0.00    +0.000 A 
ATOM      6  C6  UNL     1      15.709  11.407  -6.628  0.00  0.00    +0.000 A 
ATOM      7  C7  UNL     1      14.627  10.877  -4.520  0.00  0.00    +0.000 A 
ATOM      8  C8  UNL     1      13.416  10.780  -5.212  0.00  0.00    +0.000 A 
ATOM      9  C9  UNL     1      13.362  10.997  -6.602  0.00  0.00    +0.000 A 
ATOM     10  C10 UNL     1      14.516  11.314  -7.323  0.00  0.00    +0.000 A 
ENDROOT
TORSDOF 0
ENDMDL
MODEL 9
REMARK VINA RESULT:    -3.960      2.395      3.230
REMARK INTER + INTRA:          -3.960
REMARK INTER:                  -3.960
REMARK INTRA:                   0.000
REMARK UNBOUND:                 0.000
REMARK  Name = /home/anacleto/Desktop/manuscript_Mpro/naturecomm/supplementary_file_S2/6-chemical-library/molecular_docking/3D_ligand_structure/263.pdb
REMARK  0 active torsions:
REMARK  status: ('A' for Active; 'I' for Inactive)
REMARK                            x       y       z     vdW  Elec       q    Type
REMARK                         _______ _______ _______ _____ _____    ______ ____
ROOT
ATOM      1  C1  UNL     1      18.144   7.615  12.519  0.00  0.00    +0.000 C 
ATOM      2  C2  UNL     1      19.342   7.265  12.045  0.00  0.00    +0.000 C 
ATOM      3  C3  UNL     1      20.583   7.273  12.799  0.00  0.00    +0.000 C 
ATOM      4  C4  UNL     1      21.592   6.863  12.011  0.00  0.00    +0.000 C 
ATOM      5  C5  UNL     1      21.037   6.566  10.690  0.00  0.00    +0.000 A 
ATOM      6  C6  UNL     1      19.652   6.807  10.690  0.00  0.00    +0.000 A 
ATOM      7  C7  UNL     1      21.682   6.115   9.552  0.00  0.00    +0.000 A 
ATOM      8  C8  UNL     1      20.916   5.906   8.400  0.00  0.00    +0.000 A 
ATOM      9  C9  UNL     1      19.530   6.148   8.403  0.00  0.00    +0.000 A 
ATOM     10  C10 UNL     1      18.885   6.604   9.557  0.00  0.00    +0.000 A 
ENDROOT
TORSDOF 0
ENDMDL
