MODEL 1
REMARK VINA RESULT:    -4.191      0.000      0.000
REMARK INTER + INTRA:          -4.191
REMARK INTER:                  -4.191
REMARK INTRA:                   0.000
REMARK UNBOUND:                 0.000
REMARK  Name = /home/anacleto/Desktop/manuscript_Mpro/naturecomm/supplementary_file_S2/6-chemical-library/molecular_docking/3D_ligand_structure/171.pdb
REMARK  0 active torsions:
REMARK  status: ('A' for Active; 'I' for Inactive)
REMARK                            x       y       z     vdW  Elec       q    Type
REMARK                         _______ _______ _______ _____ _____    ______ ____
ROOT
ATOM      1  C1  UNL     1     -35.660  12.931 -30.271  0.00  0.00    +0.000 A 
ATOM      2  C2  UNL     1     -36.759  12.291 -29.696  0.00  0.00    +0.000 A 
ATOM      3  C3  UNL     1     -37.382  11.235 -30.364  0.00  0.00    +0.000 A 
ATOM      4  C4  UNL     1     -36.915  10.822 -31.615  0.00  0.00    +0.000 A 
ATOM      5  C5  UNL     1     -35.831  11.473 -32.202  0.00  0.00    +0.000 A 
ATOM      6  C6  UNL     1     -35.196  12.513 -31.520  0.00  0.00    +0.000 A 
ATOM      7  O1  UNL     1     -35.431  11.017 -33.431  0.00  0.00    +0.000 OA
ATOM      8  C7  UNL     1     -34.720  12.010 -34.178  0.00  0.00    +0.000 C 
ATOM      9  C8  UNL     1     -33.518  12.528 -33.414  0.00  0.00    +0.000 C 
ATOM     10  C9  UNL     1     -34.001  13.135 -32.126  0.00  0.00    +0.000 C 
ATOM     11  O2  UNL     1     -33.414  14.057 -31.571  0.00  0.00    +0.000 OA
ENDROOT
TORSDOF 0
ENDMDL
MODEL 2
REMARK VINA RESULT:    -4.176     11.447     13.272
REMARK INTER + INTRA:          -4.176
REMARK INTER:                  -4.176
REMARK INTRA:                   0.000
REMARK UNBOUND:                 0.000
REMARK  Name = /home/anacleto/Desktop/manuscript_Mpro/naturecomm/supplementary_file_S2/6-chemical-library/molecular_docking/3D_ligand_structure/171.pdb
REMARK  0 active torsions:
REMARK  status: ('A' for Active; 'I' for Inactive)
REMARK                            x       y       z     vdW  Elec       q    Type
REMARK                         _______ _______ _______ _____ _____    ______ ____
ROOT
ATOM      1  C1  UNL     1     -27.988   3.064 -38.233  0.00  0.00    +0.000 A 
ATOM      2  C2  UNL     1     -26.882   2.214 -38.241  0.00  0.00    +0.000 A 
ATOM      3  C3  UNL     1     -25.615   2.718 -38.541  0.00  0.00    +0.000 A 
ATOM      4  C4  UNL     1     -25.452   4.073 -38.846  0.00  0.00    +0.000 A 
ATOM      5  C5  UNL     1     -26.558   4.920 -38.860  0.00  0.00    +0.000 A 
ATOM      6  C6  UNL     1     -27.820   4.418 -38.536  0.00  0.00    +0.000 A 
ATOM      7  O1  UNL     1     -26.323   6.234 -39.171  0.00  0.00    +0.000 OA
ATOM      8  C7  UNL     1     -27.488   6.893 -39.677  0.00  0.00    +0.000 C 
ATOM      9  C8  UNL     1     -28.646   6.803 -38.705  0.00  0.00    +0.000 C 
ATOM     10  C9  UNL     1     -28.963   5.351 -38.480  0.00  0.00    +0.000 C 
ATOM     11  O2  UNL     1     -30.092   4.956 -38.208  0.00  0.00    +0.000 OA
ENDROOT
TORSDOF 0
ENDMDL
MODEL 3
REMARK VINA RESULT:    -4.176      1.961      4.163
REMARK INTER + INTRA:          -4.176
REMARK INTER:                  -4.176
REMARK INTRA:                   0.000
REMARK UNBOUND:                 0.000
REMARK  Name = /home/anacleto/Desktop/manuscript_Mpro/naturecomm/supplementary_file_S2/6-chemical-library/molecular_docking/3D_ligand_structure/171.pdb
REMARK  0 active torsions:
REMARK  status: ('A' for Active; 'I' for Inactive)
REMARK                            x       y       z     vdW  Elec       q    Type
REMARK                         _______ _______ _______ _____ _____    ______ ____
ROOT
ATOM      1  C1  UNL     1     -36.855  10.756 -31.740  0.00  0.00    +0.000 A 
ATOM      2  C2  UNL     1     -35.882  10.520 -32.711  0.00  0.00    +0.000 A 
ATOM      3  C3  UNL     1     -34.803  11.396 -32.848  0.00  0.00    +0.000 A 
ATOM      4  C4  UNL     1     -34.701  12.519 -32.021  0.00  0.00    +0.000 A 
ATOM      5  C5  UNL     1     -35.683  12.769 -31.064  0.00  0.00    +0.000 A 
ATOM      6  C6  UNL     1     -36.748  11.877 -30.914  0.00  0.00    +0.000 A 
ATOM      7  O1  UNL     1     -35.519  13.889 -30.292  0.00  0.00    +0.000 OA
ATOM      8  C7  UNL     1     -36.754  14.362 -29.745  0.00  0.00    +0.000 C 
ATOM      9  C8  UNL     1     -37.453  13.289 -28.937  0.00  0.00    +0.000 C 
ATOM     10  C9  UNL     1     -37.732  12.121 -29.841  0.00  0.00    +0.000 C 
ATOM     11  O2  UNL     1     -38.689  11.372 -29.675  0.00  0.00    +0.000 OA
ENDROOT
TORSDOF 0
ENDMDL
MODEL 4
REMARK VINA RESULT:    -4.147     14.558     16.627
REMARK INTER + INTRA:          -4.147
REMARK INTER:                  -4.147
REMARK INTRA:                   0.000
REMARK UNBOUND:                 0.000
REMARK  Name = /home/anacleto/Desktop/manuscript_Mpro/naturecomm/supplementary_file_S2/6-chemical-library/molecular_docking/3D_ligand_structure/171.pdb
REMARK  0 active torsions:
REMARK  status: ('A' for Active; 'I' for Inactive)
REMARK                            x       y       z     vdW  Elec       q    Type
REMARK                         _______ _______ _______ _____ _____    ______ ____
ROOT
ATOM      1  C1  UNL     1     -20.367   9.935 -37.872  0.00  0.00    +0.000 A 
ATOM      2  C2  UNL     1     -19.024  10.054 -38.233  0.00  0.00    +0.000 A 
ATOM      3  C3  UNL     1     -18.355   8.970 -38.803  0.00  0.00    +0.000 A 
ATOM      4  C4  UNL     1     -19.022   7.758 -39.003  0.00  0.00    +0.000 A 
ATOM      5  C5  UNL     1     -20.358   7.629 -38.624  0.00  0.00    +0.000 A 
ATOM      6  C6  UNL     1     -21.031   8.723 -38.077  0.00  0.00    +0.000 A 
ATOM      7  O1  UNL     1     -20.946   6.412 -38.847  0.00  0.00    +0.000 OA
ATOM      8  C7  UNL     1     -22.070   6.183 -37.992  0.00  0.00    +0.000 C 
ATOM      9  C8  UNL     1     -23.107   7.278 -38.128  0.00  0.00    +0.000 C 
ATOM     10  C9  UNL     1     -22.466   8.586 -37.756  0.00  0.00    +0.000 C 
ATOM     11  O2  UNL     1     -23.099   9.515 -37.266  0.00  0.00    +0.000 OA
ENDROOT
TORSDOF 0
ENDMDL
MODEL 5
REMARK VINA RESULT:    -4.061     15.694     17.502
REMARK INTER + INTRA:          -4.061
REMARK INTER:                  -4.061
REMARK INTRA:                   0.000
REMARK UNBOUND:                 0.000
REMARK  Name = /home/anacleto/Desktop/manuscript_Mpro/naturecomm/supplementary_file_S2/6-chemical-library/molecular_docking/3D_ligand_structure/171.pdb
REMARK  0 active torsions:
REMARK  status: ('A' for Active; 'I' for Inactive)
REMARK                            x       y       z     vdW  Elec       q    Type
REMARK                         _______ _______ _______ _____ _____    ______ ____
ROOT
ATOM      1  C1  UNL     1     -20.764   9.268 -37.523  0.00  0.00    +0.000 A 
ATOM      2  C2  UNL     1     -21.878   8.463 -37.280  0.00  0.00    +0.000 A 
ATOM      3  C3  UNL     1     -21.968   7.199 -37.865  0.00  0.00    +0.000 A 
ATOM      4  C4  UNL     1     -20.949   6.739 -38.704  0.00  0.00    +0.000 A 
ATOM      5  C5  UNL     1     -19.845   7.548 -38.966  0.00  0.00    +0.000 A 
ATOM      6  C6  UNL     1     -19.747   8.803 -38.360  0.00  0.00    +0.000 A 
ATOM      7  O1  UNL     1     -18.888   7.033 -39.800  0.00  0.00    +0.000 OA
ATOM      8  C7  UNL     1     -18.105   8.053 -40.429  0.00  0.00    +0.000 C 
ATOM      9  C8  UNL     1     -17.450   8.962 -39.409  0.00  0.00    +0.000 C 
ATOM     10  C9  UNL     1     -18.532   9.609 -38.589  0.00  0.00    +0.000 C 
ATOM     11  O2  UNL     1     -18.402  10.720 -38.087  0.00  0.00    +0.000 OA
ENDROOT
TORSDOF 0
ENDMDL
MODEL 6
REMARK VINA RESULT:    -4.011     13.249     14.561
REMARK INTER + INTRA:          -4.011
REMARK INTER:                  -4.011
REMARK INTRA:                   0.000
REMARK UNBOUND:                 0.000
REMARK  Name = /home/anacleto/Desktop/manuscript_Mpro/naturecomm/supplementary_file_S2/6-chemical-library/molecular_docking/3D_ligand_structure/171.pdb
REMARK  0 active torsions:
REMARK  status: ('A' for Active; 'I' for Inactive)
REMARK                            x       y       z     vdW  Elec       q    Type
REMARK                         _______ _______ _______ _____ _____    ______ ____
ROOT
ATOM      1  C1  UNL     1     -24.639   7.705 -38.509  0.00  0.00    +0.000 A 
ATOM      2  C2  UNL     1     -24.587   6.377 -38.933  0.00  0.00    +0.000 A 
ATOM      3  C3  UNL     1     -23.414   5.637 -38.774  0.00  0.00    +0.000 A 
ATOM      4  C4  UNL     1     -22.284   6.227 -38.201  0.00  0.00    +0.000 A 
ATOM      5  C5  UNL     1     -22.325   7.560 -37.795  0.00  0.00    +0.000 A 
ATOM      6  C6  UNL     1     -23.507   8.290 -37.934  0.00  0.00    +0.000 A 
ATOM      7  O1  UNL     1     -21.179   8.072 -37.246  0.00  0.00    +0.000 OA
ATOM      8  C7  UNL     1     -21.111   9.497 -37.352  0.00  0.00    +0.000 C 
ATOM      9  C8  UNL     1     -22.316  10.161 -36.718  0.00  0.00    +0.000 C 
ATOM     10  C9  UNL     1     -23.551   9.675 -37.425  0.00  0.00    +0.000 C 
ATOM     11  O2  UNL     1     -24.563  10.359 -37.530  0.00  0.00    +0.000 OA
ENDROOT
TORSDOF 0
ENDMDL
MODEL 7
REMARK VINA RESULT:    -3.975     11.346     13.057
REMARK INTER + INTRA:          -3.975
REMARK INTER:                  -3.975
REMARK INTRA:                   0.000
REMARK UNBOUND:                 0.000
REMARK  Name = /home/anacleto/Desktop/manuscript_Mpro/naturecomm/supplementary_file_S2/6-chemical-library/molecular_docking/3D_ligand_structure/171.pdb
REMARK  0 active torsions:
REMARK  status: ('A' for Active; 'I' for Inactive)
REMARK                            x       y       z     vdW  Elec       q    Type
REMARK                         _______ _______ _______ _____ _____    ______ ____
ROOT
ATOM      1  C1  UNL     1     -25.796   4.497 -38.919  0.00  0.00    +0.000 A 
ATOM      2  C2  UNL     1     -25.541   3.157 -38.627  0.00  0.00    +0.000 A 
ATOM      3  C3  UNL     1     -26.591   2.306 -38.276  0.00  0.00    +0.000 A 
ATOM      4  C4  UNL     1     -27.898   2.796 -38.205  0.00  0.00    +0.000 A 
ATOM      5  C5  UNL     1     -28.153   4.139 -38.475  0.00  0.00    +0.000 A 
ATOM      6  C6  UNL     1     -27.104   4.982 -38.848  0.00  0.00    +0.000 A 
ATOM      7  O1  UNL     1     -29.457   4.549 -38.381  0.00  0.00    +0.000 OA
ATOM      8  C7  UNL     1     -29.573   5.956 -38.143  0.00  0.00    +0.000 C 
ATOM      9  C8  UNL     1     -28.864   6.762 -39.212  0.00  0.00    +0.000 C 
ATOM     10  C9  UNL     1     -27.410   6.381 -39.206  0.00  0.00    +0.000 C 
ATOM     11  O2  UNL     1     -26.522   7.162 -39.533  0.00  0.00    +0.000 OA
ENDROOT
TORSDOF 0
ENDMDL
MODEL 8
REMARK VINA RESULT:    -3.956      1.283      4.130
REMARK INTER + INTRA:          -3.956
REMARK INTER:                  -3.956
REMARK INTRA:                   0.000
REMARK UNBOUND:                 0.000
REMARK  Name = /home/anacleto/Desktop/manuscript_Mpro/naturecomm/supplementary_file_S2/6-chemical-library/molecular_docking/3D_ligand_structure/171.pdb
REMARK  0 active torsions:
REMARK  status: ('A' for Active; 'I' for Inactive)
REMARK                            x       y       z     vdW  Elec       q    Type
REMARK                         _______ _______ _______ _____ _____    ______ ____
ROOT
ATOM      1  C1  UNL     1     -34.639  11.820 -33.124  0.00  0.00    +0.000 A 
ATOM      2  C2  UNL     1     -33.515  12.630 -33.295  0.00  0.00    +0.000 A 
ATOM      3  C3  UNL     1     -33.186  13.582 -32.328  0.00  0.00    +0.000 A 
ATOM      4  C4  UNL     1     -33.986  13.736 -31.192  0.00  0.00    +0.000 A 
ATOM      5  C5  UNL     1     -35.121  12.943 -31.029  0.00  0.00    +0.000 A 
ATOM      6  C6  UNL     1     -35.434  11.976 -31.986  0.00  0.00    +0.000 A 
ATOM      7  O1  UNL     1     -35.859  13.152 -29.893  0.00  0.00    +0.000 OA
ATOM      8  C7  UNL     1     -37.218  12.729 -30.039  0.00  0.00    +0.000 C 
ATOM      9  C8  UNL     1     -37.308  11.270 -30.440  0.00  0.00    +0.000 C 
ATOM     10  C9  UNL     1     -36.595  11.095 -31.752  0.00  0.00    +0.000 C 
ATOM     11  O2  UNL     1     -36.916  10.236 -32.566  0.00  0.00    +0.000 OA
ENDROOT
TORSDOF 0
ENDMDL
MODEL 9
REMARK VINA RESULT:    -3.950     13.174     14.555
REMARK INTER + INTRA:          -3.950
REMARK INTER:                  -3.950
REMARK INTRA:                   0.000
REMARK UNBOUND:                 0.000
REMARK  Name = /home/anacleto/Desktop/manuscript_Mpro/naturecomm/supplementary_file_S2/6-chemical-library/molecular_docking/3D_ligand_structure/171.pdb
REMARK  0 active torsions:
REMARK  status: ('A' for Active; 'I' for Inactive)
REMARK                            x       y       z     vdW  Elec       q    Type
REMARK                         _______ _______ _______ _____ _____    ______ ____
ROOT
ATOM      1  C1  UNL     1     -23.580   9.637 -37.426  0.00  0.00    +0.000 A 
ATOM      2  C2  UNL     1     -22.393  10.210 -36.966  0.00  0.00    +0.000 A 
ATOM      3  C3  UNL     1     -21.207   9.473 -36.988  0.00  0.00    +0.000 A 
ATOM      4  C4  UNL     1     -21.205   8.158 -37.461  0.00  0.00    +0.000 A 
ATOM      5  C5  UNL     1     -22.393   7.576 -37.902  0.00  0.00    +0.000 A 
ATOM      6  C6  UNL     1     -23.573   8.323 -37.900  0.00  0.00    +0.000 A 
ATOM      7  O1  UNL     1     -22.316   6.283 -38.348  0.00  0.00    +0.000 OA
ATOM      8  C7  UNL     1     -23.573   5.602 -38.271  0.00  0.00    +0.000 C 
ATOM      9  C8  UNL     1     -24.653   6.338 -39.038  0.00  0.00    +0.000 C 
ATOM     10  C9  UNL     1     -24.801   7.712 -38.445  0.00  0.00    +0.000 C 
ATOM     11  O2  UNL     1     -25.864   8.324 -38.458  0.00  0.00    +0.000 OA
ENDROOT
TORSDOF 0
ENDMDL
