MODEL 1
REMARK VINA RESULT:    -5.454      0.000      0.000
REMARK INTER + INTRA:          -6.787
REMARK INTER:                  -6.486
REMARK INTRA:                  -0.301
REMARK UNBOUND:                -0.377
REMARK  Name = /home/anacleto/Desktop/manuscript_Mpro/naturecomm/supplementary_file_S2/6-chemical-library/molecular_docking/3D_ligand_structure/585.pdb
REMARK  3 active torsions:
REMARK  status: ('A' for Active; 'I' for Inactive)
REMARK    1  A    between atoms: N3_4  and  C3_7
REMARK    2  A    between atoms: C3_7  and  C4_8
REMARK    3  A    between atoms: N4_10  and  C5_11
REMARK                            x       y       z     vdW  Elec       q    Type
REMARK                         _______ _______ _______ _____ _____    ______ ____
ROOT
ATOM      1  C4  UNL     1      14.997  14.576  -2.874  0.00  0.00    +0.000 C 
ATOM      2  O2  UNL     1      15.269  13.681  -2.077  0.00  0.00    +0.000 OA
ATOM      3  N4  UNL     1      14.700  14.343  -4.201  0.00  0.00    +0.000 N 
ATOM      4  H5  UNL     1      14.736  15.136  -4.842  0.00  0.00    +0.000 HD
ENDROOT
BRANCH   3   5
ATOM      5  C5  UNL     1      14.728  13.005  -4.789  0.00  0.00    +0.000 C 
ATOM      6  C6  UNL     1      13.287  12.563  -5.084  0.00  0.00    +0.000 C 
ATOM      7  C7  UNL     1      13.167  11.068  -5.363  0.00  0.00    +0.000 C 
ATOM      8  C8  UNL     1      13.384  10.661  -6.817  0.00  0.00    +0.000 C 
ATOM      9  C9  UNL     1      14.490  11.381  -7.581  0.00  0.00    +0.000 C 
ATOM     10  C10 UNL     1      15.745  11.682  -6.769  0.00  0.00    +0.000 C 
ATOM     11  C11 UNL     1      15.656  13.006  -6.011  0.00  0.00    +0.000 C 
ENDBRANCH   3   5
BRANCH   1  12
ATOM     12  C3  UNL     1      15.078  16.048  -2.477  0.00  0.00    +0.000 C 
BRANCH  12  16
ATOM     13  N1  UNL     1      12.076  17.872  -1.692  0.00  0.00    +0.000 N 
ATOM     14  N2  UNL     1      11.666  16.595  -1.405  0.00  0.00    +0.000 NA
ATOM     15  C1  UNL     1      12.710  15.873  -1.662  0.00  0.00    +0.000 A 
ATOM     16  N3  UNL     1      13.781  16.561  -2.093  0.00  0.00    +0.000 N 
ATOM     17  C2  UNL     1      13.383  17.864  -2.157  0.00  0.00    +0.000 A 
ATOM     18  O1  UNL     1      14.025  18.809  -2.586  0.00  0.00    +0.000 OA
ATOM     19  H1  UNL     1      11.454  18.667  -1.655  0.00  0.00    +0.000 HD
ENDBRANCH  12  16
ENDBRANCH   1  12
TORSDOF 3
ENDMDL
MODEL 2
REMARK VINA RESULT:    -5.359      3.657      6.442
REMARK INTER + INTRA:          -6.675
REMARK INTER:                  -6.148
REMARK INTRA:                  -0.527
REMARK UNBOUND:                -0.377
REMARK  Name = /home/anacleto/Desktop/manuscript_Mpro/naturecomm/supplementary_file_S2/6-chemical-library/molecular_docking/3D_ligand_structure/585.pdb
REMARK  3 active torsions:
REMARK  status: ('A' for Active; 'I' for Inactive)
REMARK    1  A    between atoms: N3_4  and  C3_7
REMARK    2  A    between atoms: C3_7  and  C4_8
REMARK    3  A    between atoms: N4_10  and  C5_11
REMARK                            x       y       z     vdW  Elec       q    Type
REMARK                         _______ _______ _______ _____ _____    ______ ____
ROOT
ATOM      1  C4  UNL     1      16.409  11.298  -3.462  0.00  0.00    +0.000 C 
ATOM      2  O2  UNL     1      15.988  10.557  -2.577  0.00  0.00    +0.000 OA
ATOM      3  N4  UNL     1      17.123  12.451  -3.207  0.00  0.00    +0.000 N 
ATOM      4  H5  UNL     1      17.214  13.130  -3.963  0.00  0.00    +0.000 HD
ENDROOT
BRANCH   3   5
ATOM      5  C5  UNL     1      17.406  12.916  -1.851  0.00  0.00    +0.000 C 
ATOM      6  C6  UNL     1      18.916  13.157  -1.713  0.00  0.00    +0.000 C 
ATOM      7  C7  UNL     1      19.368  13.300  -0.263  0.00  0.00    +0.000 C 
ATOM      8  C8  UNL     1      19.286  14.714   0.305  0.00  0.00    +0.000 C 
ATOM      9  C9  UNL     1      18.072  15.549  -0.086  0.00  0.00    +0.000 C 
ATOM     10  C10 UNL     1      16.759  14.779  -0.171  0.00  0.00    +0.000 C 
ATOM     11  C11 UNL     1      16.535  14.141  -1.542  0.00  0.00    +0.000 C 
ENDBRANCH   3   5
BRANCH   1  12
ATOM     12  C3  UNL     1      16.071  11.057  -4.931  0.00  0.00    +0.000 C 
BRANCH  12  16
ATOM     13  N1  UNL     1      12.802  12.446  -5.511  0.00  0.00    +0.000 N 
ATOM     14  N2  UNL     1      12.563  11.129  -5.813  0.00  0.00    +0.000 NA
ATOM     15  C1  UNL     1      13.709  10.559  -5.620  0.00  0.00    +0.000 A 
ATOM     16  N3  UNL     1      14.690  11.382  -5.212  0.00  0.00    +0.000 N 
ATOM     17  C2  UNL     1      14.134  12.626  -5.168  0.00  0.00    +0.000 A 
ATOM     18  O1  UNL     1      14.704  13.679  -4.932  0.00  0.00    +0.000 OA
ATOM     19  H1  UNL     1      12.106  13.169  -5.632  0.00  0.00    +0.000 HD
ENDBRANCH  12  16
ENDBRANCH   1  12
TORSDOF 3
ENDMDL
MODEL 3
REMARK VINA RESULT:    -5.222     16.756     17.624
REMARK INTER + INTRA:          -6.515
REMARK INTER:                  -6.186
REMARK INTRA:                  -0.329
REMARK UNBOUND:                -0.377
REMARK  Name = /home/anacleto/Desktop/manuscript_Mpro/naturecomm/supplementary_file_S2/6-chemical-library/molecular_docking/3D_ligand_structure/585.pdb
REMARK  3 active torsions:
REMARK  status: ('A' for Active; 'I' for Inactive)
REMARK    1  A    between atoms: N3_4  and  C3_7
REMARK    2  A    between atoms: C3_7  and  C4_8
REMARK    3  A    between atoms: N4_10  and  C5_11
REMARK                            x       y       z     vdW  Elec       q    Type
REMARK                         _______ _______ _______ _____ _____    ______ ____
ROOT
ATOM      1  C4  UNL     1      18.529   4.149   9.098  0.00  0.00    +0.000 C 
ATOM      2  O2  UNL     1      19.269   3.253   9.497  0.00  0.00    +0.000 OA
ATOM      3  N4  UNL     1      17.182   3.969   8.860  0.00  0.00    +0.000 N 
ATOM      4  H5  UNL     1      16.701   4.672   8.300  0.00  0.00    +0.000 HD
ENDROOT
BRANCH   3   5
ATOM      5  C5  UNL     1      16.522   2.675   9.023  0.00  0.00    +0.000 C 
ATOM      6  C6  UNL     1      15.378   2.826  10.037  0.00  0.00    +0.000 C 
ATOM      7  C7  UNL     1      14.854   1.487  10.548  0.00  0.00    +0.000 C 
ATOM      8  C8  UNL     1      13.758   0.853   9.696  0.00  0.00    +0.000 C 
ATOM      9  C9  UNL     1      13.906   0.961   8.183  0.00  0.00    +0.000 C 
ATOM     10  C10 UNL     1      15.332   0.822   7.662  0.00  0.00    +0.000 C 
ATOM     11  C11 UNL     1      16.090   2.149   7.648  0.00  0.00    +0.000 C 
ENDBRANCH   3   5
BRANCH   1  12
ATOM     12  C3  UNL     1      19.076   5.523   8.719  0.00  0.00    +0.000 C 
BRANCH  12  16
ATOM     13  N1  UNL     1      20.609   7.565  11.255  0.00  0.00    +0.000 N 
ATOM     14  N2  UNL     1      19.553   7.051  11.964  0.00  0.00    +0.000 NA
ATOM     15  C1  UNL     1      18.950   6.292  11.106  0.00  0.00    +0.000 A 
ATOM     16  N3  UNL     1      19.516   6.254   9.887  0.00  0.00    +0.000 N 
ATOM     17  C2  UNL     1      20.580   7.105   9.947  0.00  0.00    +0.000 A 
ATOM     18  O1  UNL     1      21.312   7.433   9.027  0.00  0.00    +0.000 OA
ATOM     19  H1  UNL     1      21.239   8.257  11.638  0.00  0.00    +0.000 HD
ENDBRANCH  12  16
ENDBRANCH   1  12
TORSDOF 3
ENDMDL
MODEL 4
REMARK VINA RESULT:    -5.219     16.700     18.207
REMARK INTER + INTRA:          -6.511
REMARK INTER:                  -6.156
REMARK INTRA:                  -0.356
REMARK UNBOUND:                -0.377
REMARK  Name = /home/anacleto/Desktop/manuscript_Mpro/naturecomm/supplementary_file_S2/6-chemical-library/molecular_docking/3D_ligand_structure/585.pdb
REMARK  3 active torsions:
REMARK  status: ('A' for Active; 'I' for Inactive)
REMARK    1  A    between atoms: N3_4  and  C3_7
REMARK    2  A    between atoms: C3_7  and  C4_8
REMARK    3  A    between atoms: N4_10  and  C5_11
REMARK                            x       y       z     vdW  Elec       q    Type
REMARK                         _______ _______ _______ _____ _____    ______ ____
ROOT
ATOM      1  C4  UNL     1      16.956   3.574   8.760  0.00  0.00    +0.000 C 
ATOM      2  O2  UNL     1      16.717   3.430   9.956  0.00  0.00    +0.000 OA
ATOM      3  N4  UNL     1      17.925   4.430   8.279  0.00  0.00    +0.000 N 
ATOM      4  H5  UNL     1      17.891   4.680   7.291  0.00  0.00    +0.000 HD
ENDROOT
BRANCH   3   5
ATOM      5  C5  UNL     1      18.729   5.279   9.157  0.00  0.00    +0.000 C 
ATOM      6  C6  UNL     1      20.035   4.546   9.497  0.00  0.00    +0.000 C 
ATOM      7  C7  UNL     1      20.781   5.170  10.671  0.00  0.00    +0.000 C 
ATOM      8  C8  UNL     1      21.738   6.301  10.304  0.00  0.00    +0.000 C 
ATOM      9  C9  UNL     1      21.275   7.279   9.230  0.00  0.00    +0.000 C 
ATOM     10  C10 UNL     1      19.794   7.636   9.277  0.00  0.00    +0.000 C 
ATOM     11  C11 UNL     1      18.922   6.651   8.499  0.00  0.00    +0.000 C 
ENDBRANCH   3   5
BRANCH   1  12
ATOM     12  C3  UNL     1      16.107   2.891   7.690  0.00  0.00    +0.000 C 
BRANCH  12  16
ATOM     13  N1  UNL     1      14.977  -0.424   8.519  0.00  0.00    +0.000 N 
ATOM     14  N2  UNL     1      16.312  -0.666   8.319  0.00  0.00    +0.000 NA
ATOM     15  C1  UNL     1      16.792   0.498   8.018  0.00  0.00    +0.000 A 
ATOM     16  N3  UNL     1      15.891   1.496   8.003  0.00  0.00    +0.000 N 
ATOM     17  C2  UNL     1      14.692   0.914   8.292  0.00  0.00    +0.000 A 
ATOM     18  O1  UNL     1      13.595   1.451   8.292  0.00  0.00    +0.000 OA
ATOM     19  H1  UNL     1      14.310  -1.160   8.706  0.00  0.00    +0.000 HD
ENDBRANCH  12  16
ENDBRANCH   1  12
TORSDOF 3
ENDMDL
MODEL 5
REMARK VINA RESULT:    -5.214     16.761     18.086
REMARK INTER + INTRA:          -6.506
REMARK INTER:                  -6.300
REMARK INTRA:                  -0.206
REMARK UNBOUND:                -0.377
REMARK  Name = /home/anacleto/Desktop/manuscript_Mpro/naturecomm/supplementary_file_S2/6-chemical-library/molecular_docking/3D_ligand_structure/585.pdb
REMARK  3 active torsions:
REMARK  status: ('A' for Active; 'I' for Inactive)
REMARK    1  A    between atoms: N3_4  and  C3_7
REMARK    2  A    between atoms: C3_7  and  C4_8
REMARK    3  A    between atoms: N4_10  and  C5_11
REMARK                            x       y       z     vdW  Elec       q    Type
REMARK                         _______ _______ _______ _____ _____    ______ ____
ROOT
ATOM      1  C4  UNL     1      17.035   2.986   9.044  0.00  0.00    +0.000 C 
ATOM      2  O2  UNL     1      16.642   3.289   7.920  0.00  0.00    +0.000 OA
ATOM      3  N4  UNL     1      18.140   3.560   9.640  0.00  0.00    +0.000 N 
ATOM      4  H5  UNL     1      18.544   3.086  10.447  0.00  0.00    +0.000 HD
ENDROOT
BRANCH   3   5
ATOM      5  C5  UNL     1      18.970   4.554   8.962  0.00  0.00    +0.000 C 
ATOM      6  C6  UNL     1      18.657   5.941   9.542  0.00  0.00    +0.000 C 
ATOM      7  C7  UNL     1      19.192   7.082   8.683  0.00  0.00    +0.000 C 
ATOM      8  C8  UNL     1      20.630   7.496   8.978  0.00  0.00    +0.000 C 
ATOM      9  C9  UNL     1      21.626   6.380   9.275  0.00  0.00    +0.000 C 
ATOM     10  C10 UNL     1      21.445   5.115   8.445  0.00  0.00    +0.000 C 
ATOM     11  C11 UNL     1      20.444   4.139   9.063  0.00  0.00    +0.000 C 
ENDBRANCH   3   5
BRANCH   1  12
ATOM     12  C3  UNL     1      16.389   1.852   9.835  0.00  0.00    +0.000 C 
BRANCH  12  16
ATOM     13  N1  UNL     1      13.361   0.802   8.198  0.00  0.00    +0.000 N 
ATOM     14  N2  UNL     1      12.836   1.529   9.236  0.00  0.00    +0.000 NA
ATOM     15  C1  UNL     1      13.881   1.949   9.875  0.00  0.00    +0.000 A 
ATOM     16  N3  UNL     1      15.057   1.566   9.350  0.00  0.00    +0.000 N 
ATOM     17  C2  UNL     1      14.746   0.786   8.275  0.00  0.00    +0.000 A 
ATOM     18  O1  UNL     1      15.522   0.162   7.570  0.00  0.00    +0.000 OA
ATOM     19  H1  UNL     1      12.786   0.283   7.549  0.00  0.00    +0.000 HD
ENDBRANCH  12  16
ENDBRANCH   1  12
TORSDOF 3
ENDMDL
MODEL 6
REMARK VINA RESULT:    -5.084      3.004      6.709
REMARK INTER + INTRA:          -6.353
REMARK INTER:                  -6.026
REMARK INTRA:                  -0.327
REMARK UNBOUND:                -0.377
REMARK  Name = /home/anacleto/Desktop/manuscript_Mpro/naturecomm/supplementary_file_S2/6-chemical-library/molecular_docking/3D_ligand_structure/585.pdb
REMARK  3 active torsions:
REMARK  status: ('A' for Active; 'I' for Inactive)
REMARK    1  A    between atoms: N3_4  and  C3_7
REMARK    2  A    between atoms: C3_7  and  C4_8
REMARK    3  A    between atoms: N4_10  and  C5_11
REMARK                            x       y       z     vdW  Elec       q    Type
REMARK                         _______ _______ _______ _____ _____    ______ ____
ROOT
ATOM      1  C4  UNL     1      15.368  14.137  -3.614  0.00  0.00    +0.000 C 
ATOM      2  O2  UNL     1      14.247  14.421  -3.196  0.00  0.00    +0.000 OA
ATOM      3  N4  UNL     1      16.530  14.637  -3.063  0.00  0.00    +0.000 N 
ATOM      4  H5  UNL     1      17.386  14.561  -3.611  0.00  0.00    +0.000 HD
ENDROOT
BRANCH   3   5
ATOM      5  C5  UNL     1      16.526  15.589  -1.953  0.00  0.00    +0.000 C 
ATOM      6  C6  UNL     1      16.791  14.829  -0.646  0.00  0.00    +0.000 C 
ATOM      7  C7  UNL     1      16.463  15.648   0.598  0.00  0.00    +0.000 C 
ATOM      8  C8  UNL     1      17.596  16.533   1.109  0.00  0.00    +0.000 C 
ATOM      9  C9  UNL     1      18.444  17.247   0.063  0.00  0.00    +0.000 C 
ATOM     10  C10 UNL     1      17.675  17.765  -1.147  0.00  0.00    +0.000 C 
ATOM     11  C11 UNL     1      17.525  16.716  -2.248  0.00  0.00    +0.000 C 
ENDBRANCH   3   5
BRANCH   1  12
ATOM     12  C3  UNL     1      15.559  13.286  -4.866  0.00  0.00    +0.000 C 
BRANCH  12  16
ATOM     13  N1  UNL     1      13.540  10.323  -4.557  0.00  0.00    +0.000 N 
ATOM     14  N2  UNL     1      12.795  11.030  -5.467  0.00  0.00    +0.000 NA
ATOM     15  C1  UNL     1      13.472  12.121  -5.633  0.00  0.00    +0.000 A 
ATOM     16  N3  UNL     1      14.605  12.201  -4.915  0.00  0.00    +0.000 N 
ATOM     17  C2  UNL     1      14.655  11.055  -4.176  0.00  0.00    +0.000 A 
ATOM     18  O1  UNL     1      15.476  10.767  -3.320  0.00  0.00    +0.000 OA
ATOM     19  H1  UNL     1      13.234   9.442  -4.167  0.00  0.00    +0.000 HD
ENDBRANCH  12  16
ENDBRANCH   1  12
TORSDOF 3
ENDMDL
MODEL 7
REMARK VINA RESULT:    -4.886      3.514      6.874
REMARK INTER + INTRA:          -6.120
REMARK INTER:                  -5.603
REMARK INTRA:                  -0.517
REMARK UNBOUND:                -0.377
REMARK  Name = /home/anacleto/Desktop/manuscript_Mpro/naturecomm/supplementary_file_S2/6-chemical-library/molecular_docking/3D_ligand_structure/585.pdb
REMARK  3 active torsions:
REMARK  status: ('A' for Active; 'I' for Inactive)
REMARK    1  A    between atoms: N3_4  and  C3_7
REMARK    2  A    between atoms: C3_7  and  C4_8
REMARK    3  A    between atoms: N4_10  and  C5_11
REMARK                            x       y       z     vdW  Elec       q    Type
REMARK                         _______ _______ _______ _____ _____    ______ ____
ROOT
ATOM      1  C4  UNL     1      16.005  14.693  -3.258  0.00  0.00    +0.000 C 
ATOM      2  O2  UNL     1      16.730  14.957  -4.214  0.00  0.00    +0.000 OA
ATOM      3  N4  UNL     1      16.432  14.743  -1.947  0.00  0.00    +0.000 N 
ATOM      4  H5  UNL     1      15.862  14.275  -1.244  0.00  0.00    +0.000 HD
ENDROOT
BRANCH   3   5
ATOM      5  C5  UNL     1      17.809  15.075  -1.582  0.00  0.00    +0.000 C 
ATOM      6  C6  UNL     1      17.875  16.560  -1.196  0.00  0.00    +0.000 C 
ATOM      7  C7  UNL     1      19.301  17.099  -1.141  0.00  0.00    +0.000 C 
ATOM      8  C8  UNL     1      20.011  16.917   0.197  0.00  0.00    +0.000 C 
ATOM      9  C9  UNL     1      19.782  15.601   0.931  0.00  0.00    +0.000 C 
ATOM     10  C10 UNL     1      19.702  14.369   0.037  0.00  0.00    +0.000 C 
ATOM     11  C11 UNL     1      18.291  14.111  -0.490  0.00  0.00    +0.000 C 
ENDBRANCH   3   5
BRANCH   1  12
ATOM     12  C3  UNL     1      14.584  14.171  -3.456  0.00  0.00    +0.000 C 
BRANCH  12  16
ATOM     13  N1  UNL     1      14.804  10.602  -3.866  0.00  0.00    +0.000 N 
ATOM     14  N2  UNL     1      14.264  10.952  -5.077  0.00  0.00    +0.000 NA
ATOM     15  C1  UNL     1      14.159  12.241  -5.004  0.00  0.00    +0.000 A 
ATOM     16  N3  UNL     1      14.586  12.779  -3.849  0.00  0.00    +0.000 N 
ATOM     17  C2  UNL     1      14.979  11.728  -3.074  0.00  0.00    +0.000 A 
ATOM     18  O1  UNL     1      15.349  11.769  -1.912  0.00  0.00    +0.000 OA
ATOM     19  H1  UNL     1      14.946   9.641  -3.588  0.00  0.00    +0.000 HD
ENDBRANCH  12  16
ENDBRANCH   1  12
TORSDOF 3
ENDMDL
MODEL 8
REMARK VINA RESULT:    -4.758      4.727      7.591
REMARK INTER + INTRA:          -5.970
REMARK INTER:                  -5.439
REMARK INTRA:                  -0.531
REMARK UNBOUND:                -0.377
REMARK  Name = /home/anacleto/Desktop/manuscript_Mpro/naturecomm/supplementary_file_S2/6-chemical-library/molecular_docking/3D_ligand_structure/585.pdb
REMARK  3 active torsions:
REMARK  status: ('A' for Active; 'I' for Inactive)
REMARK    1  A    between atoms: N3_4  and  C3_7
REMARK    2  A    between atoms: C3_7  and  C4_8
REMARK    3  A    between atoms: N4_10  and  C5_11
REMARK                            x       y       z     vdW  Elec       q    Type
REMARK                         _______ _______ _______ _____ _____    ______ ____
ROOT
ATOM      1  C4  UNL     1      16.757  12.830  -1.289  0.00  0.00    +0.000 C 
ATOM      2  O2  UNL     1      16.132  13.886  -1.351  0.00  0.00    +0.000 OA
ATOM      3  N4  UNL     1      18.123  12.769  -1.106  0.00  0.00    +0.000 N 
ATOM      4  H5  UNL     1      18.592  11.889  -1.317  0.00  0.00    +0.000 HD
ENDROOT
BRANCH   3   5
ATOM      5  C5  UNL     1      18.958  13.967  -1.013  0.00  0.00    +0.000 C 
ATOM      6  C6  UNL     1      19.678  13.965   0.343  0.00  0.00    +0.000 C 
ATOM      7  C7  UNL     1      20.288  15.318   0.696  0.00  0.00    +0.000 C 
ATOM      8  C8  UNL     1      21.700  15.551   0.164  0.00  0.00    +0.000 C 
ATOM      9  C9  UNL     1      22.003  15.044  -1.241  0.00  0.00    +0.000 C 
ATOM     10  C10 UNL     1      20.868  15.206  -2.246  0.00  0.00    +0.000 C 
ATOM     11  C11 UNL     1      19.890  14.032  -2.229  0.00  0.00    +0.000 C 
ENDBRANCH   3   5
BRANCH   1  12
ATOM     12  C3  UNL     1      16.075  11.486  -1.527  0.00  0.00    +0.000 C 
BRANCH  12  16
ATOM     13  N1  UNL     1      16.554  10.483  -4.950  0.00  0.00    +0.000 N 
ATOM     14  N2  UNL     1      15.242  10.881  -4.995  0.00  0.00    +0.000 NA
ATOM     15  C1  UNL     1      14.997  11.265  -3.783  0.00  0.00    +0.000 A 
ATOM     16  N3  UNL     1      16.035  11.160  -2.935  0.00  0.00    +0.000 N 
ATOM     17  C2  UNL     1      17.053  10.618  -3.663  0.00  0.00    +0.000 A 
ATOM     18  O1  UNL     1      18.149  10.274  -3.251  0.00  0.00    +0.000 OA
ATOM     19  H1  UNL     1      17.025  10.063  -5.739  0.00  0.00    +0.000 HD
ENDBRANCH  12  16
ENDBRANCH   1  12
TORSDOF 3
ENDMDL
MODEL 9
REMARK VINA RESULT:    -4.569      3.449      4.390
REMARK INTER + INTRA:          -5.747
REMARK INTER:                  -5.370
REMARK INTRA:                  -0.377
REMARK UNBOUND:                -0.377
REMARK  Name = /home/anacleto/Desktop/manuscript_Mpro/naturecomm/supplementary_file_S2/6-chemical-library/molecular_docking/3D_ligand_structure/585.pdb
REMARK  3 active torsions:
REMARK  status: ('A' for Active; 'I' for Inactive)
REMARK    1  A    between atoms: N3_4  and  C3_7
REMARK    2  A    between atoms: C3_7  and  C4_8
REMARK    3  A    between atoms: N4_10  and  C5_11
REMARK                            x       y       z     vdW  Elec       q    Type
REMARK                         _______ _______ _______ _____ _____    ______ ____
ROOT
ATOM      1  C4  UNL     1      16.734  14.176  -0.802  0.00  0.00    +0.000 C 
ATOM      2  O2  UNL     1      17.609  13.313  -0.819  0.00  0.00    +0.000 OA
ATOM      3  N4  UNL     1      15.772  14.299  -1.783  0.00  0.00    +0.000 N 
ATOM      4  H5  UNL     1      15.251  15.174  -1.831  0.00  0.00    +0.000 HD
ENDROOT
BRANCH   3   5
ATOM      5  C5  UNL     1      15.737  13.432  -2.961  0.00  0.00    +0.000 C 
ATOM      6  C6  UNL     1      14.976  12.146  -2.608  0.00  0.00    +0.000 C 
ATOM      7  C7  UNL     1      15.180  11.033  -3.630  0.00  0.00    +0.000 C 
ATOM      8  C8  UNL     1      14.211  11.052  -4.810  0.00  0.00    +0.000 C 
ATOM      9  C9  UNL     1      13.853  12.415  -5.391  0.00  0.00    +0.000 C 
ATOM     10  C10 UNL     1      15.001  13.417  -5.443  0.00  0.00    +0.000 C 
ATOM     11  C11 UNL     1      15.154  14.211  -4.147  0.00  0.00    +0.000 C 
ENDBRANCH   3   5
BRANCH   1  12
ATOM     12  C3  UNL     1      16.713  15.268   0.265  0.00  0.00    +0.000 C 
BRANCH  12  16
ATOM     13  N1  UNL     1      19.540  17.475  -0.034  0.00  0.00    +0.000 N 
ATOM     14  N2  UNL     1      18.663  18.085  -0.894  0.00  0.00    +0.000 NA
ATOM     15  C1  UNL     1      17.607  17.340  -0.834  0.00  0.00    +0.000 A 
ATOM     16  N3  UNL     1      17.703  16.286  -0.005  0.00  0.00    +0.000 N 
ATOM     17  C2  UNL     1      18.968  16.331   0.503  0.00  0.00    +0.000 A 
ATOM     18  O1  UNL     1      19.498  15.505   1.229  0.00  0.00    +0.000 OA
ATOM     19  H1  UNL     1      20.493  17.787   0.088  0.00  0.00    +0.000 HD
ENDBRANCH  12  16
ENDBRANCH   1  12
TORSDOF 3
ENDMDL
