MODEL 1
REMARK VINA RESULT:    -3.404      0.000      0.000
REMARK INTER + INTRA:          -3.955
REMARK INTER:                  -3.777
REMARK INTRA:                  -0.178
REMARK UNBOUND:                -0.153
REMARK  Name = /home/anacleto/Desktop/manuscript_Mpro/naturecomm/supplementary_file_S2/6-chemical-library/molecular_docking/3D_ligand_structure/1292.pdb
REMARK  2 active torsions:
REMARK  status: ('A' for Active; 'I' for Inactive)
REMARK    1  A    between atoms: N3_5  and  C3_6
REMARK    2  A    between atoms: C3_6  and  C4_7
REMARK                            x       y       z     vdW  Elec       q    Type
REMARK                         _______ _______ _______ _____ _____    ______ ____
ROOT
ATOM      1  C3  UNL     1     -28.640   3.963 -39.858  0.00  0.00    +0.000 C 
ENDROOT
BRANCH   1   6
ATOM      2  N1  UNL     1     -30.299   4.955 -38.390  0.00  0.00    +0.000 NA
ATOM      3  N2  UNL     1     -30.506   6.104 -37.760  0.00  0.00    +0.000 NA
ATOM      4  C1  UNL     1     -29.481   6.950 -38.073  0.00  0.00    +0.000 A 
ATOM      5  C2  UNL     1     -28.606   6.315 -38.920  0.00  0.00    +0.000 A 
ATOM      6  N3  UNL     1     -29.168   5.084 -39.108  0.00  0.00    +0.000 N 
ENDBRANCH   1   6
BRANCH   1   7
ATOM      7  C4  UNL     1     -27.565   3.287 -39.097  0.00  0.00    +0.000 A 
ATOM      8  N4  UNL     1     -26.228   3.494 -39.358  0.00  0.00    +0.000 NA
ATOM      9  C5  UNL     1     -25.659   2.735 -38.456  0.00  0.00    +0.000 A 
ATOM     10  O1  UNL     1     -26.533   2.091 -37.643  0.00  0.00    +0.000 OA
ATOM     11  N5  UNL     1     -27.811   2.470 -38.062  0.00  0.00    +0.000 NA
ENDBRANCH   1   7
TORSDOF 2
ENDMDL
MODEL 2
REMARK VINA RESULT:    -3.386     15.616     16.728
REMARK INTER + INTRA:          -3.935
REMARK INTER:                  -3.772
REMARK INTRA:                  -0.163
REMARK UNBOUND:                -0.153
REMARK  Name = /home/anacleto/Desktop/manuscript_Mpro/naturecomm/supplementary_file_S2/6-chemical-library/molecular_docking/3D_ligand_structure/1292.pdb
REMARK  2 active torsions:
REMARK  status: ('A' for Active; 'I' for Inactive)
REMARK    1  A    between atoms: N3_5  and  C3_6
REMARK    2  A    between atoms: C3_6  and  C4_7
REMARK                            x       y       z     vdW  Elec       q    Type
REMARK                         _______ _______ _______ _____ _____    ______ ____
ROOT
ATOM      1  C3  UNL     1     -22.597  -5.281 -25.999  0.00  0.00    +0.000 C 
ENDROOT
BRANCH   1   6
ATOM      2  N1  UNL     1     -23.811  -3.501 -24.881  0.00  0.00    +0.000 NA
ATOM      3  N2  UNL     1     -23.852  -2.926 -23.686  0.00  0.00    +0.000 NA
ATOM      4  C1  UNL     1     -22.910  -3.521 -22.897  0.00  0.00    +0.000 A 
ATOM      5  C2  UNL     1     -22.261  -4.496 -23.614  0.00  0.00    +0.000 A 
ATOM      6  N3  UNL     1     -22.839  -4.432 -24.850  0.00  0.00    +0.000 N 
ENDBRANCH   1   6
BRANCH   1   7
ATOM      7  C4  UNL     1     -21.599  -4.664 -26.901  0.00  0.00    +0.000 A 
ATOM      8  N4  UNL     1     -20.242  -4.846 -26.744  0.00  0.00    +0.000 NA
ATOM      9  C5  UNL     1     -19.761  -4.158 -27.748  0.00  0.00    +0.000 A 
ATOM     10  O1  UNL     1     -20.709  -3.581 -28.528  0.00  0.00    +0.000 OA
ATOM     11  N5  UNL     1     -21.942  -3.929 -27.970  0.00  0.00    +0.000 NA
ENDBRANCH   1   7
TORSDOF 2
ENDMDL
MODEL 3
REMARK VINA RESULT:    -3.355     15.006     16.134
REMARK INTER + INTRA:          -3.901
REMARK INTER:                  -3.720
REMARK INTRA:                  -0.181
REMARK UNBOUND:                -0.153
REMARK  Name = /home/anacleto/Desktop/manuscript_Mpro/naturecomm/supplementary_file_S2/6-chemical-library/molecular_docking/3D_ligand_structure/1292.pdb
REMARK  2 active torsions:
REMARK  status: ('A' for Active; 'I' for Inactive)
REMARK    1  A    between atoms: N3_5  and  C3_6
REMARK    2  A    between atoms: C3_6  and  C4_7
REMARK                            x       y       z     vdW  Elec       q    Type
REMARK                         _______ _______ _______ _____ _____    ______ ____
ROOT
ATOM      1  C3  UNL     1     -24.378  -4.064 -26.590  0.00  0.00    +0.000 C 
ENDROOT
BRANCH   1   6
ATOM      2  N1  UNL     1     -26.673  -3.559 -27.198  0.00  0.00    +0.000 NA
ATOM      3  N2  UNL     1     -27.881  -4.085 -27.037  0.00  0.00    +0.000 NA
ATOM      4  C1  UNL     1     -27.753  -5.221 -26.291  0.00  0.00    +0.000 A 
ATOM      5  C2  UNL     1     -26.430  -5.416 -25.976  0.00  0.00    +0.000 A 
ATOM      6  N3  UNL     1     -25.798  -4.345 -26.541  0.00  0.00    +0.000 N 
ENDBRANCH   1   6
BRANCH   1   7
ATOM      7  C4  UNL     1     -23.824  -3.946 -25.222  0.00  0.00    +0.000 A 
ATOM      8  N4  UNL     1     -22.877  -4.817 -24.727  0.00  0.00    +0.000 NA
ATOM      9  C5  UNL     1     -22.670  -4.334 -23.528  0.00  0.00    +0.000 A 
ATOM     10  O1  UNL     1     -23.395  -3.223 -23.246  0.00  0.00    +0.000 OA
ATOM     11  N5  UNL     1     -24.159  -2.953 -24.385  0.00  0.00    +0.000 NA
ENDBRANCH   1   7
TORSDOF 2
ENDMDL
MODEL 4
REMARK VINA RESULT:    -3.352     14.769     16.419
REMARK INTER + INTRA:          -3.897
REMARK INTER:                  -3.691
REMARK INTRA:                  -0.206
REMARK UNBOUND:                -0.153
REMARK  Name = /home/anacleto/Desktop/manuscript_Mpro/naturecomm/supplementary_file_S2/6-chemical-library/molecular_docking/3D_ligand_structure/1292.pdb
REMARK  2 active torsions:
REMARK  status: ('A' for Active; 'I' for Inactive)
REMARK    1  A    between atoms: N3_5  and  C3_6
REMARK    2  A    between atoms: C3_6  and  C4_7
REMARK                            x       y       z     vdW  Elec       q    Type
REMARK                         _______ _______ _______ _____ _____    ______ ____
ROOT
ATOM      1  C3  UNL     1     -24.237  -3.997 -26.601  0.00  0.00    +0.000 C 
ENDROOT
BRANCH   1   6
ATOM      2  N1  UNL     1     -24.158  -2.932 -24.421  0.00  0.00    +0.000 NA
ATOM      3  N2  UNL     1     -23.535  -3.092 -23.260  0.00  0.00    +0.000 NA
ATOM      4  C1  UNL     1     -22.689  -4.156 -23.376  0.00  0.00    +0.000 A 
ATOM      5  C2  UNL     1     -22.783  -4.681 -24.642  0.00  0.00    +0.000 A 
ATOM      6  N3  UNL     1     -23.692  -3.873 -25.264  0.00  0.00    +0.000 N 
ENDBRANCH   1   6
BRANCH   1   7
ATOM      7  C4  UNL     1     -25.673  -4.354 -26.546  0.00  0.00    +0.000 A 
ATOM      8  N4  UNL     1     -26.131  -5.494 -25.923  0.00  0.00    +0.000 NA
ATOM      9  C5  UNL     1     -27.425  -5.393 -26.096  0.00  0.00    +0.000 A 
ATOM     10  O1  UNL     1     -27.808  -4.273 -26.758  0.00  0.00    +0.000 OA
ATOM     11  N5  UNL     1     -26.636  -3.569 -27.049  0.00  0.00    +0.000 NA
ENDBRANCH   1   7
TORSDOF 2
ENDMDL
MODEL 5
REMARK VINA RESULT:    -3.337     26.074     26.785
REMARK INTER + INTRA:          -3.881
REMARK INTER:                  -3.730
REMARK INTRA:                  -0.151
REMARK UNBOUND:                -0.153
REMARK  Name = /home/anacleto/Desktop/manuscript_Mpro/naturecomm/supplementary_file_S2/6-chemical-library/molecular_docking/3D_ligand_structure/1292.pdb
REMARK  2 active torsions:
REMARK  status: ('A' for Active; 'I' for Inactive)
REMARK    1  A    between atoms: N3_5  and  C3_6
REMARK    2  A    between atoms: C3_6  and  C4_7
REMARK                            x       y       z     vdW  Elec       q    Type
REMARK                         _______ _______ _______ _____ _____    ______ ____
ROOT
ATOM      1  C3  UNL     1     -37.677   7.730 -13.412  0.00  0.00    +0.000 C 
ENDROOT
BRANCH   1   6
ATOM      2  N1  UNL     1     -37.220   5.695 -14.654  0.00  0.00    +0.000 NA
ATOM      3  N2  UNL     1     -37.572   4.417 -14.629  0.00  0.00    +0.000 NA
ATOM      4  C1  UNL     1     -38.467   4.244 -13.612  0.00  0.00    +0.000 A 
ATOM      5  C2  UNL     1     -38.681   5.445 -12.981  0.00  0.00    +0.000 A 
ATOM      6  N3  UNL     1     -37.902   6.324 -13.678  0.00  0.00    +0.000 N 
ENDBRANCH   1   6
BRANCH   1   7
ATOM      7  C4  UNL     1     -38.394   8.568 -14.401  0.00  0.00    +0.000 A 
ATOM      8  N4  UNL     1     -39.694   8.985 -14.215  0.00  0.00    +0.000 NA
ATOM      9  C5  UNL     1     -39.903   9.698 -15.294  0.00  0.00    +0.000 A 
ATOM     10  O1  UNL     1     -38.831   9.774 -16.122  0.00  0.00    +0.000 OA
ATOM     11  N5  UNL     1     -37.815   9.028 -15.519  0.00  0.00    +0.000 NA
ENDBRANCH   1   7
TORSDOF 2
ENDMDL
MODEL 6
REMARK VINA RESULT:    -3.328     14.360     16.022
REMARK INTER + INTRA:          -3.871
REMARK INTER:                  -3.676
REMARK INTRA:                  -0.195
REMARK UNBOUND:                -0.153
REMARK  Name = /home/anacleto/Desktop/manuscript_Mpro/naturecomm/supplementary_file_S2/6-chemical-library/molecular_docking/3D_ligand_structure/1292.pdb
REMARK  2 active torsions:
REMARK  status: ('A' for Active; 'I' for Inactive)
REMARK    1  A    between atoms: N3_5  and  C3_6
REMARK    2  A    between atoms: C3_6  and  C4_7
REMARK                            x       y       z     vdW  Elec       q    Type
REMARK                         _______ _______ _______ _____ _____    ______ ____
ROOT
ATOM      1  C3  UNL     1     -24.367  -4.988 -25.778  0.00  0.00    +0.000 C 
ENDROOT
BRANCH   1   6
ATOM      2  N1  UNL     1     -24.353  -2.997 -24.389  0.00  0.00    +0.000 NA
ATOM      3  N2  UNL     1     -23.725  -2.543 -23.312  0.00  0.00    +0.000 NA
ATOM      4  C1  UNL     1     -22.822  -3.488 -22.918  0.00  0.00    +0.000 A 
ATOM      5  C2  UNL     1     -22.884  -4.565 -23.768  0.00  0.00    +0.000 A 
ATOM      6  N3  UNL     1     -23.834  -4.205 -24.682  0.00  0.00    +0.000 N 
ENDBRANCH   1   6
BRANCH   1   7
ATOM      7  C4  UNL     1     -24.205  -4.267 -27.060  0.00  0.00    +0.000 A 
ATOM      8  N4  UNL     1     -22.971  -3.927 -27.570  0.00  0.00    +0.000 NA
ATOM      9  C5  UNL     1     -23.297  -3.342 -28.695  0.00  0.00    +0.000 A 
ATOM     10  O1  UNL     1     -24.632  -3.311 -28.935  0.00  0.00    +0.000 OA
ATOM     11  N5  UNL     1     -25.242  -3.942 -27.847  0.00  0.00    +0.000 NA
ENDBRANCH   1   7
TORSDOF 2
ENDMDL
MODEL 7
REMARK VINA RESULT:    -3.298     26.003     26.596
REMARK INTER + INTRA:          -3.837
REMARK INTER:                  -3.684
REMARK INTRA:                  -0.153
REMARK UNBOUND:                -0.153
REMARK  Name = /home/anacleto/Desktop/manuscript_Mpro/naturecomm/supplementary_file_S2/6-chemical-library/molecular_docking/3D_ligand_structure/1292.pdb
REMARK  2 active torsions:
REMARK  status: ('A' for Active; 'I' for Inactive)
REMARK    1  A    between atoms: N3_5  and  C3_6
REMARK    2  A    between atoms: C3_6  and  C4_7
REMARK                            x       y       z     vdW  Elec       q    Type
REMARK                         _______ _______ _______ _____ _____    ______ ____
ROOT
ATOM      1  C3  UNL     1     -37.416   7.926 -13.687  0.00  0.00    +0.000 C 
ENDROOT
BRANCH   1   6
ATOM      2  N1  UNL     1     -38.117   9.252 -15.595  0.00  0.00    +0.000 NA
ATOM      3  N2  UNL     1     -39.204   9.883 -16.020  0.00  0.00    +0.000 NA
ATOM      4  C1  UNL     1     -40.175   9.739 -15.072  0.00  0.00    +0.000 A 
ATOM      5  C2  UNL     1     -39.687   8.996 -14.024  0.00  0.00    +0.000 A 
ATOM      6  N3  UNL     1     -38.395   8.735 -14.383  0.00  0.00    +0.000 N 
ENDBRANCH   1   6
BRANCH   1   7
ATOM      7  C4  UNL     1     -37.784   6.493 -13.753  0.00  0.00    +0.000 A 
ATOM      8  N4  UNL     1     -37.376   5.669 -14.779  0.00  0.00    +0.000 NA
ATOM      9  C5  UNL     1     -37.898   4.521 -14.425  0.00  0.00    +0.000 A 
ATOM     10  O1  UNL     1     -38.578   4.562 -13.252  0.00  0.00    +0.000 OA
ATOM     11  N5  UNL     1     -38.492   5.879 -12.793  0.00  0.00    +0.000 NA
ENDBRANCH   1   7
TORSDOF 2
ENDMDL
MODEL 8
REMARK VINA RESULT:    -3.294     15.852     17.032
REMARK INTER + INTRA:          -3.833
REMARK INTER:                  -3.674
REMARK INTRA:                  -0.159
REMARK UNBOUND:                -0.153
REMARK  Name = /home/anacleto/Desktop/manuscript_Mpro/naturecomm/supplementary_file_S2/6-chemical-library/molecular_docking/3D_ligand_structure/1292.pdb
REMARK  2 active torsions:
REMARK  status: ('A' for Active; 'I' for Inactive)
REMARK    1  A    between atoms: N3_5  and  C3_6
REMARK    2  A    between atoms: C3_6  and  C4_7
REMARK                            x       y       z     vdW  Elec       q    Type
REMARK                         _______ _______ _______ _____ _____    ______ ____
ROOT
ATOM      1  C3  UNL     1     -22.627  -5.328 -26.030  0.00  0.00    +0.000 C 
ENDROOT
BRANCH   1   6
ATOM      2  N1  UNL     1     -20.318  -4.809 -26.571  0.00  0.00    +0.000 NA
ATOM      3  N2  UNL     1     -19.635  -4.221 -27.545  0.00  0.00    +0.000 NA
ATOM      4  C1  UNL     1     -20.526  -3.773 -28.477  0.00  0.00    +0.000 A 
ATOM      5  C2  UNL     1     -21.802  -4.090 -28.080  0.00  0.00    +0.000 A 
ATOM      6  N3  UNL     1     -21.626  -4.714 -26.878  0.00  0.00    +0.000 N 
ENDBRANCH   1   6
BRANCH   1   7
ATOM      7  C4  UNL     1     -22.931  -4.460 -24.870  0.00  0.00    +0.000 A 
ATOM      8  N4  UNL     1     -22.270  -4.571 -23.666  0.00  0.00    +0.000 NA
ATOM      9  C5  UNL     1     -22.831  -3.619 -22.964  0.00  0.00    +0.000 A 
ATOM     10  O1  UNL     1     -23.770  -2.912 -23.641  0.00  0.00    +0.000 OA
ATOM     11  N5  UNL     1     -23.830  -3.465 -24.923  0.00  0.00    +0.000 NA
ENDBRANCH   1   7
TORSDOF 2
ENDMDL
MODEL 9
REMARK VINA RESULT:    -3.257      1.980      4.351
REMARK INTER + INTRA:          -3.791
REMARK INTER:                  -3.602
REMARK INTRA:                  -0.189
REMARK UNBOUND:                -0.153
REMARK  Name = /home/anacleto/Desktop/manuscript_Mpro/naturecomm/supplementary_file_S2/6-chemical-library/molecular_docking/3D_ligand_structure/1292.pdb
REMARK  2 active torsions:
REMARK  status: ('A' for Active; 'I' for Inactive)
REMARK    1  A    between atoms: N3_5  and  C3_6
REMARK    2  A    between atoms: C3_6  and  C4_7
REMARK                            x       y       z     vdW  Elec       q    Type
REMARK                         _______ _______ _______ _____ _____    ______ ____
ROOT
ATOM      1  C3  UNL     1     -28.588   4.027 -39.972  0.00  0.00    +0.000 C 
ENDROOT
BRANCH   1   6
ATOM      2  N1  UNL     1     -27.639   2.690 -38.182  0.00  0.00    +0.000 NA
ATOM      3  N2  UNL     1     -26.463   2.181 -37.841  0.00  0.00    +0.000 NA
ATOM      4  C1  UNL     1     -25.548   2.562 -38.780  0.00  0.00    +0.000 A 
ATOM      5  C2  UNL     1     -26.165   3.328 -39.738  0.00  0.00    +0.000 A 
ATOM      6  N3  UNL     1     -27.461   3.401 -39.312  0.00  0.00    +0.000 N 
ENDBRANCH   1   6
BRANCH   1   7
ATOM      7  C4  UNL     1     -29.179   5.076 -39.110  0.00  0.00    +0.000 A 
ATOM      8  N4  UNL     1     -30.412   4.938 -38.511  0.00  0.00    +0.000 NA
ATOM      9  C5  UNL     1     -30.515   6.061 -37.846  0.00  0.00    +0.000 A 
ATOM     10  O1  UNL     1     -29.437   6.876 -37.967  0.00  0.00    +0.000 OA
ATOM     11  N5  UNL     1     -28.535   6.212 -38.803  0.00  0.00    +0.000 NA
ENDBRANCH   1   7
TORSDOF 2
ENDMDL
