MODEL 1
REMARK VINA RESULT:    -4.512      0.000      0.000
REMARK INTER + INTRA:          -8.402
REMARK INTER:                  -5.822
REMARK INTRA:                  -2.580
REMARK UNBOUND:                -2.572
REMARK  Name = /home/anacleto/Desktop/manuscript_Mpro/naturecomm/supplementary_file_S2/6-chemical-library/molecular_docking/3D_ligand_structure/736.pdb
REMARK  5 active torsions:
REMARK  status: ('A' for Active; 'I' for Inactive)
REMARK    1  A    between atoms: C6_6  and  C7_7
REMARK    2  A    between atoms: C7_7  and  C8_8
REMARK    3  A    between atoms: C8_8  and  C9_9
REMARK    4  A    between atoms: C9_9  and  C10_10
REMARK    5  A    between atoms: C10_10  and  C11_11
REMARK                            x       y       z     vdW  Elec       q    Type
REMARK                         _______ _______ _______ _____ _____    ______ ____
ROOT
ATOM      1  C8  UNL     1      20.672   3.127  11.113  0.00  0.00    +0.000 C 
ENDROOT
BRANCH   1   2
ATOM      2  C7  UNL     1      19.410   3.658  11.801  0.00  0.00    +0.000 C 
BRANCH   2   8
ATOM      3  C1  UNL     1      18.338   5.939  11.982  0.00  0.00    +0.000 A 
ATOM      4  C2  UNL     1      18.397   7.302  12.279  0.00  0.00    +0.000 A 
ATOM      5  C3  UNL     1      19.590   7.867  12.729  0.00  0.00    +0.000 A 
ATOM      6  C4  UNL     1      20.722   7.070  12.880  0.00  0.00    +0.000 A 
ATOM      7  C5  UNL     1      20.665   5.708  12.585  0.00  0.00    +0.000 A 
ATOM      8  C6  UNL     1      19.472   5.128  12.132  0.00  0.00    +0.000 A 
ENDBRANCH   2   8
ENDBRANCH   1   2
BRANCH   1   9
ATOM      9  C9  UNL     1      20.483   2.902   9.609  0.00  0.00    +0.000 C 
BRANCH   9  10
ATOM     10  C10 UNL     1      21.367   3.850   8.794  0.00  0.00    +0.000 C 
BRANCH  10  11
ATOM     11  C11 UNL     1      20.841   5.263   8.822  0.00  0.00    +0.000 A 
ATOM     12  C12 UNL     1      19.525   5.540   8.430  0.00  0.00    +0.000 A 
ATOM     13  C13 UNL     1      19.044   6.850   8.442  0.00  0.00    +0.000 A 
ATOM     14  C14 UNL     1      19.876   7.896   8.840  0.00  0.00    +0.000 A 
ATOM     15  C15 UNL     1      21.188   7.631   9.226  0.00  0.00    +0.000 A 
ATOM     16  C16 UNL     1      21.670   6.321   9.215  0.00  0.00    +0.000 A 
ENDBRANCH  10  11
ENDBRANCH   9  10
ENDBRANCH   1   9
TORSDOF 5
ENDMDL
MODEL 2
REMARK VINA RESULT:    -4.502      0.998      4.043
REMARK INTER + INTRA:          -8.390
REMARK INTER:                  -5.814
REMARK INTRA:                  -2.576
REMARK UNBOUND:                -2.572
REMARK  Name = /home/anacleto/Desktop/manuscript_Mpro/naturecomm/supplementary_file_S2/6-chemical-library/molecular_docking/3D_ligand_structure/736.pdb
REMARK  5 active torsions:
REMARK  status: ('A' for Active; 'I' for Inactive)
REMARK    1  A    between atoms: C6_6  and  C7_7
REMARK    2  A    between atoms: C7_7  and  C8_8
REMARK    3  A    between atoms: C8_8  and  C9_9
REMARK    4  A    between atoms: C9_9  and  C10_10
REMARK    5  A    between atoms: C10_10  and  C11_11
REMARK                            x       y       z     vdW  Elec       q    Type
REMARK                         _______ _______ _______ _____ _____    ______ ____
ROOT
ATOM      1  C8  UNL     1      18.324   3.281   9.828  0.00  0.00    +0.000 C 
ENDROOT
BRANCH   1   2
ATOM      2  C7  UNL     1      18.179   4.423   8.817  0.00  0.00    +0.000 C 
BRANCH   2   8
ATOM      3  C1  UNL     1      20.597   5.109   9.087  0.00  0.00    +0.000 A 
ATOM      4  C2  UNL     1      21.588   6.083   9.205  0.00  0.00    +0.000 A 
ATOM      5  C3  UNL     1      21.247   7.435   9.172  0.00  0.00    +0.000 A 
ATOM      6  C4  UNL     1      19.914   7.811   9.022  0.00  0.00    +0.000 A 
ATOM      7  C5  UNL     1      18.921   6.837   8.903  0.00  0.00    +0.000 A 
ATOM      8  C6  UNL     1      19.252   5.477   8.934  0.00  0.00    +0.000 A 
ENDBRANCH   2   8
ENDBRANCH   1   2
BRANCH   1   9
ATOM      9  C9  UNL     1      17.622   3.569  11.159  0.00  0.00    +0.000 C 
BRANCH   9  10
ATOM     10  C10 UNL     1      18.638   3.786  12.284  0.00  0.00    +0.000 C 
BRANCH  10  11
ATOM     11  C11 UNL     1      18.968   5.248  12.459  0.00  0.00    +0.000 A 
ATOM     12  C12 UNL     1      20.288   5.656  12.687  0.00  0.00    +0.000 A 
ATOM     13  C13 UNL     1      20.590   7.007  12.864  0.00  0.00    +0.000 A 
ATOM     14  C14 UNL     1      19.575   7.961  12.821  0.00  0.00    +0.000 A 
ATOM     15  C15 UNL     1      18.258   7.565  12.601  0.00  0.00    +0.000 A 
ATOM     16  C16 UNL     1      17.954   6.214  12.423  0.00  0.00    +0.000 A 
ENDBRANCH  10  11
ENDBRANCH   9  10
ENDBRANCH   1   9
TORSDOF 5
ENDMDL
MODEL 3
REMARK VINA RESULT:    -4.487      1.088      2.367
REMARK INTER + INTRA:          -8.370
REMARK INTER:                  -5.783
REMARK INTRA:                  -2.587
REMARK UNBOUND:                -2.572
REMARK  Name = /home/anacleto/Desktop/manuscript_Mpro/naturecomm/supplementary_file_S2/6-chemical-library/molecular_docking/3D_ligand_structure/736.pdb
REMARK  5 active torsions:
REMARK  status: ('A' for Active; 'I' for Inactive)
REMARK    1  A    between atoms: C6_6  and  C7_7
REMARK    2  A    between atoms: C7_7  and  C8_8
REMARK    3  A    between atoms: C8_8  and  C9_9
REMARK    4  A    between atoms: C9_9  and  C10_10
REMARK    5  A    between atoms: C10_10  and  C11_11
REMARK                            x       y       z     vdW  Elec       q    Type
REMARK                         _______ _______ _______ _____ _____    ______ ____
ROOT
ATOM      1  C8  UNL     1      22.772   4.710  12.078  0.00  0.00    +0.000 C 
ENDROOT
BRANCH   1   2
ATOM      2  C7  UNL     1      22.048   5.360  13.261  0.00  0.00    +0.000 C 
BRANCH   2   8
ATOM      3  C1  UNL     1      20.522   7.361  13.029  0.00  0.00    +0.000 A 
ATOM      4  C2  UNL     1      19.293   7.934  12.699  0.00  0.00    +0.000 A 
ATOM      5  C3  UNL     1      18.253   7.132  12.230  0.00  0.00    +0.000 A 
ATOM      6  C4  UNL     1      18.442   5.759  12.092  0.00  0.00    +0.000 A 
ATOM      7  C5  UNL     1      19.670   5.185  12.422  0.00  0.00    +0.000 A 
ATOM      8  C6  UNL     1      20.723   5.980  12.894  0.00  0.00    +0.000 A 
ENDBRANCH   2   8
ENDBRANCH   1   2
BRANCH   1   9
ATOM      9  C9  UNL     1      23.256   5.728  11.040  0.00  0.00    +0.000 C 
BRANCH   9  10
ATOM     10  C10 UNL     1      22.838   5.316   9.626  0.00  0.00    +0.000 C 
BRANCH  10  11
ATOM     11  C11 UNL     1      21.509   5.916   9.242  0.00  0.00    +0.000 A 
ATOM     12  C12 UNL     1      21.294   7.297   9.347  0.00  0.00    +0.000 A 
ATOM     13  C13 UNL     1      20.058   7.848   9.006  0.00  0.00    +0.000 A 
ATOM     14  C14 UNL     1      19.024   7.025   8.563  0.00  0.00    +0.000 A 
ATOM     15  C15 UNL     1      19.226   5.650   8.461  0.00  0.00    +0.000 A 
ATOM     16  C16 UNL     1      20.461   5.097   8.801  0.00  0.00    +0.000 A 
ENDBRANCH  10  11
ENDBRANCH   9  10
ENDBRANCH   1   9
TORSDOF 5
ENDMDL
MODEL 4
REMARK VINA RESULT:    -4.478      0.179      3.708
REMARK INTER + INTRA:          -8.359
REMARK INTER:                  -5.743
REMARK INTRA:                  -2.616
REMARK UNBOUND:                -2.572
REMARK  Name = /home/anacleto/Desktop/manuscript_Mpro/naturecomm/supplementary_file_S2/6-chemical-library/molecular_docking/3D_ligand_structure/736.pdb
REMARK  5 active torsions:
REMARK  status: ('A' for Active; 'I' for Inactive)
REMARK    1  A    between atoms: C6_6  and  C7_7
REMARK    2  A    between atoms: C7_7  and  C8_8
REMARK    3  A    between atoms: C8_8  and  C9_9
REMARK    4  A    between atoms: C9_9  and  C10_10
REMARK    5  A    between atoms: C10_10  and  C11_11
REMARK                            x       y       z     vdW  Elec       q    Type
REMARK                         _______ _______ _______ _____ _____    ______ ____
ROOT
ATOM      1  C8  UNL     1      20.464   2.864   9.899  0.00  0.00    +0.000 C 
ENDROOT
BRANCH   1   2
ATOM      2  C7  UNL     1      21.257   3.770   8.952  0.00  0.00    +0.000 C 
BRANCH   2   8
ATOM      3  C1  UNL     1      21.645   6.253   9.227  0.00  0.00    +0.000 A 
ATOM      4  C2  UNL     1      21.193   7.573   9.215  0.00  0.00    +0.000 A 
ATOM      5  C3  UNL     1      19.863   7.852   8.905  0.00  0.00    +0.000 A 
ATOM      6  C4  UNL     1      18.985   6.812   8.608  0.00  0.00    +0.000 A 
ATOM      7  C5  UNL     1      19.436   5.492   8.619  0.00  0.00    +0.000 A 
ATOM      8  C6  UNL     1      20.770   5.198   8.929  0.00  0.00    +0.000 A 
ENDBRANCH   2   8
ENDBRANCH   1   2
BRANCH   1   9
ATOM      9  C9  UNL     1      20.718   3.176  11.377  0.00  0.00    +0.000 C 
BRANCH   9  10
ATOM     10  C10 UNL     1      19.436   3.646  12.071  0.00  0.00    +0.000 C 
BRANCH  10  11
ATOM     11  C11 UNL     1      19.446   5.135  12.308  0.00  0.00    +0.000 A 
ATOM     12  C12 UNL     1      18.282   5.893  12.122  0.00  0.00    +0.000 A 
ATOM     13  C13 UNL     1      18.297   7.273  12.328  0.00  0.00    +0.000 A 
ATOM     14  C14 UNL     1      19.475   7.910  12.715  0.00  0.00    +0.000 A 
ATOM     15  C15 UNL     1      20.639   7.166  12.896  0.00  0.00    +0.000 A 
ATOM     16  C16 UNL     1      20.626   5.785  12.691  0.00  0.00    +0.000 A 
ENDBRANCH  10  11
ENDBRANCH   9  10
ENDBRANCH   1   9
TORSDOF 5
ENDMDL
MODEL 5
REMARK VINA RESULT:    -4.473      1.077      4.159
REMARK INTER + INTRA:          -8.352
REMARK INTER:                  -5.822
REMARK INTRA:                  -2.531
REMARK UNBOUND:                -2.572
REMARK  Name = /home/anacleto/Desktop/manuscript_Mpro/naturecomm/supplementary_file_S2/6-chemical-library/molecular_docking/3D_ligand_structure/736.pdb
REMARK  5 active torsions:
REMARK  status: ('A' for Active; 'I' for Inactive)
REMARK    1  A    between atoms: C6_6  and  C7_7
REMARK    2  A    between atoms: C7_7  and  C8_8
REMARK    3  A    between atoms: C8_8  and  C9_9
REMARK    4  A    between atoms: C9_9  and  C10_10
REMARK    5  A    between atoms: C10_10  and  C11_11
REMARK                            x       y       z     vdW  Elec       q    Type
REMARK                         _______ _______ _______ _____ _____    ______ ____
ROOT
ATOM      1  C8  UNL     1      22.967   4.673  10.806  0.00  0.00    +0.000 C 
ENDROOT
BRANCH   1   2
ATOM      2  C7  UNL     1      22.911   5.476   9.502  0.00  0.00    +0.000 C 
BRANCH   2   8
ATOM      3  C1  UNL     1      20.539   5.144   8.697  0.00  0.00    +0.000 A 
ATOM      4  C2  UNL     1      19.270   5.635   8.386  0.00  0.00    +0.000 A 
ATOM      5  C3  UNL     1      18.986   6.990   8.549  0.00  0.00    +0.000 A 
ATOM      6  C4  UNL     1      19.971   7.854   9.023  0.00  0.00    +0.000 A 
ATOM      7  C5  UNL     1      21.240   7.365   9.336  0.00  0.00    +0.000 A 
ATOM      8  C6  UNL     1      21.537   6.005   9.175  0.00  0.00    +0.000 A 
ENDBRANCH   2   8
ENDBRANCH   1   2
BRANCH   1   9
ATOM      9  C9  UNL     1      23.056   5.561  12.052  0.00  0.00    +0.000 C 
BRANCH   9  10
ATOM     10  C10 UNL     1      21.979   5.188  13.073  0.00  0.00    +0.000 C 
BRANCH  10  11
ATOM     11  C11 UNL     1      20.676   5.893  12.789  0.00  0.00    +0.000 A 
ATOM     12  C12 UNL     1      20.551   7.272  13.002  0.00  0.00    +0.000 A 
ATOM     13  C13 UNL     1      19.341   7.920  12.753  0.00  0.00    +0.000 A 
ATOM     14  C14 UNL     1      18.242   7.195  12.293  0.00  0.00    +0.000 A 
ATOM     15  C15 UNL     1      18.354   5.822  12.084  0.00  0.00    +0.000 A 
ATOM     16  C16 UNL     1      19.564   5.173  12.333  0.00  0.00    +0.000 A 
ENDBRANCH  10  11
ENDBRANCH   9  10
ENDBRANCH   1   9
TORSDOF 5
ENDMDL
MODEL 6
REMARK VINA RESULT:    -4.021     15.116     17.628
REMARK INTER + INTRA:          -7.768
REMARK INTER:                  -5.219
REMARK INTRA:                  -2.548
REMARK UNBOUND:                -2.572
REMARK  Name = /home/anacleto/Desktop/manuscript_Mpro/naturecomm/supplementary_file_S2/6-chemical-library/molecular_docking/3D_ligand_structure/736.pdb
REMARK  5 active torsions:
REMARK  status: ('A' for Active; 'I' for Inactive)
REMARK    1  A    between atoms: C6_6  and  C7_7
REMARK    2  A    between atoms: C7_7  and  C8_8
REMARK    3  A    between atoms: C8_8  and  C9_9
REMARK    4  A    between atoms: C9_9  and  C10_10
REMARK    5  A    between atoms: C10_10  and  C11_11
REMARK                            x       y       z     vdW  Elec       q    Type
REMARK                         _______ _______ _______ _____ _____    ______ ____
ROOT
ATOM      1  C8  UNL     1      15.364  12.556  -7.400  0.00  0.00    +0.000 C 
ENDROOT
BRANCH   1   2
ATOM      2  C7  UNL     1      16.717  11.869  -7.607  0.00  0.00    +0.000 C 
BRANCH   2   8
ATOM      3  C1  UNL     1      17.951  10.509  -5.870  0.00  0.00    +0.000 A 
ATOM      4  C2  UNL     1      18.707  10.409  -4.701  0.00  0.00    +0.000 A 
ATOM      5  C3  UNL     1      19.061  11.560  -3.998  0.00  0.00    +0.000 A 
ATOM      6  C4  UNL     1      18.659  12.810  -4.465  0.00  0.00    +0.000 A 
ATOM      7  C5  UNL     1      17.904  12.911  -5.634  0.00  0.00    +0.000 A 
ATOM      8  C6  UNL     1      17.542  11.762  -6.348  0.00  0.00    +0.000 A 
ENDBRANCH   2   8
ENDBRANCH   1   2
BRANCH   1   9
ATOM      9  C9  UNL     1      14.254  11.579  -6.994  0.00  0.00    +0.000 C 
BRANCH   9  10
ATOM     10  C10 UNL     1      13.455  12.117  -5.804  0.00  0.00    +0.000 C 
BRANCH  10  11
ATOM     11  C11 UNL     1      14.282  12.137  -4.542  0.00  0.00    +0.000 A 
ATOM     12  C12 UNL     1      14.569  13.348  -3.899  0.00  0.00    +0.000 A 
ATOM     13  C13 UNL     1      15.347  13.366  -2.741  0.00  0.00    +0.000 A 
ATOM     14  C14 UNL     1      15.850  12.176  -2.218  0.00  0.00    +0.000 A 
ATOM     15  C15 UNL     1      15.576  10.967  -2.854  0.00  0.00    +0.000 A 
ATOM     16  C16 UNL     1      14.797  10.947  -4.012  0.00  0.00    +0.000 A 
ENDBRANCH  10  11
ENDBRANCH   9  10
ENDBRANCH   1   9
TORSDOF 5
ENDMDL
MODEL 7
REMARK VINA RESULT:    -3.985     13.467     15.170
REMARK INTER + INTRA:          -7.722
REMARK INTER:                  -5.131
REMARK INTRA:                  -2.591
REMARK UNBOUND:                -2.572
REMARK  Name = /home/anacleto/Desktop/manuscript_Mpro/naturecomm/supplementary_file_S2/6-chemical-library/molecular_docking/3D_ligand_structure/736.pdb
REMARK  5 active torsions:
REMARK  status: ('A' for Active; 'I' for Inactive)
REMARK    1  A    between atoms: C6_6  and  C7_7
REMARK    2  A    between atoms: C7_7  and  C8_8
REMARK    3  A    between atoms: C8_8  and  C9_9
REMARK    4  A    between atoms: C9_9  and  C10_10
REMARK    5  A    between atoms: C10_10  and  C11_11
REMARK                            x       y       z     vdW  Elec       q    Type
REMARK                         _______ _______ _______ _____ _____    ______ ____
ROOT
ATOM      1  C8  UNL     1      17.922  13.198  -2.040  0.00  0.00    +0.000 C 
ENDROOT
BRANCH   1   2
ATOM      2  C7  UNL     1      19.059  12.864  -1.069  0.00  0.00    +0.000 C 
BRANCH   2   8
ATOM      3  C1  UNL     1      20.318  14.368   0.524  0.00  0.00    +0.000 A 
ATOM      4  C2  UNL     1      21.165  15.448   0.780  0.00  0.00    +0.000 A 
ATOM      5  C3  UNL     1      21.684  16.194  -0.277  0.00  0.00    +0.000 A 
ATOM      6  C4  UNL     1      21.356  15.861  -1.589  0.00  0.00    +0.000 A 
ATOM      7  C5  UNL     1      20.510  14.782  -1.847  0.00  0.00    +0.000 A 
ATOM      8  C6  UNL     1      19.982  14.025  -0.793  0.00  0.00    +0.000 A 
ENDBRANCH   2   8
ENDBRANCH   1   2
BRANCH   1   9
ATOM      9  C9  UNL     1      16.588  13.456  -1.332  0.00  0.00    +0.000 C 
BRANCH   9  10
ATOM     10  C10 UNL     1      16.098  14.886  -1.580  0.00  0.00    +0.000 C 
BRANCH  10  11
ATOM     11  C11 UNL     1      16.899  15.892  -0.792  0.00  0.00    +0.000 A 
ATOM     12  C12 UNL     1      16.954  15.819   0.606  0.00  0.00    +0.000 A 
ATOM     13  C13 UNL     1      17.682  16.760   1.335  0.00  0.00    +0.000 A 
ATOM     14  C14 UNL     1      18.358  17.785   0.675  0.00  0.00    +0.000 A 
ATOM     15  C15 UNL     1      18.304  17.870  -0.715  0.00  0.00    +0.000 A 
ATOM     16  C16 UNL     1      17.576  16.930  -1.445  0.00  0.00    +0.000 A 
ENDBRANCH  10  11
ENDBRANCH   9  10
ENDBRANCH   1   9
TORSDOF 5
ENDMDL
MODEL 8
REMARK VINA RESULT:    -3.819     13.428     15.220
REMARK INTER + INTRA:          -7.507
REMARK INTER:                  -4.998
REMARK INTRA:                  -2.509
REMARK UNBOUND:                -2.572
REMARK  Name = /home/anacleto/Desktop/manuscript_Mpro/naturecomm/supplementary_file_S2/6-chemical-library/molecular_docking/3D_ligand_structure/736.pdb
REMARK  5 active torsions:
REMARK  status: ('A' for Active; 'I' for Inactive)
REMARK    1  A    between atoms: C6_6  and  C7_7
REMARK    2  A    between atoms: C7_7  and  C8_8
REMARK    3  A    between atoms: C8_8  and  C9_9
REMARK    4  A    between atoms: C9_9  and  C10_10
REMARK    5  A    between atoms: C10_10  and  C11_11
REMARK                            x       y       z     vdW  Elec       q    Type
REMARK                         _______ _______ _______ _____ _____    ______ ____
ROOT
ATOM      1  C8  UNL     1      19.968  15.555   0.417  0.00  0.00    +0.000 C 
ENDROOT
BRANCH   1   2
ATOM      2  C7  UNL     1      18.701  16.200   0.989  0.00  0.00    +0.000 C 
BRANCH   2   8
ATOM      3  C1  UNL     1      17.672  16.984  -1.182  0.00  0.00    +0.000 A 
ATOM      4  C2  UNL     1      16.608  17.043  -2.083  0.00  0.00    +0.000 A 
ATOM      5  C3  UNL     1      15.417  16.377  -1.802  0.00  0.00    +0.000 A 
ATOM      6  C4  UNL     1      15.289  15.652  -0.619  0.00  0.00    +0.000 A 
ATOM      7  C5  UNL     1      16.352  15.590   0.283  0.00  0.00    +0.000 A 
ATOM      8  C6  UNL     1      17.554  16.256   0.011  0.00  0.00    +0.000 A 
ENDBRANCH   2   8
ENDBRANCH   1   2
BRANCH   1   9
ATOM      9  C9  UNL     1      19.839  14.038   0.243  0.00  0.00    +0.000 C 
BRANCH   9  10
ATOM     10  C10 UNL     1      19.804  13.654  -1.239  0.00  0.00    +0.000 C 
BRANCH  10  11
ATOM     11  C11 UNL     1      18.433  13.184  -1.659  0.00  0.00    +0.000 A 
ATOM     12  C12 UNL     1      17.871  13.618  -2.866  0.00  0.00    +0.000 A 
ATOM     13  C13 UNL     1      16.597  13.195  -3.246  0.00  0.00    +0.000 A 
ATOM     14  C14 UNL     1      15.871  12.337  -2.421  0.00  0.00    +0.000 A 
ATOM     15  C15 UNL     1      16.418  11.905  -1.215  0.00  0.00    +0.000 A 
ATOM     16  C16 UNL     1      17.693  12.327  -0.834  0.00  0.00    +0.000 A 
ENDBRANCH  10  11
ENDBRANCH   9  10
ENDBRANCH   1   9
TORSDOF 5
ENDMDL
MODEL 9
REMARK VINA RESULT:    -3.761     14.381     16.860
REMARK INTER + INTRA:          -7.432
REMARK INTER:                  -4.860
REMARK INTRA:                  -2.572
REMARK UNBOUND:                -2.572
REMARK  Name = /home/anacleto/Desktop/manuscript_Mpro/naturecomm/supplementary_file_S2/6-chemical-library/molecular_docking/3D_ligand_structure/736.pdb
REMARK  5 active torsions:
REMARK  status: ('A' for Active; 'I' for Inactive)
REMARK    1  A    between atoms: C6_6  and  C7_7
REMARK    2  A    between atoms: C7_7  and  C8_8
REMARK    3  A    between atoms: C8_8  and  C9_9
REMARK    4  A    between atoms: C9_9  and  C10_10
REMARK    5  A    between atoms: C10_10  and  C11_11
REMARK                            x       y       z     vdW  Elec       q    Type
REMARK                         _______ _______ _______ _____ _____    ______ ____
ROOT
ATOM      1  C8  UNL     1      18.831  11.096  -5.845  0.00  0.00    +0.000 C 
ENDROOT
BRANCH   1   2
ATOM      2  C7  UNL     1      18.627  10.263  -4.575  0.00  0.00    +0.000 C 
BRANCH   2   8
ATOM      3  C1  UNL     1      16.835  10.287  -2.793  0.00  0.00    +0.000 A 
ATOM      4  C2  UNL     1      16.091  10.943  -1.812  0.00  0.00    +0.000 A 
ATOM      5  C3  UNL     1      16.333  12.288  -1.534  0.00  0.00    +0.000 A 
ATOM      6  C4  UNL     1      17.318  12.976  -2.239  0.00  0.00    +0.000 A 
ATOM      7  C5  UNL     1      18.063  12.321  -3.220  0.00  0.00    +0.000 A 
ATOM      8  C6  UNL     1      17.830  10.970  -3.507  0.00  0.00    +0.000 A 
ENDBRANCH   2   8
ENDBRANCH   1   2
BRANCH   1   9
ATOM      9  C9  UNL     1      17.985  10.604  -7.025  0.00  0.00    +0.000 C 
BRANCH   9  10
ATOM     10  C10 UNL     1      17.086  11.721  -7.563  0.00  0.00    +0.000 C 
BRANCH  10  11
ATOM     11  C11 UNL     1      16.084  12.173  -6.530  0.00  0.00    +0.000 A 
ATOM     12  C12 UNL     1      16.084  13.496  -6.070  0.00  0.00    +0.000 A 
ATOM     13  C13 UNL     1      15.166  13.909  -5.104  0.00  0.00    +0.000 A 
ATOM     14  C14 UNL     1      14.243  13.003  -4.585  0.00  0.00    +0.000 A 
ATOM     15  C15 UNL     1      14.238  11.683  -5.031  0.00  0.00    +0.000 A 
ATOM     16  C16 UNL     1      15.156  11.269  -5.998  0.00  0.00    +0.000 A 
ENDBRANCH  10  11
ENDBRANCH   9  10
ENDBRANCH   1   9
TORSDOF 5
ENDMDL
