MODEL 1
REMARK VINA RESULT:    -4.857      0.000      0.000
REMARK INTER + INTRA:          -5.441
REMARK INTER:                  -5.140
REMARK INTRA:                  -0.301
REMARK UNBOUND:                -0.300
REMARK  Name = /home/anacleto/Desktop/manuscript_Mpro/naturecomm/supplementary_file_S2/6-chemical-library/molecular_docking/3D_ligand_structure/1243.pdb
REMARK  1 active torsions:
REMARK  status: ('A' for Active; 'I' for Inactive)
REMARK    1  A    between atoms: C6_6  and  C7_7
REMARK                            x       y       z     vdW  Elec       q    Type
REMARK                         _______ _______ _______ _____ _____    ______ ____
ROOT
ATOM      1  C1  UNL     1      19.040   5.190  10.239  0.00  0.00    +0.000 A 
ATOM      2  C2  UNL     1      19.107   4.985   8.859  0.00  0.00    +0.000 A 
ATOM      3  C3  UNL     1      19.345   6.059   8.006  0.00  0.00    +0.000 A 
ATOM      4  C4  UNL     1      19.514   7.338   8.529  0.00  0.00    +0.000 A 
ATOM      5  C5  UNL     1      19.447   7.544   9.908  0.00  0.00    +0.000 A 
ATOM      6  C6  UNL     1      19.211   6.472  10.783  0.00  0.00    +0.000 A 
ENDROOT
BRANCH   6   7
ATOM      7  C7  UNL     1      19.136   6.722  12.280  0.00  0.00    +0.000 C 
ATOM      8  C8  UNL     1      20.446   7.327  12.824  0.00  0.00    +0.000 C 
ATOM      9  C9  UNL     1      20.325   7.813  14.241  0.00  0.00    +0.000 C 
ATOM     10  C10 UNL     1      19.147   7.980  14.861  0.00  0.00    +0.000 C 
ATOM     11  C11 UNL     1      17.824   7.732  14.196  0.00  0.00    +0.000 C 
ATOM     12  C12 UNL     1      17.932   7.595  12.673  0.00  0.00    +0.000 C 
ENDBRANCH   6   7
TORSDOF 1
ENDMDL
MODEL 2
REMARK VINA RESULT:    -4.827      0.424      1.514
REMARK INTER + INTRA:          -5.409
REMARK INTER:                  -5.115
REMARK INTRA:                  -0.294
REMARK UNBOUND:                -0.300
REMARK  Name = /home/anacleto/Desktop/manuscript_Mpro/naturecomm/supplementary_file_S2/6-chemical-library/molecular_docking/3D_ligand_structure/1243.pdb
REMARK  1 active torsions:
REMARK  status: ('A' for Active; 'I' for Inactive)
REMARK    1  A    between atoms: C6_6  and  C7_7
REMARK                            x       y       z     vdW  Elec       q    Type
REMARK                         _______ _______ _______ _____ _____    ______ ____
ROOT
ATOM      1  C1  UNL     1      18.785   5.591  10.485  0.00  0.00    +0.000 A 
ATOM      2  C2  UNL     1      18.777   5.008   9.216  0.00  0.00    +0.000 A 
ATOM      3  C3  UNL     1      19.176   5.747   8.106  0.00  0.00    +0.000 A 
ATOM      4  C4  UNL     1      19.583   7.070   8.263  0.00  0.00    +0.000 A 
ATOM      5  C5  UNL     1      19.591   7.654   9.531  0.00  0.00    +0.000 A 
ATOM      6  C6  UNL     1      19.194   6.922  10.660  0.00  0.00    +0.000 A 
ENDROOT
BRANCH   6   7
ATOM      7  C7  UNL     1      19.205   7.581  12.030  0.00  0.00    +0.000 C 
ATOM      8  C8  UNL     1      17.858   7.402  12.759  0.00  0.00    +0.000 C 
ATOM      9  C9  UNL     1      17.912   7.822  14.202  0.00  0.00    +0.000 C 
ATOM     10  C10 UNL     1      19.061   8.041  14.860  0.00  0.00    +0.000 C 
ATOM     11  C11 UNL     1      20.414   7.858  14.237  0.00  0.00    +0.000 C 
ATOM     12  C12 UNL     1      20.368   7.092  12.910  0.00  0.00    +0.000 C 
ENDBRANCH   6   7
TORSDOF 1
ENDMDL
MODEL 3
REMARK VINA RESULT:    -4.789      0.371      4.966
REMARK INTER + INTRA:          -5.369
REMARK INTER:                  -5.072
REMARK INTRA:                  -0.297
REMARK UNBOUND:                -0.300
REMARK  Name = /home/anacleto/Desktop/manuscript_Mpro/naturecomm/supplementary_file_S2/6-chemical-library/molecular_docking/3D_ligand_structure/1243.pdb
REMARK  1 active torsions:
REMARK  status: ('A' for Active; 'I' for Inactive)
REMARK    1  A    between atoms: C6_6  and  C7_7
REMARK                            x       y       z     vdW  Elec       q    Type
REMARK                         _______ _______ _______ _____ _____    ______ ____
ROOT
ATOM      1  C1  UNL     1      20.147   7.524  12.755  0.00  0.00    +0.000 A 
ATOM      2  C2  UNL     1      20.246   7.901  14.097  0.00  0.00    +0.000 A 
ATOM      3  C3  UNL     1      19.096   8.031  14.871  0.00  0.00    +0.000 A 
ATOM      4  C4  UNL     1      17.847   7.787  14.306  0.00  0.00    +0.000 A 
ATOM      5  C5  UNL     1      17.748   7.411  12.965  0.00  0.00    +0.000 A 
ATOM      6  C6  UNL     1      18.897   7.272  12.171  0.00  0.00    +0.000 A 
ENDROOT
BRANCH   6   7
ATOM      7  C7  UNL     1      18.763   6.867  10.713  0.00  0.00    +0.000 C 
ATOM      8  C8  UNL     1      19.727   7.664   9.809  0.00  0.00    +0.000 C 
ATOM      9  C9  UNL     1      19.800   7.123   8.409  0.00  0.00    +0.000 C 
ATOM     10  C10 UNL     1      19.321   5.919   8.061  0.00  0.00    +0.000 C 
ATOM     11  C11 UNL     1      18.694   4.969   9.039  0.00  0.00    +0.000 C 
ATOM     12  C12 UNL     1      18.946   5.355  10.501  0.00  0.00    +0.000 C 
ENDBRANCH   6   7
TORSDOF 1
ENDMDL
MODEL 4
REMARK VINA RESULT:    -4.470     13.956     16.695
REMARK INTER + INTRA:          -5.032
REMARK INTER:                  -4.727
REMARK INTRA:                  -0.305
REMARK UNBOUND:                -0.300
REMARK  Name = /home/anacleto/Desktop/manuscript_Mpro/naturecomm/supplementary_file_S2/6-chemical-library/molecular_docking/3D_ligand_structure/1243.pdb
REMARK  1 active torsions:
REMARK  status: ('A' for Active; 'I' for Inactive)
REMARK    1  A    between atoms: C6_6  and  C7_7
REMARK                            x       y       z     vdW  Elec       q    Type
REMARK                         _______ _______ _______ _____ _____    ______ ____
ROOT
ATOM      1  C1  UNL     1      13.799  10.652  -4.884  0.00  0.00    +0.000 A 
ATOM      2  C2  UNL     1      13.185  10.688  -6.138  0.00  0.00    +0.000 A 
ATOM      3  C3  UNL     1      13.905  11.099  -7.255  0.00  0.00    +0.000 A 
ATOM      4  C4  UNL     1      15.240  11.475  -7.122  0.00  0.00    +0.000 A 
ATOM      5  C5  UNL     1      15.854  11.440  -5.869  0.00  0.00    +0.000 A 
ATOM      6  C6  UNL     1      15.143  11.025  -4.732  0.00  0.00    +0.000 A 
ENDROOT
BRANCH   6   7
ATOM      7  C7  UNL     1      15.831  11.001  -3.378  0.00  0.00    +0.000 C 
ATOM      8  C8  UNL     1      17.242  10.384  -3.466  0.00  0.00    +0.000 C 
ATOM      9  C9  UNL     1      18.043  10.567  -2.207  0.00  0.00    +0.000 C 
ATOM     10  C10 UNL     1      17.694  11.421  -1.233  0.00  0.00    +0.000 C 
ATOM     11  C11 UNL     1      16.486  12.308  -1.311  0.00  0.00    +0.000 C 
ATOM     12  C12 UNL     1      15.887  12.391  -2.720  0.00  0.00    +0.000 C 
ENDBRANCH   6   7
TORSDOF 1
ENDMDL
MODEL 5
REMARK VINA RESULT:    -4.407      1.315      4.781
REMARK INTER + INTRA:          -4.965
REMARK INTER:                  -4.650
REMARK INTRA:                  -0.315
REMARK UNBOUND:                -0.300
REMARK  Name = /home/anacleto/Desktop/manuscript_Mpro/naturecomm/supplementary_file_S2/6-chemical-library/molecular_docking/3D_ligand_structure/1243.pdb
REMARK  1 active torsions:
REMARK  status: ('A' for Active; 'I' for Inactive)
REMARK    1  A    between atoms: C6_6  and  C7_7
REMARK                            x       y       z     vdW  Elec       q    Type
REMARK                         _______ _______ _______ _____ _____    ______ ____
ROOT
ATOM      1  C1  UNL     1      17.651   5.285  12.649  0.00  0.00    +0.000 A 
ATOM      2  C2  UNL     1      16.749   5.482  13.697  0.00  0.00    +0.000 A 
ATOM      3  C3  UNL     1      16.621   6.740  14.279  0.00  0.00    +0.000 A 
ATOM      4  C4  UNL     1      17.395   7.802  13.817  0.00  0.00    +0.000 A 
ATOM      5  C5  UNL     1      18.298   7.605  12.771  0.00  0.00    +0.000 A 
ATOM      6  C6  UNL     1      18.437   6.344  12.170  0.00  0.00    +0.000 A 
ENDROOT
BRANCH   6   7
ATOM      7  C7  UNL     1      19.431   6.153  11.037  0.00  0.00    +0.000 C 
ATOM      8  C8  UNL     1      19.139   4.869  10.233  0.00  0.00    +0.000 C 
ATOM      9  C9  UNL     1      19.941   4.775   8.965  0.00  0.00    +0.000 C 
ATOM     10  C10 UNL     1      20.605   5.815   8.438  0.00  0.00    +0.000 C 
ATOM     11  C11 UNL     1      20.591   7.190   9.040  0.00  0.00    +0.000 C 
ATOM     12  C12 UNL     1      19.501   7.373  10.102  0.00  0.00    +0.000 C 
ENDBRANCH   6   7
TORSDOF 1
ENDMDL
MODEL 6
REMARK VINA RESULT:    -4.364     13.991     16.803
REMARK INTER + INTRA:          -4.919
REMARK INTER:                  -4.613
REMARK INTRA:                  -0.306
REMARK UNBOUND:                -0.300
REMARK  Name = /home/anacleto/Desktop/manuscript_Mpro/naturecomm/supplementary_file_S2/6-chemical-library/molecular_docking/3D_ligand_structure/1243.pdb
REMARK  1 active torsions:
REMARK  status: ('A' for Active; 'I' for Inactive)
REMARK    1  A    between atoms: C6_6  and  C7_7
REMARK                            x       y       z     vdW  Elec       q    Type
REMARK                         _______ _______ _______ _____ _____    ______ ____
ROOT
ATOM      1  C1  UNL     1      15.644  11.672  -6.229  0.00  0.00    +0.000 A 
ATOM      2  C2  UNL     1      14.735  11.441  -7.265  0.00  0.00    +0.000 A 
ATOM      3  C3  UNL     1      13.482  10.904  -6.986  0.00  0.00    +0.000 A 
ATOM      4  C4  UNL     1      13.135  10.595  -5.673  0.00  0.00    +0.000 A 
ATOM      5  C5  UNL     1      14.043  10.824  -4.638  0.00  0.00    +0.000 A 
ATOM      6  C6  UNL     1      15.309  11.368  -4.901  0.00  0.00    +0.000 A 
ENDROOT
BRANCH   6   7
ATOM      7  C7  UNL     1      16.283  11.604  -3.758  0.00  0.00    +0.000 C 
ATOM      8  C8  UNL     1      15.554  12.035  -2.469  0.00  0.00    +0.000 C 
ATOM      9  C9  UNL     1      16.450  12.037  -1.261  0.00  0.00    +0.000 C 
ATOM     10  C10 UNL     1      17.655  11.449  -1.241  0.00  0.00    +0.000 C 
ATOM     11  C11 UNL     1      18.224  10.699  -2.409  0.00  0.00    +0.000 C 
ATOM     12  C12 UNL     1      17.183  10.386  -3.490  0.00  0.00    +0.000 C 
ENDBRANCH   6   7
TORSDOF 1
ENDMDL
MODEL 7
REMARK VINA RESULT:    -4.219     10.554     12.068
REMARK INTER + INTRA:          -4.766
REMARK INTER:                  -4.451
REMARK INTRA:                  -0.315
REMARK UNBOUND:                -0.300
REMARK  Name = /home/anacleto/Desktop/manuscript_Mpro/naturecomm/supplementary_file_S2/6-chemical-library/molecular_docking/3D_ligand_structure/1243.pdb
REMARK  1 active torsions:
REMARK  status: ('A' for Active; 'I' for Inactive)
REMARK    1  A    between atoms: C6_6  and  C7_7
REMARK                            x       y       z     vdW  Elec       q    Type
REMARK                         _______ _______ _______ _____ _____    ______ ____
ROOT
ATOM      1  C1  UNL     1      24.135  17.740  11.333  0.00  0.00    +0.000 A 
ATOM      2  C2  UNL     1      23.168  17.875  12.332  0.00  0.00    +0.000 A 
ATOM      3  C3  UNL     1      22.310  16.817  12.619  0.00  0.00    +0.000 A 
ATOM      4  C4  UNL     1      22.416  15.624  11.908  0.00  0.00    +0.000 A 
ATOM      5  C5  UNL     1      23.381  15.489  10.909  0.00  0.00    +0.000 A 
ATOM      6  C6  UNL     1      24.256  16.545  10.608  0.00  0.00    +0.000 A 
ENDROOT
BRANCH   6   7
ATOM      7  C7  UNL     1      25.295  16.376   9.512  0.00  0.00    +0.000 C 
ATOM      8  C8  UNL     1      26.481  17.344   9.697  0.00  0.00    +0.000 C 
ATOM      9  C9  UNL     1      27.635  17.040   8.783  0.00  0.00    +0.000 C 
ATOM     10  C10 UNL     1      27.747  15.890   8.101  0.00  0.00    +0.000 C 
ATOM     11  C11 UNL     1      26.751  14.772   8.204  0.00  0.00    +0.000 C 
ATOM     12  C12 UNL     1      25.792  14.926   9.389  0.00  0.00    +0.000 C 
ENDBRANCH   6   7
TORSDOF 1
ENDMDL
MODEL 8
REMARK VINA RESULT:    -4.192     14.124     17.448
REMARK INTER + INTRA:          -4.738
REMARK INTER:                  -4.444
REMARK INTRA:                  -0.293
REMARK UNBOUND:                -0.300
REMARK  Name = /home/anacleto/Desktop/manuscript_Mpro/naturecomm/supplementary_file_S2/6-chemical-library/molecular_docking/3D_ligand_structure/1243.pdb
REMARK  1 active torsions:
REMARK  status: ('A' for Active; 'I' for Inactive)
REMARK    1  A    between atoms: C6_6  and  C7_7
REMARK                            x       y       z     vdW  Elec       q    Type
REMARK                         _______ _______ _______ _____ _____    ______ ____
ROOT
ATOM      1  C1  UNL     1      15.661  13.068  -3.017  0.00  0.00    +0.000 A 
ATOM      2  C2  UNL     1      16.129  13.495  -1.772  0.00  0.00    +0.000 A 
ATOM      3  C3  UNL     1      16.822  12.612  -0.948  0.00  0.00    +0.000 A 
ATOM      4  C4  UNL     1      17.049  11.303  -1.367  0.00  0.00    +0.000 A 
ATOM      5  C5  UNL     1      16.581  10.876  -2.611  0.00  0.00    +0.000 A 
ATOM      6  C6  UNL     1      15.882  11.754  -3.454  0.00  0.00    +0.000 A 
ENDROOT
BRANCH   6   7
ATOM      7  C7  UNL     1      15.378  11.264  -4.802  0.00  0.00    +0.000 C 
ATOM      8  C8  UNL     1      13.899  10.830  -4.734  0.00  0.00    +0.000 C 
ATOM      9  C9  UNL     1      13.299  10.576  -6.089  0.00  0.00    +0.000 C 
ATOM     10  C10 UNL     1      13.880  10.967  -7.233  0.00  0.00    +0.000 C 
ATOM     11  C11 UNL     1      15.173  11.728  -7.282  0.00  0.00    +0.000 C 
ATOM     12  C12 UNL     1      15.589  12.298  -5.922  0.00  0.00    +0.000 C 
ENDBRANCH   6   7
TORSDOF 1
ENDMDL
MODEL 9
REMARK VINA RESULT:    -4.075      3.260      4.556
REMARK INTER + INTRA:          -4.614
REMARK INTER:                  -4.313
REMARK INTRA:                  -0.300
REMARK UNBOUND:                -0.300
REMARK  Name = /home/anacleto/Desktop/manuscript_Mpro/naturecomm/supplementary_file_S2/6-chemical-library/molecular_docking/3D_ligand_structure/1243.pdb
REMARK  1 active torsions:
REMARK  status: ('A' for Active; 'I' for Inactive)
REMARK    1  A    between atoms: C6_6  and  C7_7
REMARK                            x       y       z     vdW  Elec       q    Type
REMARK                         _______ _______ _______ _____ _____    ______ ____
ROOT
ATOM      1  C1  UNL     1      17.370   3.803  10.884  0.00  0.00    +0.000 A 
ATOM      2  C2  UNL     1      16.312   2.895  10.800  0.00  0.00    +0.000 A 
ATOM      3  C3  UNL     1      15.889   2.431   9.558  0.00  0.00    +0.000 A 
ATOM      4  C4  UNL     1      16.520   2.874   8.399  0.00  0.00    +0.000 A 
ATOM      5  C5  UNL     1      17.577   3.783   8.482  0.00  0.00    +0.000 A 
ATOM      6  C6  UNL     1      18.018   4.258   9.726  0.00  0.00    +0.000 A 
ENDROOT
BRANCH   6   7
ATOM      7  C7  UNL     1      19.167   5.251   9.791  0.00  0.00    +0.000 C 
ATOM      8  C8  UNL     1      20.481   4.637   9.268  0.00  0.00    +0.000 C 
ATOM      9  C9  UNL     1      21.573   5.655   9.087  0.00  0.00    +0.000 C 
ATOM     10  C10 UNL     1      21.350   6.978   9.088  0.00  0.00    +0.000 C 
ATOM     11  C11 UNL     1      19.985   7.582   9.237  0.00  0.00    +0.000 C 
ATOM     12  C12 UNL     1      18.852   6.566   9.055  0.00  0.00    +0.000 C 
ENDBRANCH   6   7
TORSDOF 1
ENDMDL
