MODEL 1
REMARK VINA RESULT:    -4.596      0.000      0.000
REMARK INTER + INTRA:          -5.002
REMARK INTER:                  -4.887
REMARK INTRA:                  -0.115
REMARK UNBOUND:                -0.138
REMARK  Name = /home/anacleto/Desktop/manuscript_Mpro/naturecomm/supplementary_file_S2/6-chemical-library/molecular_docking/3D_ligand_structure/1093.pdb
REMARK  1 active torsions:
REMARK  status: ('A' for Active; 'I' for Inactive)
REMARK    1  A    between atoms: N2_4  and  C5_8
REMARK                            x       y       z     vdW  Elec       q    Type
REMARK                         _______ _______ _______ _____ _____    ______ ____
ROOT
ATOM      1  N1  UNL     1      19.000   7.912  14.841  0.00  0.00    +0.000 N 
ATOM      2  C1  UNL     1      20.251   7.966  14.114  0.00  0.00    +0.000 C 
ATOM      3  C2  UNL     1      20.279   7.010  12.915  0.00  0.00    +0.000 C 
ATOM      4  N2  UNL     1      19.107   7.289  12.063  0.00  0.00    +0.000 N 
ATOM      5  C3  UNL     1      17.814   7.137  12.778  0.00  0.00    +0.000 C 
ATOM      6  C4  UNL     1      17.800   7.760  14.186  0.00  0.00    +0.000 C 
ATOM      7  O1  UNL     1      16.754   8.038  14.773  0.00  0.00    +0.000 OA
ATOM      8  H1  UNL     1      18.919   8.399  15.724  0.00  0.00    +0.000 HD
ENDROOT
BRANCH   4   9
ATOM      9  C5  UNL     1      19.193   6.826  10.742  0.00  0.00    +0.000 A 
ATOM     10  C6  UNL     1      18.841   5.522  10.355  0.00  0.00    +0.000 A 
ATOM     11  C7  UNL     1      18.928   5.100   9.022  0.00  0.00    +0.000 A 
ATOM     12  C8  UNL     1      19.355   5.979   8.035  0.00  0.00    +0.000 A 
ATOM     13  C9  UNL     1      19.686   7.283   8.381  0.00  0.00    +0.000 A 
ATOM     14  C10 UNL     1      19.599   7.697   9.715  0.00  0.00    +0.000 A 
ENDBRANCH   4   9
TORSDOF 1
ENDMDL
MODEL 2
REMARK VINA RESULT:    -4.463     14.678     16.612
REMARK INTER + INTRA:          -4.862
REMARK INTER:                  -4.749
REMARK INTRA:                  -0.113
REMARK UNBOUND:                -0.138
REMARK  Name = /home/anacleto/Desktop/manuscript_Mpro/naturecomm/supplementary_file_S2/6-chemical-library/molecular_docking/3D_ligand_structure/1093.pdb
REMARK  1 active torsions:
REMARK  status: ('A' for Active; 'I' for Inactive)
REMARK    1  A    between atoms: N2_4  and  C5_8
REMARK                            x       y       z     vdW  Elec       q    Type
REMARK                         _______ _______ _______ _____ _____    ______ ____
ROOT
ATOM      1  N1  UNL     1      17.218  12.142  -0.929  0.00  0.00    +0.000 N 
ATOM      2  C1  UNL     1      17.550  10.998  -1.753  0.00  0.00    +0.000 C 
ATOM      3  C2  UNL     1      16.405  10.590  -2.687  0.00  0.00    +0.000 C 
ATOM      4  N2  UNL     1      15.999  11.768  -3.477  0.00  0.00    +0.000 N 
ATOM      5  C3  UNL     1      15.560  12.913  -2.639  0.00  0.00    +0.000 C 
ATOM      6  C4  UNL     1      16.467  13.183  -1.424  0.00  0.00    +0.000 C 
ATOM      7  O1  UNL     1      16.471  14.263  -0.833  0.00  0.00    +0.000 OA
ATOM      8  H1  UNL     1      17.845  12.415  -0.184  0.00  0.00    +0.000 HD
ENDROOT
BRANCH   4   9
ATOM      9  C5  UNL     1      15.284  11.494  -4.653  0.00  0.00    +0.000 A 
ATOM     10  C6  UNL     1      14.043  10.836  -4.667  0.00  0.00    +0.000 A 
ATOM     11  C7  UNL     1      13.352  10.591  -5.861  0.00  0.00    +0.000 A 
ATOM     12  C8  UNL     1      13.879  11.015  -7.075  0.00  0.00    +0.000 A 
ATOM     13  C9  UNL     1      15.092  11.691  -7.092  0.00  0.00    +0.000 A 
ATOM     14  C10 UNL     1      15.778  11.929  -5.895  0.00  0.00    +0.000 A 
ENDBRANCH   4   9
TORSDOF 1
ENDMDL
MODEL 3
REMARK VINA RESULT:    -4.454     15.233     17.008
REMARK INTER + INTRA:          -4.852
REMARK INTER:                  -4.732
REMARK INTRA:                  -0.120
REMARK UNBOUND:                -0.138
REMARK  Name = /home/anacleto/Desktop/manuscript_Mpro/naturecomm/supplementary_file_S2/6-chemical-library/molecular_docking/3D_ligand_structure/1093.pdb
REMARK  1 active torsions:
REMARK  status: ('A' for Active; 'I' for Inactive)
REMARK    1  A    between atoms: N2_4  and  C5_8
REMARK                            x       y       z     vdW  Elec       q    Type
REMARK                         _______ _______ _______ _____ _____    ______ ____
ROOT
ATOM      1  N1  UNL     1      12.201  18.108  -1.965  0.00  0.00    +0.000 N 
ATOM      2  C1  UNL     1      11.980  16.929  -1.153  0.00  0.00    +0.000 C 
ATOM      3  C2  UNL     1      12.930  15.780  -1.510  0.00  0.00    +0.000 C 
ATOM      4  N2  UNL     1      14.318  16.276  -1.435  0.00  0.00    +0.000 N 
ATOM      5  C3  UNL     1      14.578  17.424  -2.341  0.00  0.00    +0.000 C 
ATOM      6  C4  UNL     1      13.468  18.491  -2.335  0.00  0.00    +0.000 C 
ATOM      7  O1  UNL     1      13.658  19.640  -2.735  0.00  0.00    +0.000 OA
ATOM      8  H1  UNL     1      11.546  18.878  -1.909  0.00  0.00    +0.000 HD
ENDROOT
BRANCH   4   9
ATOM      9  C5  UNL     1      15.309  15.292  -1.309  0.00  0.00    +0.000 A 
ATOM     10  C6  UNL     1      16.315  15.329  -0.329  0.00  0.00    +0.000 A 
ATOM     11  C7  UNL     1      17.281  14.320  -0.226  0.00  0.00    +0.000 A 
ATOM     12  C8  UNL     1      17.257  13.236  -1.094  0.00  0.00    +0.000 A 
ATOM     13  C9  UNL     1      16.260  13.157  -2.059  0.00  0.00    +0.000 A 
ATOM     14  C10 UNL     1      15.300  14.170  -2.156  0.00  0.00    +0.000 A 
ENDBRANCH   4   9
TORSDOF 1
ENDMDL
MODEL 4
REMARK VINA RESULT:    -4.376     14.511     16.111
REMARK INTER + INTRA:          -4.769
REMARK INTER:                  -4.636
REMARK INTRA:                  -0.133
REMARK UNBOUND:                -0.138
REMARK  Name = /home/anacleto/Desktop/manuscript_Mpro/naturecomm/supplementary_file_S2/6-chemical-library/molecular_docking/3D_ligand_structure/1093.pdb
REMARK  1 active torsions:
REMARK  status: ('A' for Active; 'I' for Inactive)
REMARK    1  A    between atoms: N2_4  and  C5_8
REMARK                            x       y       z     vdW  Elec       q    Type
REMARK                         _______ _______ _______ _____ _____    ______ ____
ROOT
ATOM      1  N1  UNL     1      13.471  15.094  -3.148  0.00  0.00    +0.000 N 
ATOM      2  C1  UNL     1      14.629  14.335  -3.571  0.00  0.00    +0.000 C 
ATOM      3  C2  UNL     1      15.940  14.890  -3.002  0.00  0.00    +0.000 C 
ATOM      4  N2  UNL     1      15.817  14.978  -1.534  0.00  0.00    +0.000 N 
ATOM      5  C3  UNL     1      14.689  15.838  -1.092  0.00  0.00    +0.000 C 
ATOM      6  C4  UNL     1      13.384  15.612  -1.877  0.00  0.00    +0.000 C 
ATOM      7  O1  UNL     1      12.286  15.962  -1.443  0.00  0.00    +0.000 OA
ATOM      8  H1  UNL     1      12.571  14.901  -3.568  0.00  0.00    +0.000 HD
ENDROOT
BRANCH   4   9
ATOM      9  C5  UNL     1      17.025  15.052  -0.826  0.00  0.00    +0.000 A 
ATOM     10  C6  UNL     1      17.387  16.150  -0.028  0.00  0.00    +0.000 A 
ATOM     11  C7  UNL     1      18.598  16.182   0.676  0.00  0.00    +0.000 A 
ATOM     12  C8  UNL     1      19.474  15.106   0.612  0.00  0.00    +0.000 A 
ATOM     13  C9  UNL     1      19.134  13.994  -0.148  0.00  0.00    +0.000 A 
ATOM     14  C10 UNL     1      17.923  13.971  -0.850  0.00  0.00    +0.000 A 
ENDBRANCH   4   9
TORSDOF 1
ENDMDL
MODEL 5
REMARK VINA RESULT:    -4.285      2.739      5.108
REMARK INTER + INTRA:          -4.673
REMARK INTER:                  -4.535
REMARK INTRA:                  -0.138
REMARK UNBOUND:                -0.138
REMARK  Name = /home/anacleto/Desktop/manuscript_Mpro/naturecomm/supplementary_file_S2/6-chemical-library/molecular_docking/3D_ligand_structure/1093.pdb
REMARK  1 active torsions:
REMARK  status: ('A' for Active; 'I' for Inactive)
REMARK    1  A    between atoms: N2_4  and  C5_8
REMARK                            x       y       z     vdW  Elec       q    Type
REMARK                         _______ _______ _______ _____ _____    ______ ____
ROOT
ATOM      1  N1  UNL     1      21.209   6.153   8.760  0.00  0.00    +0.000 N 
ATOM      2  C1  UNL     1      21.849   5.913  10.036  0.00  0.00    +0.000 C 
ATOM      3  C2  UNL     1      21.314   6.826  11.146  0.00  0.00    +0.000 C 
ATOM      4  N2  UNL     1      19.846   6.687  11.204  0.00  0.00    +0.000 N 
ATOM      5  C3  UNL     1      19.175   7.029   9.925  0.00  0.00    +0.000 C 
ATOM      6  C4  UNL     1      19.869   6.449   8.678  0.00  0.00    +0.000 C 
ATOM      7  O1  UNL     1      19.290   6.330   7.598  0.00  0.00    +0.000 OA
ATOM      8  H1  UNL     1      21.575   5.705   7.930  0.00  0.00    +0.000 HD
ENDROOT
BRANCH   4   9
ATOM      9  C5  UNL     1      19.243   7.100  12.401  0.00  0.00    +0.000 A 
ATOM     10  C6  UNL     1      19.935   7.770  13.424  0.00  0.00    +0.000 A 
ATOM     11  C7  UNL     1      19.295   8.180  14.601  0.00  0.00    +0.000 A 
ATOM     12  C8  UNL     1      17.938   7.943  14.780  0.00  0.00    +0.000 A 
ATOM     13  C9  UNL     1      17.220   7.305  13.776  0.00  0.00    +0.000 A 
ATOM     14  C10 UNL     1      17.867   6.897  12.604  0.00  0.00    +0.000 A 
ENDBRANCH   4   9
TORSDOF 1
ENDMDL
MODEL 6
REMARK VINA RESULT:    -4.271     16.747     18.885
REMARK INTER + INTRA:          -4.658
REMARK INTER:                  -4.518
REMARK INTRA:                  -0.140
REMARK UNBOUND:                -0.138
REMARK  Name = /home/anacleto/Desktop/manuscript_Mpro/naturecomm/supplementary_file_S2/6-chemical-library/molecular_docking/3D_ligand_structure/1093.pdb
REMARK  1 active torsions:
REMARK  status: ('A' for Active; 'I' for Inactive)
REMARK    1  A    between atoms: N2_4  and  C5_8
REMARK                            x       y       z     vdW  Elec       q    Type
REMARK                         _______ _______ _______ _____ _____    ______ ____
ROOT
ATOM      1  N1  UNL     1      14.267  10.602  -3.959  0.00  0.00    +0.000 N 
ATOM      2  C1  UNL     1      13.974  10.737  -5.371  0.00  0.00    +0.000 C 
ATOM      3  C2  UNL     1      14.144  12.174  -5.875  0.00  0.00    +0.000 C 
ATOM      4  N2  UNL     1      15.499  12.640  -5.523  0.00  0.00    +0.000 N 
ATOM      5  C3  UNL     1      15.771  12.599  -4.064  0.00  0.00    +0.000 C 
ATOM      6  C4  UNL     1      15.288  11.310  -3.373  0.00  0.00    +0.000 C 
ATOM      7  O1  UNL     1      15.721  10.949  -2.278  0.00  0.00    +0.000 OA
ATOM      8  H1  UNL     1      14.059   9.729  -3.491  0.00  0.00    +0.000 HD
ENDROOT
BRANCH   4   9
ATOM      9  C5  UNL     1      15.974  13.738  -6.256  0.00  0.00    +0.000 A 
ATOM     10  C6  UNL     1      16.545  14.875  -5.662  0.00  0.00    +0.000 A 
ATOM     11  C7  UNL     1      17.021  15.947  -6.428  0.00  0.00    +0.000 A 
ATOM     12  C8  UNL     1      16.953  15.902  -7.815  0.00  0.00    +0.000 A 
ATOM     13  C9  UNL     1      16.417  14.779  -8.435  0.00  0.00    +0.000 A 
ATOM     14  C10 UNL     1      15.941  13.714  -7.662  0.00  0.00    +0.000 A 
ENDBRANCH   4   9
TORSDOF 1
ENDMDL
MODEL 7
REMARK VINA RESULT:    -4.260     13.810     14.468
REMARK INTER + INTRA:          -4.647
REMARK INTER:                  -4.512
REMARK INTRA:                  -0.135
REMARK UNBOUND:                -0.138
REMARK  Name = /home/anacleto/Desktop/manuscript_Mpro/naturecomm/supplementary_file_S2/6-chemical-library/molecular_docking/3D_ligand_structure/1093.pdb
REMARK  1 active torsions:
REMARK  status: ('A' for Active; 'I' for Inactive)
REMARK    1  A    between atoms: N2_4  and  C5_8
REMARK                            x       y       z     vdW  Elec       q    Type
REMARK                         _______ _______ _______ _____ _____    ______ ____
ROOT
ATOM      1  N1  UNL     1      19.611  16.302   1.101  0.00  0.00    +0.000 N 
ATOM      2  C1  UNL     1      18.174  16.469   1.163  0.00  0.00    +0.000 C 
ATOM      3  C2  UNL     1      17.453  15.829  -0.029  0.00  0.00    +0.000 C 
ATOM      4  N2  UNL     1      17.863  14.415  -0.123  0.00  0.00    +0.000 N 
ATOM      5  C3  UNL     1      19.329  14.240  -0.288  0.00  0.00    +0.000 C 
ATOM      6  C4  UNL     1      20.174  15.138   0.634  0.00  0.00    +0.000 C 
ATOM      7  O1  UNL     1      21.354  14.895   0.889  0.00  0.00    +0.000 OA
ATOM      8  H1  UNL     1      20.196  16.798   1.762  0.00  0.00    +0.000 HD
ENDROOT
BRANCH   4   9
ATOM      9  C5  UNL     1      17.009  13.582  -0.861  0.00  0.00    +0.000 A 
ATOM     10  C6  UNL     1      16.994  12.183  -0.734  0.00  0.00    +0.000 A 
ATOM     11  C7  UNL     1      16.116  11.384  -1.479  0.00  0.00    +0.000 A 
ATOM     12  C8  UNL     1      15.216  11.968  -2.362  0.00  0.00    +0.000 A 
ATOM     13  C9  UNL     1      15.189  13.351  -2.493  0.00  0.00    +0.000 A 
ATOM     14  C10 UNL     1      16.071  14.141  -1.746  0.00  0.00    +0.000 A 
ENDBRANCH   4   9
TORSDOF 1
ENDMDL
MODEL 8
REMARK VINA RESULT:    -4.206     14.389     15.362
REMARK INTER + INTRA:          -4.590
REMARK INTER:                  -4.444
REMARK INTRA:                  -0.146
REMARK UNBOUND:                -0.138
REMARK  Name = /home/anacleto/Desktop/manuscript_Mpro/naturecomm/supplementary_file_S2/6-chemical-library/molecular_docking/3D_ligand_structure/1093.pdb
REMARK  1 active torsions:
REMARK  status: ('A' for Active; 'I' for Inactive)
REMARK    1  A    between atoms: N2_4  and  C5_8
REMARK                            x       y       z     vdW  Elec       q    Type
REMARK                         _______ _______ _______ _____ _____    ______ ____
ROOT
ATOM      1  N1  UNL     1      16.392  10.206  -3.704  0.00  0.00    +0.000 N 
ATOM      2  C1  UNL     1      17.551   9.938  -2.878  0.00  0.00    +0.000 C 
ATOM      3  C2  UNL     1      18.307  11.213  -2.489  0.00  0.00    +0.000 C 
ATOM      4  N2  UNL     1      17.358  12.151  -1.859  0.00  0.00    +0.000 N 
ATOM      5  C3  UNL     1      16.218  12.510  -2.741  0.00  0.00    +0.000 C 
ATOM      6  C4  UNL     1      15.603  11.311  -3.488  0.00  0.00    +0.000 C 
ATOM      7  O1  UNL     1      14.472  11.348  -3.972  0.00  0.00    +0.000 OA
ATOM      8  H1  UNL     1      15.897   9.433  -4.129  0.00  0.00    +0.000 HD
ENDROOT
BRANCH   4   9
ATOM      9  C5  UNL     1      17.933  13.161  -1.074  0.00  0.00    +0.000 A 
ATOM     10  C6  UNL     1      19.287  13.176  -0.703  0.00  0.00    +0.000 A 
ATOM     11  C7  UNL     1      19.828  14.210   0.073  0.00  0.00    +0.000 A 
ATOM     12  C8  UNL     1      19.028  15.268   0.485  0.00  0.00    +0.000 A 
ATOM     13  C9  UNL     1      17.690  15.296   0.113  0.00  0.00    +0.000 A 
ATOM     14  C10 UNL     1      17.157  14.259  -0.660  0.00  0.00    +0.000 A 
ENDBRANCH   4   9
TORSDOF 1
ENDMDL
MODEL 9
REMARK VINA RESULT:    -4.204      2.711      5.063
REMARK INTER + INTRA:          -4.588
REMARK INTER:                  -4.474
REMARK INTRA:                  -0.114
REMARK UNBOUND:                -0.138
REMARK  Name = /home/anacleto/Desktop/manuscript_Mpro/naturecomm/supplementary_file_S2/6-chemical-library/molecular_docking/3D_ligand_structure/1093.pdb
REMARK  1 active torsions:
REMARK  status: ('A' for Active; 'I' for Inactive)
REMARK    1  A    between atoms: N2_4  and  C5_8
REMARK                            x       y       z     vdW  Elec       q    Type
REMARK                         _______ _______ _______ _____ _____    ______ ____
ROOT
ATOM      1  N1  UNL     1      18.421   5.333   8.091  0.00  0.00    +0.000 N 
ATOM      2  C1  UNL     1      19.284   6.494   8.021  0.00  0.00    +0.000 C 
ATOM      3  C2  UNL     1      19.375   7.244   9.355  0.00  0.00    +0.000 C 
ATOM      4  N2  UNL     1      19.780   6.291  10.405  0.00  0.00    +0.000 N 
ATOM      5  C3  UNL     1      18.843   5.148  10.551  0.00  0.00    +0.000 C 
ATOM      6  C4  UNL     1      18.385   4.539   9.213  0.00  0.00    +0.000 C 
ATOM      7  O1  UNL     1      17.907   3.407   9.134  0.00  0.00    +0.000 OA
ATOM      8  H1  UNL     1      18.182   4.842   7.240  0.00  0.00    +0.000 HD
ENDROOT
BRANCH   4   9
ATOM      9  C5  UNL     1      20.318   6.861  11.569  0.00  0.00    +0.000 A 
ATOM     10  C6  UNL     1      19.531   7.401  12.600  0.00  0.00    +0.000 A 
ATOM     11  C7  UNL     1      20.105   7.950  13.754  0.00  0.00    +0.000 A 
ATOM     12  C8  UNL     1      21.485   7.958  13.915  0.00  0.00    +0.000 A 
ATOM     13  C9  UNL     1      22.290   7.409  12.924  0.00  0.00    +0.000 A 
ATOM     14  C10 UNL     1      21.709   6.865  11.773  0.00  0.00    +0.000 A 
ENDBRANCH   4   9
TORSDOF 1
ENDMDL
