MODEL 1
REMARK VINA RESULT:    -5.278      0.000      0.000
REMARK INTER + INTRA:          -6.614
REMARK INTER:                  -6.380
REMARK INTRA:                  -0.234
REMARK UNBOUND:                -0.410
REMARK  Name = /home/anacleto/Desktop/manuscript_Mpro/naturecomm/supplementary_file_S2/6-chemical-library/molecular_docking/3D_ligand_structure/606.pdb
REMARK  3 active torsions:
REMARK  status: ('A' for Active; 'I' for Inactive)
REMARK    1  A    between atoms: C4_5  and  N2_8
REMARK    2  A    between atoms: C6_9  and  C7_11
REMARK    3  A    between atoms: C7_11  and  C8_12
REMARK                            x       y       z     vdW  Elec       q    Type
REMARK                         _______ _______ _______ _____ _____    ______ ____
ROOT
ATOM      1  N2  UNL     1      17.965   4.272   8.525  0.00  0.00    +0.000 N 
ATOM      2  C6  UNL     1      16.910   3.454   8.869  0.00  0.00    +0.000 C 
ATOM      3  O2  UNL     1      16.701   3.088  10.024  0.00  0.00    +0.000 OA
ATOM      4  H9  UNL     1      17.883   4.769   7.641  0.00  0.00    +0.000 HD
ENDROOT
BRANCH   1   9
ATOM      5  N1  UNL     1      20.683   6.078   8.426  0.00  0.00    +0.000 N 
ATOM      6  C1  UNL     1      21.644   5.098   8.871  0.00  0.00    +0.000 C 
ATOM      7  C2  UNL     1      20.998   3.757   9.172  0.00  0.00    +0.000 C 
ATOM      8  C3  UNL     1      19.838   3.965  10.138  0.00  0.00    +0.000 C 
ATOM      9  C4  UNL     1      18.787   4.913   9.551  0.00  0.00    +0.000 C 
ATOM     10  C5  UNL     1      19.408   6.171   8.918  0.00  0.00    +0.000 C 
ATOM     11  O1  UNL     1      18.748   7.185   8.686  0.00  0.00    +0.000 OA
ATOM     12  H1  UNL     1      21.025   6.948   8.033  0.00  0.00    +0.000 HD
ENDBRANCH   1   9
BRANCH   2  13
ATOM     13  C7  UNL     1      16.064   2.955   7.708  0.00  0.00    +0.000 C 
BRANCH  13  14
ATOM     14  C8  UNL     1      15.361   1.643   7.963  0.00  0.00    +0.000 A 
ATOM     15  C9  UNL     1      14.055   1.621   8.473  0.00  0.00    +0.000 A 
ATOM     16  C10 UNL     1      13.415   0.407   8.722  0.00  0.00    +0.000 A 
ATOM     17  C11 UNL     1      14.071  -0.795   8.464  0.00  0.00    +0.000 A 
ATOM     18  C12 UNL     1      15.368  -0.785   7.953  0.00  0.00    +0.000 A 
ATOM     19  C13 UNL     1      16.009   0.428   7.700  0.00  0.00    +0.000 A 
ENDBRANCH  13  14
ENDBRANCH   2  13
TORSDOF 3
ENDMDL
MODEL 2
REMARK VINA RESULT:    -5.248      1.380      2.095
REMARK INTER + INTRA:          -6.579
REMARK INTER:                  -6.305
REMARK INTRA:                  -0.274
REMARK UNBOUND:                -0.410
REMARK  Name = /home/anacleto/Desktop/manuscript_Mpro/naturecomm/supplementary_file_S2/6-chemical-library/molecular_docking/3D_ligand_structure/606.pdb
REMARK  3 active torsions:
REMARK  status: ('A' for Active; 'I' for Inactive)
REMARK    1  A    between atoms: C4_5  and  N2_8
REMARK    2  A    between atoms: C6_9  and  C7_11
REMARK    3  A    between atoms: C7_11  and  C8_12
REMARK                            x       y       z     vdW  Elec       q    Type
REMARK                         _______ _______ _______ _____ _____    ______ ____
ROOT
ATOM      1  N2  UNL     1      18.031   4.246   8.723  0.00  0.00    +0.000 N 
ATOM      2  C6  UNL     1      17.318   3.070   8.825  0.00  0.00    +0.000 C 
ATOM      3  O2  UNL     1      17.705   2.112   9.492  0.00  0.00    +0.000 OA
ATOM      4  H9  UNL     1      17.509   5.067   8.428  0.00  0.00    +0.000 HD
ENDROOT
BRANCH   1   9
ATOM      5  N1  UNL     1      18.934   6.728  10.641  0.00  0.00    +0.000 N 
ATOM      6  C1  UNL     1      19.942   7.330   9.803  0.00  0.00    +0.000 C 
ATOM      7  C2  UNL     1      20.121   6.583   8.493  0.00  0.00    +0.000 C 
ATOM      8  C3  UNL     1      20.367   5.107   8.789  0.00  0.00    +0.000 C 
ATOM      9  C4  UNL     1      19.199   4.493   9.567  0.00  0.00    +0.000 C 
ATOM     10  C5  UNL     1      18.735   5.376  10.740  0.00  0.00    +0.000 C 
ATOM     11  O1  UNL     1      18.049   4.936  11.663  0.00  0.00    +0.000 OA
ATOM     12  H1  UNL     1      18.610   7.240  11.454  0.00  0.00    +0.000 HD
ENDBRANCH   1   9
BRANCH   2  13
ATOM     13  C7  UNL     1      16.056   2.995   7.979  0.00  0.00    +0.000 C 
BRANCH  13  14
ATOM     14  C8  UNL     1      15.317   1.681   8.070  0.00  0.00    +0.000 A 
ATOM     15  C9  UNL     1      15.803   0.542   7.412  0.00  0.00    +0.000 A 
ATOM     16  C10 UNL     1      15.109  -0.665   7.486  0.00  0.00    +0.000 A 
ATOM     17  C11 UNL     1      13.925  -0.748   8.216  0.00  0.00    +0.000 A 
ATOM     18  C12 UNL     1      13.436   0.376   8.879  0.00  0.00    +0.000 A 
ATOM     19  C13 UNL     1      14.130   1.585   8.809  0.00  0.00    +0.000 A 
ENDBRANCH  13  14
ENDBRANCH   2  13
TORSDOF 3
ENDMDL
MODEL 3
REMARK VINA RESULT:    -5.162     16.424     17.924
REMARK INTER + INTRA:          -6.478
REMARK INTER:                  -6.024
REMARK INTRA:                  -0.454
REMARK UNBOUND:                -0.410
REMARK  Name = /home/anacleto/Desktop/manuscript_Mpro/naturecomm/supplementary_file_S2/6-chemical-library/molecular_docking/3D_ligand_structure/606.pdb
REMARK  3 active torsions:
REMARK  status: ('A' for Active; 'I' for Inactive)
REMARK    1  A    between atoms: C4_5  and  N2_8
REMARK    2  A    between atoms: C6_9  and  C7_11
REMARK    3  A    between atoms: C7_11  and  C8_12
REMARK                            x       y       z     vdW  Elec       q    Type
REMARK                         _______ _______ _______ _____ _____    ______ ____
ROOT
ATOM      1  N2  UNL     1      16.731  10.859  -5.793  0.00  0.00    +0.000 N 
ATOM      2  C6  UNL     1      18.060  11.188  -5.634  0.00  0.00    +0.000 C 
ATOM      3  O2  UNL     1      18.432  12.302  -5.267  0.00  0.00    +0.000 OA
ATOM      4  H9  UNL     1      16.506   9.868  -5.787  0.00  0.00    +0.000 HD
ENDROOT
BRANCH   1   9
ATOM      5  N1  UNL     1      13.751  10.389  -4.545  0.00  0.00    +0.000 N 
ATOM      6  C1  UNL     1      12.949  10.711  -5.700  0.00  0.00    +0.000 C 
ATOM      7  C2  UNL     1      13.797  11.104  -6.896  0.00  0.00    +0.000 C 
ATOM      8  C3  UNL     1      14.759  12.214  -6.486  0.00  0.00    +0.000 C 
ATOM      9  C4  UNL     1      15.673  11.763  -5.342  0.00  0.00    +0.000 C 
ATOM     10  C5  UNL     1      14.908  11.044  -4.216  0.00  0.00    +0.000 C 
ATOM     11  O1  UNL     1      15.383  10.895  -3.090  0.00  0.00    +0.000 OA
ATOM     12  H1  UNL     1      13.302   9.948  -3.750  0.00  0.00    +0.000 HD
ENDBRANCH   1   9
BRANCH   2  13
ATOM     13  C7  UNL     1      19.053  10.106  -6.031  0.00  0.00    +0.000 C 
BRANCH  13  14
ATOM     14  C8  UNL     1      19.155   9.864  -7.518  0.00  0.00    +0.000 A 
ATOM     15  C9  UNL     1      19.306   8.564  -8.021  0.00  0.00    +0.000 A 
ATOM     16  C10 UNL     1      19.415   8.346  -9.395  0.00  0.00    +0.000 A 
ATOM     17  C11 UNL     1      19.375   9.423 -10.278  0.00  0.00    +0.000 A 
ATOM     18  C12 UNL     1      19.220  10.719  -9.790  0.00  0.00    +0.000 A 
ATOM     19  C13 UNL     1      19.107  10.939  -8.417  0.00  0.00    +0.000 A 
ENDBRANCH  13  14
ENDBRANCH   2  13
TORSDOF 3
ENDMDL
MODEL 4
REMARK VINA RESULT:    -5.055     14.861     16.210
REMARK INTER + INTRA:          -6.351
REMARK INTER:                  -5.986
REMARK INTRA:                  -0.365
REMARK UNBOUND:                -0.410
REMARK  Name = /home/anacleto/Desktop/manuscript_Mpro/naturecomm/supplementary_file_S2/6-chemical-library/molecular_docking/3D_ligand_structure/606.pdb
REMARK  3 active torsions:
REMARK  status: ('A' for Active; 'I' for Inactive)
REMARK    1  A    between atoms: C4_5  and  N2_8
REMARK    2  A    between atoms: C6_9  and  C7_11
REMARK    3  A    between atoms: C7_11  and  C8_12
REMARK                            x       y       z     vdW  Elec       q    Type
REMARK                         _______ _______ _______ _____ _____    ______ ____
ROOT
ATOM      1  N2  UNL     1      17.757  15.373  -1.039  0.00  0.00    +0.000 N 
ATOM      2  C6  UNL     1      16.701  14.602  -1.478  0.00  0.00    +0.000 C 
ATOM      3  O2  UNL     1      16.424  13.510  -0.985  0.00  0.00    +0.000 OA
ATOM      4  H9  UNL     1      17.723  16.362  -1.272  0.00  0.00    +0.000 HD
ENDROOT
BRANCH   1   9
ATOM      5  N1  UNL     1      20.145  16.827   0.647  0.00  0.00    +0.000 N 
ATOM      6  C1  UNL     1      21.262  16.007   0.244  0.00  0.00    +0.000 C 
ATOM      7  C2  UNL     1      20.849  14.905  -0.715  0.00  0.00    +0.000 C 
ATOM      8  C3  UNL     1      19.695  14.117  -0.105  0.00  0.00    +0.000 C 
ATOM      9  C4  UNL     1      18.491  15.021   0.177  0.00  0.00    +0.000 C 
ATOM     10  C5  UNL     1      18.884  16.339   0.869  0.00  0.00    +0.000 C 
ATOM     11  O1  UNL     1      18.064  17.041   1.460  0.00  0.00    +0.000 OA
ATOM     12  H1  UNL     1      20.332  17.692   1.142  0.00  0.00    +0.000 HD
ENDBRANCH   1   9
BRANCH   2  13
ATOM     13  C7  UNL     1      15.949  15.149  -2.681  0.00  0.00    +0.000 C 
BRANCH  13  14
ATOM     14  C8  UNL     1      14.669  15.876  -2.344  0.00  0.00    +0.000 A 
ATOM     15  C9  UNL     1      13.504  15.161  -2.032  0.00  0.00    +0.000 A 
ATOM     16  C10 UNL     1      12.319  15.836  -1.736  0.00  0.00    +0.000 A 
ATOM     17  C11 UNL     1      12.287  17.229  -1.747  0.00  0.00    +0.000 A 
ATOM     18  C12 UNL     1      13.441  17.950  -2.050  0.00  0.00    +0.000 A 
ATOM     19  C13 UNL     1      14.628  17.277  -2.344  0.00  0.00    +0.000 A 
ENDBRANCH  13  14
ENDBRANCH   2  13
TORSDOF 3
ENDMDL
MODEL 5
REMARK VINA RESULT:    -5.040     14.228     16.333
REMARK INTER + INTRA:          -6.334
REMARK INTER:                  -5.911
REMARK INTRA:                  -0.423
REMARK UNBOUND:                -0.410
REMARK  Name = /home/anacleto/Desktop/manuscript_Mpro/naturecomm/supplementary_file_S2/6-chemical-library/molecular_docking/3D_ligand_structure/606.pdb
REMARK  3 active torsions:
REMARK  status: ('A' for Active; 'I' for Inactive)
REMARK    1  A    between atoms: C4_5  and  N2_8
REMARK    2  A    between atoms: C6_9  and  C7_11
REMARK    3  A    between atoms: C7_11  and  C8_12
REMARK                            x       y       z     vdW  Elec       q    Type
REMARK                         _______ _______ _______ _____ _____    ______ ____
ROOT
ATOM      1  N2  UNL     1      16.385  12.135  -3.193  0.00  0.00    +0.000 N 
ATOM      2  C6  UNL     1      17.662  12.213  -2.678  0.00  0.00    +0.000 C 
ATOM      3  O2  UNL     1      18.665  12.258  -3.388  0.00  0.00    +0.000 OA
ATOM      4  H9  UNL     1      15.630  12.416  -2.573  0.00  0.00    +0.000 HD
ENDROOT
BRANCH   1   9
ATOM      5  N1  UNL     1      13.878  13.306  -4.926  0.00  0.00    +0.000 N 
ATOM      6  C1  UNL     1      13.312  12.068  -5.403  0.00  0.00    +0.000 C 
ATOM      7  C2  UNL     1      14.091  10.857  -4.921  0.00  0.00    +0.000 C 
ATOM      8  C3  UNL     1      15.564  11.036  -5.272  0.00  0.00    +0.000 C 
ATOM      9  C4  UNL     1      16.140  12.300  -4.625  0.00  0.00    +0.000 C 
ATOM     10  C5  UNL     1      15.224  13.526  -4.793  0.00  0.00    +0.000 C 
ATOM     11  O1  UNL     1      15.631  14.677  -4.639  0.00  0.00    +0.000 OA
ATOM     12  H1  UNL     1      13.343  14.159  -5.039  0.00  0.00    +0.000 HD
ENDBRANCH   1   9
BRANCH   2  13
ATOM     13  C7  UNL     1      17.760  12.149  -1.162  0.00  0.00    +0.000 C 
BRANCH  13  14
ATOM     14  C8  UNL     1      18.169  13.446  -0.504  0.00  0.00    +0.000 A 
ATOM     15  C9  UNL     1      17.233  14.471  -0.306  0.00  0.00    +0.000 A 
ATOM     16  C10 UNL     1      17.618  15.673   0.287  0.00  0.00    +0.000 A 
ATOM     17  C11 UNL     1      18.939  15.863   0.689  0.00  0.00    +0.000 A 
ATOM     18  C12 UNL     1      19.876  14.848   0.503  0.00  0.00    +0.000 A 
ATOM     19  C13 UNL     1      19.493  13.643  -0.088  0.00  0.00    +0.000 A 
ENDBRANCH  13  14
ENDBRANCH   2  13
TORSDOF 3
ENDMDL
MODEL 6
REMARK VINA RESULT:    -5.022     14.437     15.752
REMARK INTER + INTRA:          -6.313
REMARK INTER:                  -6.021
REMARK INTRA:                  -0.291
REMARK UNBOUND:                -0.410
REMARK  Name = /home/anacleto/Desktop/manuscript_Mpro/naturecomm/supplementary_file_S2/6-chemical-library/molecular_docking/3D_ligand_structure/606.pdb
REMARK  3 active torsions:
REMARK  status: ('A' for Active; 'I' for Inactive)
REMARK    1  A    between atoms: C4_5  and  N2_8
REMARK    2  A    between atoms: C6_9  and  C7_11
REMARK    3  A    between atoms: C7_11  and  C8_12
REMARK                            x       y       z     vdW  Elec       q    Type
REMARK                         _______ _______ _______ _____ _____    ______ ____
ROOT
ATOM      1  N2  UNL     1      16.379  13.844  -2.177  0.00  0.00    +0.000 N 
ATOM      2  C6  UNL     1      15.340  13.162  -2.775  0.00  0.00    +0.000 C 
ATOM      3  O2  UNL     1      14.932  12.078  -2.365  0.00  0.00    +0.000 OA
ATOM      4  H9  UNL     1      16.439  14.840  -2.373  0.00  0.00    +0.000 HD
ENDROOT
BRANCH   1   9
ATOM      5  N1  UNL     1      18.559  15.119  -0.108  0.00  0.00    +0.000 N 
ATOM      6  C1  UNL     1      19.693  14.276  -0.399  0.00  0.00    +0.000 C 
ATOM      7  C2  UNL     1      19.380  13.239  -1.463  0.00  0.00    +0.000 C 
ATOM      8  C3  UNL     1      18.128  12.469  -1.058  0.00  0.00    +0.000 C 
ATOM      9  C4  UNL     1      16.926  13.405  -0.894  0.00  0.00    +0.000 C 
ATOM     10  C5  UNL     1      17.265  14.672  -0.086  0.00  0.00    +0.000 C 
ATOM     11  O1  UNL     1      16.395  15.376   0.425  0.00  0.00    +0.000 OA
ATOM     12  H1  UNL     1      18.704  15.951   0.453  0.00  0.00    +0.000 HD
ENDBRANCH   1   9
BRANCH   2  13
ATOM     13  C7  UNL     1      14.785  13.797  -4.041  0.00  0.00    +0.000 C 
BRANCH  13  14
ATOM     14  C8  UNL     1      14.581  12.836  -5.188  0.00  0.00    +0.000 A 
ATOM     15  C9  UNL     1      13.387  12.110  -5.307  0.00  0.00    +0.000 A 
ATOM     16  C10 UNL     1      13.209  11.211  -6.358  0.00  0.00    +0.000 A 
ATOM     17  C11 UNL     1      14.219  11.028  -7.301  0.00  0.00    +0.000 A 
ATOM     18  C12 UNL     1      15.409  11.748  -7.195  0.00  0.00    +0.000 A 
ATOM     19  C13 UNL     1      15.588  12.650  -6.146  0.00  0.00    +0.000 A 
ENDBRANCH  13  14
ENDBRANCH   2  13
TORSDOF 3
ENDMDL
MODEL 7
REMARK VINA RESULT:    -4.979     15.145     16.460
REMARK INTER + INTRA:          -6.262
REMARK INTER:                  -5.857
REMARK INTRA:                  -0.405
REMARK UNBOUND:                -0.410
REMARK  Name = /home/anacleto/Desktop/manuscript_Mpro/naturecomm/supplementary_file_S2/6-chemical-library/molecular_docking/3D_ligand_structure/606.pdb
REMARK  3 active torsions:
REMARK  status: ('A' for Active; 'I' for Inactive)
REMARK    1  A    between atoms: C4_5  and  N2_8
REMARK    2  A    between atoms: C6_9  and  C7_11
REMARK    3  A    between atoms: C7_11  and  C8_12
REMARK                            x       y       z     vdW  Elec       q    Type
REMARK                         _______ _______ _______ _____ _____    ______ ____
ROOT
ATOM      1  N2  UNL     1      16.231  13.830  -2.785  0.00  0.00    +0.000 N 
ATOM      2  C6  UNL     1      16.142  12.459  -2.663  0.00  0.00    +0.000 C 
ATOM      3  O2  UNL     1      15.794  11.904  -1.623  0.00  0.00    +0.000 OA
ATOM      4  H9  UNL     1      16.215  14.202  -3.731  0.00  0.00    +0.000 HD
ENDROOT
BRANCH   1   9
ATOM      5  N1  UNL     1      14.874  16.799  -2.803  0.00  0.00    +0.000 N 
ATOM      6  C1  UNL     1      15.992  17.581  -2.333  0.00  0.00    +0.000 C 
ATOM      7  C2  UNL     1      17.214  16.725  -2.054  0.00  0.00    +0.000 C 
ATOM      8  C3  UNL     1      16.825  15.585  -1.120  0.00  0.00    +0.000 C 
ATOM      9  C4  UNL     1      15.725  14.712  -1.734  0.00  0.00    +0.000 C 
ATOM     10  C5  UNL     1      14.581  15.541  -2.347  0.00  0.00    +0.000 C 
ATOM     11  O1  UNL     1      13.477  15.054  -2.595  0.00  0.00    +0.000 OA
ATOM     12  H1  UNL     1      14.069  17.283  -3.185  0.00  0.00    +0.000 HD
ENDBRANCH   1   9
BRANCH   2  13
ATOM     13  C7  UNL     1      16.592  11.665  -3.880  0.00  0.00    +0.000 C 
BRANCH  13  14
ATOM     14  C8  UNL     1      15.504  11.404  -4.896  0.00  0.00    +0.000 A 
ATOM     15  C9  UNL     1      14.267  10.878  -4.497  0.00  0.00    +0.000 A 
ATOM     16  C10 UNL     1      13.271  10.624  -5.440  0.00  0.00    +0.000 A 
ATOM     17  C11 UNL     1      13.500  10.893  -6.788  0.00  0.00    +0.000 A 
ATOM     18  C12 UNL     1      14.725  11.421  -7.195  0.00  0.00    +0.000 A 
ATOM     19  C13 UNL     1      15.721  11.678  -6.253  0.00  0.00    +0.000 A 
ENDBRANCH  13  14
ENDBRANCH   2  13
TORSDOF 3
ENDMDL
MODEL 8
REMARK VINA RESULT:    -4.919      1.912      2.551
REMARK INTER + INTRA:          -6.192
REMARK INTER:                  -5.863
REMARK INTRA:                  -0.329
REMARK UNBOUND:                -0.410
REMARK  Name = /home/anacleto/Desktop/manuscript_Mpro/naturecomm/supplementary_file_S2/6-chemical-library/molecular_docking/3D_ligand_structure/606.pdb
REMARK  3 active torsions:
REMARK  status: ('A' for Active; 'I' for Inactive)
REMARK    1  A    between atoms: C4_5  and  N2_8
REMARK    2  A    between atoms: C6_9  and  C7_11
REMARK    3  A    between atoms: C7_11  and  C8_12
REMARK                            x       y       z     vdW  Elec       q    Type
REMARK                         _______ _______ _______ _____ _____    ______ ____
ROOT
ATOM      1  N2  UNL     1      18.373   4.853  10.419  0.00  0.00    +0.000 N 
ATOM      2  C6  UNL     1      18.083   3.578  10.857  0.00  0.00    +0.000 C 
ATOM      3  O2  UNL     1      18.926   2.685  10.910  0.00  0.00    +0.000 OA
ATOM      4  H9  UNL     1      17.726   5.586  10.698  0.00  0.00    +0.000 HD
ENDROOT
BRANCH   1   9
ATOM      5  N1  UNL     1      19.851   7.760  10.265  0.00  0.00    +0.000 N 
ATOM      6  C1  UNL     1      20.014   7.875   8.836  0.00  0.00    +0.000 C 
ATOM      7  C2  UNL     1      19.466   6.668   8.096  0.00  0.00    +0.000 C 
ATOM      8  C3  UNL     1      20.076   5.400   8.685  0.00  0.00    +0.000 C 
ATOM      9  C4  UNL     1      19.754   5.269  10.177  0.00  0.00    +0.000 C 
ATOM     10  C5  UNL     1      19.976   6.581  10.952  0.00  0.00    +0.000 C 
ATOM     11  O1  UNL     1      20.088   6.610  12.177  0.00  0.00    +0.000 OA
ATOM     12  H1  UNL     1      20.020   8.578  10.839  0.00  0.00    +0.000 HD
ENDBRANCH   1   9
BRANCH   2  13
ATOM     13  C7  UNL     1      16.621   3.318  11.187  0.00  0.00    +0.000 C 
BRANCH  13  14
ATOM     14  C8  UNL     1      15.854   2.593  10.107  0.00  0.00    +0.000 A 
ATOM     15  C9  UNL     1      14.657   1.927  10.407  0.00  0.00    +0.000 A 
ATOM     16  C10 UNL     1      13.959   1.245   9.410  0.00  0.00    +0.000 A 
ATOM     17  C11 UNL     1      14.449   1.222   8.105  0.00  0.00    +0.000 A 
ATOM     18  C12 UNL     1      15.635   1.885   7.795  0.00  0.00    +0.000 A 
ATOM     19  C13 UNL     1      16.333   2.570   8.790  0.00  0.00    +0.000 A 
ENDBRANCH  13  14
ENDBRANCH   2  13
TORSDOF 3
ENDMDL
MODEL 9
REMARK VINA RESULT:    -4.830     14.578     16.408
REMARK INTER + INTRA:          -6.087
REMARK INTER:                  -5.677
REMARK INTRA:                  -0.410
REMARK UNBOUND:                -0.410
REMARK  Name = /home/anacleto/Desktop/manuscript_Mpro/naturecomm/supplementary_file_S2/6-chemical-library/molecular_docking/3D_ligand_structure/606.pdb
REMARK  3 active torsions:
REMARK  status: ('A' for Active; 'I' for Inactive)
REMARK    1  A    between atoms: C4_5  and  N2_8
REMARK    2  A    between atoms: C6_9  and  C7_11
REMARK    3  A    between atoms: C7_11  and  C8_12
REMARK                            x       y       z     vdW  Elec       q    Type
REMARK                         _______ _______ _______ _____ _____    ______ ____
ROOT
ATOM      1  N2  UNL     1      15.320  12.265  -3.593  0.00  0.00    +0.000 N 
ATOM      2  C6  UNL     1      15.728  12.256  -2.276  0.00  0.00    +0.000 C 
ATOM      3  O2  UNL     1      15.796  11.227  -1.607  0.00  0.00    +0.000 OA
ATOM      4  H9  UNL     1      15.590  13.075  -4.145  0.00  0.00    +0.000 HD
ENDROOT
BRANCH   1   9
ATOM      5  N1  UNL     1      15.770  11.403  -6.710  0.00  0.00    +0.000 N 
ATOM      6  C1  UNL     1      14.399  11.380  -7.157  0.00  0.00    +0.000 C 
ATOM      7  C2  UNL     1      13.427  11.737  -6.047  0.00  0.00    +0.000 C 
ATOM      8  C3  UNL     1      13.696  10.846  -4.839  0.00  0.00    +0.000 C 
ATOM      9  C4  UNL     1      15.131  11.016  -4.330  0.00  0.00    +0.000 C 
ATOM     10  C5  UNL     1      16.171  10.995  -5.465  0.00  0.00    +0.000 C 
ATOM     11  O1  UNL     1      17.368  10.794  -5.256  0.00  0.00    +0.000 OA
ATOM     12  H1  UNL     1      16.508  11.353  -7.404  0.00  0.00    +0.000 HD
ENDBRANCH   1   9
BRANCH   2  13
ATOM     13  C7  UNL     1      16.006  13.623  -1.669  0.00  0.00    +0.000 C 
BRANCH  13  14
ATOM     14  C8  UNL     1      17.453  13.869  -1.314  0.00  0.00    +0.000 A 
ATOM     15  C9  UNL     1      18.482  13.338  -2.105  0.00  0.00    +0.000 A 
ATOM     16  C10 UNL     1      19.818  13.554  -1.765  0.00  0.00    +0.000 A 
ATOM     17  C11 UNL     1      20.138  14.302  -0.633  0.00  0.00    +0.000 A 
ATOM     18  C12 UNL     1      19.123  14.839   0.157  0.00  0.00    +0.000 A 
ATOM     19  C13 UNL     1      17.787  14.626  -0.183  0.00  0.00    +0.000 A 
ENDBRANCH  13  14
ENDBRANCH   2  13
TORSDOF 3
ENDMDL
