MODEL 1
REMARK VINA RESULT:    -5.436      0.000      0.000
REMARK INTER + INTRA:          -7.791
REMARK INTER:                  -7.450
REMARK INTRA:                  -0.340
REMARK UNBOUND:                -0.447
REMARK  Name = /home/anacleto/Desktop/manuscript_Mpro/naturecomm/supplementary_file_S2/6-chemical-library/molecular_docking/3D_ligand_structure/451.pdb
REMARK  6 active torsions:
REMARK  status: ('A' for Active; 'I' for Inactive)
REMARK    1  A    between atoms: C3_5  and  C4_6
REMARK    2  A    between atoms: N2_8  and  C5_9
REMARK    3  A    between atoms: C5_9  and  C6_10
REMARK    4  A    between atoms: N3_12  and  C7_13
REMARK    5  A    between atoms: C7_13  and  C8_14
REMARK    6  A    between atoms: C8_14  and  C9_15
REMARK                            x       y       z     vdW  Elec       q    Type
REMARK                         _______ _______ _______ _____ _____    ______ ____
ROOT
ATOM      1  C6  UNL     1     -24.935   4.502 -38.965  0.00  0.00    +0.000 C 
ATOM      2  O2  UNL     1     -25.129   5.138 -39.997  0.00  0.00    +0.000 OA
ATOM      3  N3  UNL     1     -24.183   4.964 -37.905  0.00  0.00    +0.000 N 
ATOM      4  H6  UNL     1     -23.838   4.266 -37.246  0.00  0.00    +0.000 HD
ENDROOT
BRANCH   1   5
ATOM      5  C5  UNL     1     -25.418   3.063 -38.790  0.00  0.00    +0.000 C 
BRANCH   5   8
ATOM      6  C4  UNL     1     -27.783   2.503 -39.204  0.00  0.00    +0.000 C 
ATOM      7  O1  UNL     1     -28.005   2.495 -37.994  0.00  0.00    +0.000 OA
ATOM      8  N2  UNL     1     -26.530   2.823 -39.688  0.00  0.00    +0.000 N 
ATOM      9  H3  UNL     1     -26.326   2.625 -40.660  0.00  0.00    +0.000 HD
BRANCH   6  14
ATOM     10  S1  UNL     1     -29.778   3.291 -40.991  0.00  0.00    +0.000 S 
ATOM     11  C1  UNL     1     -30.521   2.016 -41.862  0.00  0.00    +0.000 A 
ATOM     12  N1  UNL     1     -30.084   0.805 -41.601  0.00  0.00    +0.000 NA
ATOM     13  C2  UNL     1     -29.088   0.878 -40.645  0.00  0.00    +0.000 A 
ATOM     14  C3  UNL     1     -28.780   2.147 -40.190  0.00  0.00    +0.000 A 
ENDBRANCH   6  14
ENDBRANCH   5   8
ENDBRANCH   1   5
BRANCH   3  15
ATOM     15  C7  UNL     1     -23.503   6.244 -37.956  0.00  0.00    +0.000 C 
BRANCH  15  16
ATOM     16  C8  UNL     1     -21.981   6.087 -37.994  0.00  0.00    +0.000 C 
BRANCH  16  17
ATOM     17  C9  UNL     1     -21.285   7.424 -38.007  0.00  0.00    +0.000 A 
ATOM     18  C10 UNL     1     -21.877   8.534 -37.389  0.00  0.00    +0.000 A 
ATOM     19  C11 UNL     1     -21.223   9.767 -37.374  0.00  0.00    +0.000 A 
ATOM     20  C12 UNL     1     -19.973   9.901 -37.973  0.00  0.00    +0.000 A 
ATOM     21  C13 UNL     1     -19.371   8.801 -38.583  0.00  0.00    +0.000 A 
ATOM     22  C14 UNL     1     -20.023   7.566 -38.600  0.00  0.00    +0.000 A 
ENDBRANCH  16  17
ENDBRANCH  15  16
ENDBRANCH   3  15
TORSDOF 6
ENDMDL
MODEL 2
REMARK VINA RESULT:    -5.286      4.214      8.938
REMARK INTER + INTRA:          -7.587
REMARK INTER:                  -6.977
REMARK INTRA:                  -0.610
REMARK UNBOUND:                -0.447
REMARK  Name = /home/anacleto/Desktop/manuscript_Mpro/naturecomm/supplementary_file_S2/6-chemical-library/molecular_docking/3D_ligand_structure/451.pdb
REMARK  6 active torsions:
REMARK  status: ('A' for Active; 'I' for Inactive)
REMARK    1  A    between atoms: C3_5  and  C4_6
REMARK    2  A    between atoms: N2_8  and  C5_9
REMARK    3  A    between atoms: C5_9  and  C6_10
REMARK    4  A    between atoms: N3_12  and  C7_13
REMARK    5  A    between atoms: C7_13  and  C8_14
REMARK    6  A    between atoms: C8_14  and  C9_15
REMARK                            x       y       z     vdW  Elec       q    Type
REMARK                         _______ _______ _______ _____ _____    ______ ____
ROOT
ATOM      1  C6  UNL     1     -23.413   6.153 -38.646  0.00  0.00    +0.000 C 
ATOM      2  O2  UNL     1     -24.456   6.692 -38.285  0.00  0.00    +0.000 OA
ATOM      3  N3  UNL     1     -23.232   5.576 -39.885  0.00  0.00    +0.000 N 
ATOM      4  H6  UNL     1     -22.466   4.908 -39.974  0.00  0.00    +0.000 HD
ENDROOT
BRANCH   1   5
ATOM      5  C5  UNL     1     -22.225   5.962 -37.704  0.00  0.00    +0.000 C 
BRANCH   5   8
ATOM      6  C4  UNL     1     -20.612   7.814 -37.922  0.00  0.00    +0.000 C 
ATOM      7  O1  UNL     1     -21.170   8.422 -37.009  0.00  0.00    +0.000 OA
ATOM      8  N2  UNL     1     -21.046   6.559 -38.300  0.00  0.00    +0.000 N 
ATOM      9  H3  UNL     1     -20.706   6.176 -39.173  0.00  0.00    +0.000 HD
BRANCH   6  14
ATOM     10  S1  UNL     1     -18.856   9.930 -38.402  0.00  0.00    +0.000 S 
ATOM     11  C1  UNL     1     -17.725   9.667 -39.662  0.00  0.00    +0.000 A 
ATOM     12  N1  UNL     1     -17.800   8.507 -40.275  0.00  0.00    +0.000 NA
ATOM     13  C2  UNL     1     -18.821   7.763 -39.713  0.00  0.00    +0.000 A 
ATOM     14  C3  UNL     1     -19.512   8.368 -38.680  0.00  0.00    +0.000 A 
ENDBRANCH   6  14
ENDBRANCH   5   8
ENDBRANCH   1   5
BRANCH   3  15
ATOM     15  C7  UNL     1     -24.306   5.511 -40.857  0.00  0.00    +0.000 C 
BRANCH  15  16
ATOM     16  C8  UNL     1     -24.832   4.086 -41.041  0.00  0.00    +0.000 C 
BRANCH  16  17
ATOM     17  C9  UNL     1     -25.884   3.745 -40.016  0.00  0.00    +0.000 A 
ATOM     18  C10 UNL     1     -27.106   4.431 -40.004  0.00  0.00    +0.000 A 
ATOM     19  C11 UNL     1     -28.094   4.099 -39.075  0.00  0.00    +0.000 A 
ATOM     20  C12 UNL     1     -27.870   3.080 -38.152  0.00  0.00    +0.000 A 
ATOM     21  C13 UNL     1     -26.660   2.386 -38.160  0.00  0.00    +0.000 A 
ATOM     22  C14 UNL     1     -25.671   2.715 -39.089  0.00  0.00    +0.000 A 
ENDBRANCH  16  17
ENDBRANCH  15  16
ENDBRANCH   3  15
TORSDOF 6
ENDMDL
MODEL 3
REMARK VINA RESULT:    -5.232      4.890      9.984
REMARK INTER + INTRA:          -7.515
REMARK INTER:                  -7.164
REMARK INTRA:                  -0.351
REMARK UNBOUND:                -0.447
REMARK  Name = /home/anacleto/Desktop/manuscript_Mpro/naturecomm/supplementary_file_S2/6-chemical-library/molecular_docking/3D_ligand_structure/451.pdb
REMARK  6 active torsions:
REMARK  status: ('A' for Active; 'I' for Inactive)
REMARK    1  A    between atoms: C3_5  and  C4_6
REMARK    2  A    between atoms: N2_8  and  C5_9
REMARK    3  A    between atoms: C5_9  and  C6_10
REMARK    4  A    between atoms: N3_12  and  C7_13
REMARK    5  A    between atoms: C7_13  and  C8_14
REMARK    6  A    between atoms: C8_14  and  C9_15
REMARK                            x       y       z     vdW  Elec       q    Type
REMARK                         _______ _______ _______ _____ _____    ______ ____
ROOT
ATOM      1  C6  UNL     1     -21.900   7.041 -37.976  0.00  0.00    +0.000 C 
ATOM      2  O2  UNL     1     -21.104   6.419 -38.674  0.00  0.00    +0.000 OA
ATOM      3  N3  UNL     1     -23.205   6.649 -37.759  0.00  0.00    +0.000 N 
ATOM      4  H6  UNL     1     -23.851   7.365 -37.428  0.00  0.00    +0.000 HD
ENDROOT
BRANCH   1   5
ATOM      5  C5  UNL     1     -21.558   8.394 -37.355  0.00  0.00    +0.000 C 
BRANCH   5   8
ATOM      6  C4  UNL     1     -19.881   9.924 -38.315  0.00  0.00    +0.000 C 
ATOM      7  O1  UNL     1     -20.755  10.761 -38.539  0.00  0.00    +0.000 OA
ATOM      8  N2  UNL     1     -20.188   8.736 -37.685  0.00  0.00    +0.000 N 
ATOM      9  H3  UNL     1     -19.500   7.993 -37.699  0.00  0.00    +0.000 HD
BRANCH   6  14
ATOM     10  S1  UNL     1     -17.661  11.589 -38.621  0.00  0.00    +0.000 S 
ATOM     11  C1  UNL     1     -16.264  10.832 -39.261  0.00  0.00    +0.000 A 
ATOM     12  N1  UNL     1     -16.377   9.555 -39.547  0.00  0.00    +0.000 NA
ATOM     13  C2  UNL     1     -17.658   9.133 -39.239  0.00  0.00    +0.000 A 
ATOM     14  C3  UNL     1     -18.503  10.097 -38.723  0.00  0.00    +0.000 A 
ENDBRANCH   6  14
ENDBRANCH   5   8
ENDBRANCH   1   5
BRANCH   3  15
ATOM     15  C7  UNL     1     -23.762   5.476 -38.402  0.00  0.00    +0.000 C 
BRANCH  15  16
ATOM     16  C8  UNL     1     -25.135   5.754 -39.020  0.00  0.00    +0.000 C 
BRANCH  16  17
ATOM     17  C9  UNL     1     -26.102   4.629 -38.755  0.00  0.00    +0.000 A 
ATOM     18  C10 UNL     1     -27.477   4.821 -38.943  0.00  0.00    +0.000 A 
ATOM     19  C11 UNL     1     -28.374   3.773 -38.726  0.00  0.00    +0.000 A 
ATOM     20  C12 UNL     1     -27.904   2.526 -38.320  0.00  0.00    +0.000 A 
ATOM     21  C13 UNL     1     -26.537   2.322 -38.138  0.00  0.00    +0.000 A 
ATOM     22  C14 UNL     1     -25.638   3.367 -38.355  0.00  0.00    +0.000 A 
ENDBRANCH  16  17
ENDBRANCH  15  16
ENDBRANCH   3  15
TORSDOF 6
ENDMDL
MODEL 4
REMARK VINA RESULT:    -5.073      6.062      7.561
REMARK INTER + INTRA:          -7.299
REMARK INTER:                  -6.831
REMARK INTRA:                  -0.468
REMARK UNBOUND:                -0.447
REMARK  Name = /home/anacleto/Desktop/manuscript_Mpro/naturecomm/supplementary_file_S2/6-chemical-library/molecular_docking/3D_ligand_structure/451.pdb
REMARK  6 active torsions:
REMARK  status: ('A' for Active; 'I' for Inactive)
REMARK    1  A    between atoms: C3_5  and  C4_6
REMARK    2  A    between atoms: N2_8  and  C5_9
REMARK    3  A    between atoms: C5_9  and  C6_10
REMARK    4  A    between atoms: N3_12  and  C7_13
REMARK    5  A    between atoms: C7_13  and  C8_14
REMARK    6  A    between atoms: C8_14  and  C9_15
REMARK                            x       y       z     vdW  Elec       q    Type
REMARK                         _______ _______ _______ _____ _____    ______ ____
ROOT
ATOM      1  C6  UNL     1     -24.779   8.958 -37.791  0.00  0.00    +0.000 C 
ATOM      2  O2  UNL     1     -24.209   7.924 -38.129  0.00  0.00    +0.000 OA
ATOM      3  N3  UNL     1     -24.155  10.009 -37.152  0.00  0.00    +0.000 N 
ATOM      4  H6  UNL     1     -24.756  10.668 -36.656  0.00  0.00    +0.000 HD
ENDROOT
BRANCH   1   5
ATOM      5  C5  UNL     1     -26.288   9.145 -37.944  0.00  0.00    +0.000 C 
BRANCH   5   8
ATOM      6  C4  UNL     1     -27.978  10.581 -36.867  0.00  0.00    +0.000 C 
ATOM      7  O1  UNL     1     -28.814   9.682 -36.956  0.00  0.00    +0.000 OA
ATOM      8  N2  UNL     1     -26.681  10.380 -37.293  0.00  0.00    +0.000 N 
ATOM      9  H3  UNL     1     -26.079  11.187 -37.396  0.00  0.00    +0.000 HD
BRANCH   6  14
ATOM     10  S1  UNL     1     -29.496  12.203 -35.178  0.00  0.00    +0.000 S 
ATOM     11  C1  UNL     1     -29.126  13.875 -35.245  0.00  0.00    +0.000 A 
ATOM     12  N1  UNL     1     -28.175  14.224 -36.082  0.00  0.00    +0.000 NA
ATOM     13  C2  UNL     1     -27.696  13.095 -36.721  0.00  0.00    +0.000 A 
ATOM     14  C3  UNL     1     -28.290  11.900 -36.361  0.00  0.00    +0.000 A 
ENDBRANCH   6  14
ENDBRANCH   5   8
ENDBRANCH   1   5
BRANCH   3  15
ATOM     15  C7  UNL     1     -22.758   9.944 -36.772  0.00  0.00    +0.000 C 
BRANCH  15  16
ATOM     16  C8  UNL     1     -21.845  10.597 -37.813  0.00  0.00    +0.000 C 
BRANCH  16  17
ATOM     17  C9  UNL     1     -20.693   9.698 -38.183  0.00  0.00    +0.000 A 
ATOM     18  C10 UNL     1     -20.919   8.347 -38.480  0.00  0.00    +0.000 A 
ATOM     19  C11 UNL     1     -19.858   7.518 -38.850  0.00  0.00    +0.000 A 
ATOM     20  C12 UNL     1     -18.566   8.031 -38.930  0.00  0.00    +0.000 A 
ATOM     21  C13 UNL     1     -18.332   9.377 -38.645  0.00  0.00    +0.000 A 
ATOM     22  C14 UNL     1     -19.390  10.208 -38.275  0.00  0.00    +0.000 A 
ENDBRANCH  16  17
ENDBRANCH  15  16
ENDBRANCH   3  15
TORSDOF 6
ENDMDL
MODEL 5
REMARK VINA RESULT:    -4.952      4.257      8.518
REMARK INTER + INTRA:          -7.136
REMARK INTER:                  -6.573
REMARK INTRA:                  -0.563
REMARK UNBOUND:                -0.447
REMARK  Name = /home/anacleto/Desktop/manuscript_Mpro/naturecomm/supplementary_file_S2/6-chemical-library/molecular_docking/3D_ligand_structure/451.pdb
REMARK  6 active torsions:
REMARK  status: ('A' for Active; 'I' for Inactive)
REMARK    1  A    between atoms: C3_5  and  C4_6
REMARK    2  A    between atoms: N2_8  and  C5_9
REMARK    3  A    between atoms: C5_9  and  C6_10
REMARK    4  A    between atoms: N3_12  and  C7_13
REMARK    5  A    between atoms: C7_13  and  C8_14
REMARK    6  A    between atoms: C8_14  and  C9_15
REMARK                            x       y       z     vdW  Elec       q    Type
REMARK                         _______ _______ _______ _____ _____    ______ ____
ROOT
ATOM      1  C6  UNL     1     -27.584   9.541 -38.675  0.00  0.00    +0.000 C 
ATOM      2  O2  UNL     1     -28.413   9.857 -39.525  0.00  0.00    +0.000 OA
ATOM      3  N3  UNL     1     -27.359   8.244 -38.263  0.00  0.00    +0.000 N 
ATOM      4  H6  UNL     1     -26.887   8.121 -37.367  0.00  0.00    +0.000 HD
ENDROOT
BRANCH   1   5
ATOM      5  C5  UNL     1     -26.783  10.578 -37.890  0.00  0.00    +0.000 C 
BRANCH   5   8
ATOM      6  C4  UNL     1     -24.363  10.224 -38.198  0.00  0.00    +0.000 C 
ATOM      7  O1  UNL     1     -24.360  10.998 -39.154  0.00  0.00    +0.000 OA
ATOM      8  N2  UNL     1     -25.520   9.994 -37.482  0.00  0.00    +0.000 N 
ATOM      9  H3  UNL     1     -25.541   9.211 -36.841  0.00  0.00    +0.000 HD
BRANCH   6  14
ATOM     10  S1  UNL     1     -22.686   8.017 -38.524  0.00  0.00    +0.000 S 
ATOM     11  C1  UNL     1     -21.359   7.943 -37.442  0.00  0.00    +0.000 A 
ATOM     12  N1  UNL     1     -21.267   8.922 -36.571  0.00  0.00    +0.000 NA
ATOM     13  C2  UNL     1     -22.316   9.802 -36.766  0.00  0.00    +0.000 A 
ATOM     14  C3  UNL     1     -23.194   9.479 -37.783  0.00  0.00    +0.000 A 
ENDBRANCH   6  14
ENDBRANCH   5   8
ENDBRANCH   1   5
BRANCH   3  15
ATOM     15  C7  UNL     1     -28.143   7.137 -38.776  0.00  0.00    +0.000 C 
BRANCH  15  16
ATOM     16  C8  UNL     1     -27.324   6.226 -39.694  0.00  0.00    +0.000 C 
BRANCH  16  17
ATOM     17  C9  UNL     1     -27.104   4.869 -39.077  0.00  0.00    +0.000 A 
ATOM     18  C10 UNL     1     -28.197   4.046 -38.772  0.00  0.00    +0.000 A 
ATOM     19  C11 UNL     1     -27.997   2.777 -38.227  0.00  0.00    +0.000 A 
ATOM     20  C12 UNL     1     -26.704   2.318 -37.984  0.00  0.00    +0.000 A 
ATOM     21  C13 UNL     1     -25.609   3.125 -38.292  0.00  0.00    +0.000 A 
ATOM     22  C14 UNL     1     -25.807   4.395 -38.838  0.00  0.00    +0.000 A 
ENDBRANCH  16  17
ENDBRANCH  15  16
ENDBRANCH   3  15
TORSDOF 6
ENDMDL
MODEL 6
REMARK VINA RESULT:    -4.943     19.791     20.849
REMARK INTER + INTRA:          -7.124
REMARK INTER:                  -6.755
REMARK INTRA:                  -0.368
REMARK UNBOUND:                -0.447
REMARK  Name = /home/anacleto/Desktop/manuscript_Mpro/naturecomm/supplementary_file_S2/6-chemical-library/molecular_docking/3D_ligand_structure/451.pdb
REMARK  6 active torsions:
REMARK  status: ('A' for Active; 'I' for Inactive)
REMARK    1  A    between atoms: C3_5  and  C4_6
REMARK    2  A    between atoms: N2_8  and  C5_9
REMARK    3  A    between atoms: C5_9  and  C6_10
REMARK    4  A    between atoms: N3_12  and  C7_13
REMARK    5  A    between atoms: C7_13  and  C8_14
REMARK    6  A    between atoms: C8_14  and  C9_15
REMARK                            x       y       z     vdW  Elec       q    Type
REMARK                         _______ _______ _______ _____ _____    ______ ____
ROOT
ATOM      1  C6  UNL     1     -16.716  -8.004 -25.108  0.00  0.00    +0.000 C 
ATOM      2  O2  UNL     1     -17.358  -8.934 -25.587  0.00  0.00    +0.000 OA
ATOM      3  N3  UNL     1     -15.584  -8.166 -24.336  0.00  0.00    +0.000 N 
ATOM      4  H6  UNL     1     -15.309  -7.376 -23.751  0.00  0.00    +0.000 HD
ENDROOT
BRANCH   1   5
ATOM      5  C5  UNL     1     -17.173  -6.550 -25.222  0.00  0.00    +0.000 C 
BRANCH   5   8
ATOM      6  C4  UNL     1     -18.607  -5.207 -26.711  0.00  0.00    +0.000 C 
ATOM      7  O1  UNL     1     -18.180  -4.169 -26.205  0.00  0.00    +0.000 OA
ATOM      8  N2  UNL     1     -18.123  -6.436 -26.312  0.00  0.00    +0.000 N 
ATOM      9  H3  UNL     1     -18.630  -7.266 -26.593  0.00  0.00    +0.000 HD
BRANCH   6  14
ATOM     10  S1  UNL     1     -21.230  -4.599 -27.447  0.00  0.00    +0.000 S 
ATOM     11  C1  UNL     1     -21.657  -5.033 -29.048  0.00  0.00    +0.000 A 
ATOM     12  N1  UNL     1     -20.717  -5.608 -29.763  0.00  0.00    +0.000 NA
ATOM     13  C2  UNL     1     -19.570  -5.717 -28.999  0.00  0.00    +0.000 A 
ATOM     14  C3  UNL     1     -19.653  -5.223 -27.711  0.00  0.00    +0.000 A 
ENDBRANCH   6  14
ENDBRANCH   5   8
ENDBRANCH   1   5
BRANCH   3  15
ATOM     15  C7  UNL     1     -15.090  -9.481 -23.978  0.00  0.00    +0.000 C 
BRANCH  15  16
ATOM     16  C8  UNL     1     -13.645  -9.698 -24.432  0.00  0.00    +0.000 C 
BRANCH  16  17
ATOM     17  C9  UNL     1     -12.663  -9.046 -23.492  0.00  0.00    +0.000 A 
ATOM     18  C10 UNL     1     -12.775  -9.240 -22.109  0.00  0.00    +0.000 A 
ATOM     19  C11 UNL     1     -11.852  -8.661 -21.236  0.00  0.00    +0.000 A 
ATOM     20  C12 UNL     1     -10.809  -7.886 -21.738  0.00  0.00    +0.000 A 
ATOM     21  C13 UNL     1     -10.683  -7.694 -23.114  0.00  0.00    +0.000 A 
ATOM     22  C14 UNL     1     -11.605  -8.272 -23.988  0.00  0.00    +0.000 A 
ENDBRANCH  16  17
ENDBRANCH  15  16
ENDBRANCH   3  15
TORSDOF 6
ENDMDL
MODEL 7
REMARK VINA RESULT:    -4.935     14.734     16.464
REMARK INTER + INTRA:          -7.113
REMARK INTER:                  -6.597
REMARK INTRA:                  -0.516
REMARK UNBOUND:                -0.447
REMARK  Name = /home/anacleto/Desktop/manuscript_Mpro/naturecomm/supplementary_file_S2/6-chemical-library/molecular_docking/3D_ligand_structure/451.pdb
REMARK  6 active torsions:
REMARK  status: ('A' for Active; 'I' for Inactive)
REMARK    1  A    between atoms: C3_5  and  C4_6
REMARK    2  A    between atoms: N2_8  and  C5_9
REMARK    3  A    between atoms: C5_9  and  C6_10
REMARK    4  A    between atoms: N3_12  and  C7_13
REMARK    5  A    between atoms: C7_13  and  C8_14
REMARK    6  A    between atoms: C8_14  and  C9_15
REMARK                            x       y       z     vdW  Elec       q    Type
REMARK                         _______ _______ _______ _____ _____    ______ ____
ROOT
ATOM      1  C6  UNL     1     -38.454  -2.239 -34.202  0.00  0.00    +0.000 C 
ATOM      2  O2  UNL     1     -39.489  -1.578 -34.185  0.00  0.00    +0.000 OA
ATOM      3  N3  UNL     1     -38.097  -3.137 -33.218  0.00  0.00    +0.000 N 
ATOM      4  H6  UNL     1     -37.112  -3.399 -33.168  0.00  0.00    +0.000 HD
ENDROOT
BRANCH   1   5
ATOM      5  C5  UNL     1     -37.381  -2.049 -35.273  0.00  0.00    +0.000 C 
BRANCH   5   8
ATOM      6  C4  UNL     1     -35.628  -3.494 -36.231  0.00  0.00    +0.000 C 
ATOM      7  O1  UNL     1     -34.860  -2.535 -36.301  0.00  0.00    +0.000 OA
ATOM      8  N2  UNL     1     -36.888  -3.349 -35.687  0.00  0.00    +0.000 N 
ATOM      9  H3  UNL     1     -37.561  -4.092 -35.827  0.00  0.00    +0.000 HD
BRANCH   6  14
ATOM     10  S1  UNL     1     -34.578  -5.082 -38.272  0.00  0.00    +0.000 S 
ATOM     11  C1  UNL     1     -34.580  -6.767 -37.959  0.00  0.00    +0.000 A 
ATOM     12  N1  UNL     1     -35.076  -7.141 -36.801  0.00  0.00    +0.000 NA
ATOM     13  C2  UNL     1     -35.486  -6.021 -36.101  0.00  0.00    +0.000 A 
ATOM     14  C3  UNL     1     -35.296  -4.808 -36.737  0.00  0.00    +0.000 A 
ENDBRANCH   6  14
ENDBRANCH   5   8
ENDBRANCH   1   5
BRANCH   3  15
ATOM     15  C7  UNL     1     -38.911  -3.330 -32.034  0.00  0.00    +0.000 C 
BRANCH  15  16
ATOM     16  C8  UNL     1     -38.090  -3.226 -30.746  0.00  0.00    +0.000 C 
BRANCH  16  17
ATOM     17  C9  UNL     1     -38.130  -1.833 -30.173  0.00  0.00    +0.000 A 
ATOM     18  C10 UNL     1     -37.071  -1.364 -29.383  0.00  0.00    +0.000 A 
ATOM     19  C11 UNL     1     -37.091  -0.065 -28.874  0.00  0.00    +0.000 A 
ATOM     20  C12 UNL     1     -38.165   0.777 -29.150  0.00  0.00    +0.000 A 
ATOM     21  C13 UNL     1     -39.220   0.324 -29.942  0.00  0.00    +0.000 A 
ATOM     22  C14 UNL     1     -39.203  -0.975 -30.453  0.00  0.00    +0.000 A 
ENDBRANCH  16  17
ENDBRANCH  15  16
ENDBRANCH   3  15
TORSDOF 6
ENDMDL
MODEL 8
REMARK VINA RESULT:    -4.826     16.169     16.949
REMARK INTER + INTRA:          -6.966
REMARK INTER:                  -6.519
REMARK INTRA:                  -0.447
REMARK UNBOUND:                -0.447
REMARK  Name = /home/anacleto/Desktop/manuscript_Mpro/naturecomm/supplementary_file_S2/6-chemical-library/molecular_docking/3D_ligand_structure/451.pdb
REMARK  6 active torsions:
REMARK  status: ('A' for Active; 'I' for Inactive)
REMARK    1  A    between atoms: C3_5  and  C4_6
REMARK    2  A    between atoms: N2_8  and  C5_9
REMARK    3  A    between atoms: C5_9  and  C6_10
REMARK    4  A    between atoms: N3_12  and  C7_13
REMARK    5  A    between atoms: C7_13  and  C8_14
REMARK    6  A    between atoms: C8_14  and  C9_15
REMARK                            x       y       z     vdW  Elec       q    Type
REMARK                         _______ _______ _______ _____ _____    ______ ____
ROOT
ATOM      1  C6  UNL     1     -22.332  -5.280 -26.669  0.00  0.00    +0.000 C 
ATOM      2  O2  UNL     1     -22.531  -4.314 -27.401  0.00  0.00    +0.000 OA
ATOM      3  N3  UNL     1     -21.526  -6.348 -27.005  0.00  0.00    +0.000 N 
ATOM      4  H6  UNL     1     -21.665  -7.212 -26.479  0.00  0.00    +0.000 HD
ENDROOT
BRANCH   1   5
ATOM      5  C5  UNL     1     -23.056  -5.457 -25.336  0.00  0.00    +0.000 C 
BRANCH   5   8
ATOM      6  C4  UNL     1     -25.425  -4.811 -25.558  0.00  0.00    +0.000 C 
ATOM      7  O1  UNL     1     -25.130  -3.628 -25.395  0.00  0.00    +0.000 OA
ATOM      8  N2  UNL     1     -24.446  -5.783 -25.590  0.00  0.00    +0.000 N 
ATOM      9  H3  UNL     1     -24.729  -6.753 -25.521  0.00  0.00    +0.000 HD
BRANCH   6  14
ATOM     10  S1  UNL     1     -27.533  -6.364 -24.590  0.00  0.00    +0.000 S 
ATOM     11  C1  UNL     1     -28.980  -6.280 -25.503  0.00  0.00    +0.000 A 
ATOM     12  N1  UNL     1     -28.952  -5.503 -26.563  0.00  0.00    +0.000 NA
ATOM     13  C2  UNL     1     -27.700  -4.926 -26.668  0.00  0.00    +0.000 A 
ATOM     14  C3  UNL     1     -26.791  -5.272 -25.686  0.00  0.00    +0.000 A 
ENDBRANCH   6  14
ENDBRANCH   5   8
ENDBRANCH   1   5
BRANCH   3  15
ATOM     15  C7  UNL     1     -20.885  -6.439 -28.302  0.00  0.00    +0.000 C 
BRANCH  15  16
ATOM     16  C8  UNL     1     -19.384  -6.710 -28.185  0.00  0.00    +0.000 C 
BRANCH  16  17
ATOM     17  C9  UNL     1     -18.731  -5.799 -27.177  0.00  0.00    +0.000 A 
ATOM     18  C10 UNL     1     -18.004  -6.337 -26.107  0.00  0.00    +0.000 A 
ATOM     19  C11 UNL     1     -17.375  -5.497 -25.186  0.00  0.00    +0.000 A 
ATOM     20  C12 UNL     1     -17.464  -4.114 -25.329  0.00  0.00    +0.000 A 
ATOM     21  C13 UNL     1     -18.178  -3.569 -26.396  0.00  0.00    +0.000 A 
ATOM     22  C14 UNL     1     -18.808  -4.406 -27.317  0.00  0.00    +0.000 A 
ENDBRANCH  16  17
ENDBRANCH  15  16
ENDBRANCH   3  15
TORSDOF 6
ENDMDL
MODEL 9
REMARK VINA RESULT:    -4.724      4.707      9.408
REMARK INTER + INTRA:          -6.828
REMARK INTER:                  -6.443
REMARK INTRA:                  -0.385
REMARK UNBOUND:                -0.447
REMARK  Name = /home/anacleto/Desktop/manuscript_Mpro/naturecomm/supplementary_file_S2/6-chemical-library/molecular_docking/3D_ligand_structure/451.pdb
REMARK  6 active torsions:
REMARK  status: ('A' for Active; 'I' for Inactive)
REMARK    1  A    between atoms: C3_5  and  C4_6
REMARK    2  A    between atoms: N2_8  and  C5_9
REMARK    3  A    between atoms: C5_9  and  C6_10
REMARK    4  A    between atoms: N3_12  and  C7_13
REMARK    5  A    between atoms: C7_13  and  C8_14
REMARK    6  A    between atoms: C8_14  and  C9_15
REMARK                            x       y       z     vdW  Elec       q    Type
REMARK                         _______ _______ _______ _____ _____    ______ ____
ROOT
ATOM      1  C6  UNL     1     -24.254   8.755 -38.502  0.00  0.00    +0.000 C 
ATOM      2  O2  UNL     1     -24.947   8.674 -37.492  0.00  0.00    +0.000 OA
ATOM      3  N3  UNL     1     -23.949   7.684 -39.316  0.00  0.00    +0.000 N 
ATOM      4  H6  UNL     1     -23.145   7.790 -39.934  0.00  0.00    +0.000 HD
ENDROOT
BRANCH   1   5
ATOM      5  C5  UNL     1     -23.551  10.050 -38.908  0.00  0.00    +0.000 C 
BRANCH   5   8
ATOM      6  C4  UNL     1     -21.218   9.923 -38.123  0.00  0.00    +0.000 C 
ATOM      7  O1  UNL     1     -21.574  10.212 -36.981  0.00  0.00    +0.000 OA
ATOM      8  N2  UNL     1     -22.145   9.776 -39.134  0.00  0.00    +0.000 N 
ATOM      9  H3  UNL     1     -21.812   9.741 -40.089  0.00  0.00    +0.000 HD
BRANCH   6  14
ATOM     10  S1  UNL     1     -18.747  11.071 -38.732  0.00  0.00    +0.000 S 
ATOM     11  C1  UNL     1     -17.496   9.959 -39.098  0.00  0.00    +0.000 A 
ATOM     12  N1  UNL     1     -17.823   8.687 -39.060  0.00  0.00    +0.000 NA
ATOM     13  C2  UNL     1     -19.158   8.572 -38.716  0.00  0.00    +0.000 A 
ATOM     14  C3  UNL     1     -19.829   9.760 -38.496  0.00  0.00    +0.000 A 
ENDBRANCH   6  14
ENDBRANCH   5   8
ENDBRANCH   1   5
BRANCH   3  15
ATOM     15  C7  UNL     1     -24.389   6.340 -38.999  0.00  0.00    +0.000 C 
BRANCH  15  16
ATOM     16  C8  UNL     1     -25.835   6.088 -39.435  0.00  0.00    +0.000 C 
BRANCH  16  17
ATOM     17  C9  UNL     1     -26.320   4.731 -38.992  0.00  0.00    +0.000 A 
ATOM     18  C10 UNL     1     -25.403   3.710 -38.711  0.00  0.00    +0.000 A 
ATOM     19  C11 UNL     1     -25.847   2.461 -38.273  0.00  0.00    +0.000 A 
ATOM     20  C12 UNL     1     -27.210   2.223 -38.110  0.00  0.00    +0.000 A 
ATOM     21  C13 UNL     1     -28.131   3.235 -38.379  0.00  0.00    +0.000 A 
ATOM     22  C14 UNL     1     -27.689   4.485 -38.817  0.00  0.00    +0.000 A 
ENDBRANCH  16  17
ENDBRANCH  15  16
ENDBRANCH   3  15
TORSDOF 6
ENDMDL
