MODEL 1
REMARK VINA RESULT:    -2.729      0.000      0.000
REMARK INTER + INTRA:          -2.729
REMARK INTER:                  -2.729
REMARK INTRA:                   0.000
REMARK UNBOUND:                 0.000
REMARK  Name = /home/anacleto/Desktop/manuscript_Mpro/naturecomm/supplementary_file_S2/6-chemical-library/molecular_docking/3D_ligand_structure/118.pdb
REMARK  0 active torsions:
REMARK  status: ('A' for Active; 'I' for Inactive)
REMARK                            x       y       z     vdW  Elec       q    Type
REMARK                         _______ _______ _______ _____ _____    ______ ____
ROOT
ATOM      1  C1  UNL     1      14.376  12.396  -4.554  0.00  0.00    +0.000 A 
ATOM      2  C2  UNL     1      14.602  11.075  -4.283  0.00  0.00    +0.000 A 
ATOM      3  N1  UNL     1      13.678  10.366  -5.018  0.00  0.00    +0.000 N 
ATOM      4  C3  UNL     1      12.901  11.196  -5.722  0.00  0.00    +0.000 A 
ATOM      5  N2  UNL     1      13.323  12.432  -5.442  0.00  0.00    +0.000 N 
ATOM      6  H3  UNL     1      13.590   9.351  -5.031  0.00  0.00    +0.000 HD
ATOM      7  H5  UNL     1      12.915  13.279  -5.836  0.00  0.00    +0.000 HD
ENDROOT
TORSDOF 0
ENDMDL
MODEL 2
REMARK VINA RESULT:    -2.485     19.386     19.773
REMARK INTER + INTRA:          -2.485
REMARK INTER:                  -2.485
REMARK INTRA:                   0.000
REMARK UNBOUND:                 0.000
REMARK  Name = /home/anacleto/Desktop/manuscript_Mpro/naturecomm/supplementary_file_S2/6-chemical-library/molecular_docking/3D_ligand_structure/118.pdb
REMARK  0 active torsions:
REMARK  status: ('A' for Active; 'I' for Inactive)
REMARK                            x       y       z     vdW  Elec       q    Type
REMARK                         _______ _______ _______ _____ _____    ______ ____
ROOT
ATOM      1  C1  UNL     1      22.417  16.632  12.812  0.00  0.00    +0.000 A 
ATOM      2  C2  UNL     1      22.890  15.389  13.126  0.00  0.00    +0.000 A 
ATOM      3  N1  UNL     1      23.195  14.778  11.929  0.00  0.00    +0.000 N 
ATOM      4  C3  UNL     1      22.929  15.594  10.904  0.00  0.00    +0.000 A 
ATOM      5  N2  UNL     1      22.456  16.724  11.438  0.00  0.00    +0.000 N 
ATOM      6  H3  UNL     1      23.572  13.836  11.829  0.00  0.00    +0.000 HD
ATOM      7  H5  UNL     1      22.165  17.535  10.895  0.00  0.00    +0.000 HD
ENDROOT
TORSDOF 0
ENDMDL
MODEL 3
REMARK VINA RESULT:    -2.434     15.179     15.736
REMARK INTER + INTRA:          -2.434
REMARK INTER:                  -2.434
REMARK INTRA:                   0.000
REMARK UNBOUND:                 0.000
REMARK  Name = /home/anacleto/Desktop/manuscript_Mpro/naturecomm/supplementary_file_S2/6-chemical-library/molecular_docking/3D_ligand_structure/118.pdb
REMARK  0 active torsions:
REMARK  status: ('A' for Active; 'I' for Inactive)
REMARK                            x       y       z     vdW  Elec       q    Type
REMARK                         _______ _______ _______ _____ _____    ______ ____
ROOT
ATOM      1  C1  UNL     1      20.491   5.715   8.668  0.00  0.00    +0.000 A 
ATOM      2  C2  UNL     1      19.223   5.813   8.167  0.00  0.00    +0.000 A 
ATOM      3  N1  UNL     1      18.887   7.148   8.225  0.00  0.00    +0.000 N 
ATOM      4  C3  UNL     1      19.893   7.864   8.737  0.00  0.00    +0.000 A 
ATOM      5  N2  UNL     1      20.871   6.995   9.008  0.00  0.00    +0.000 N 
ATOM      6  H3  UNL     1      17.999   7.544   7.921  0.00  0.00    +0.000 HD
ATOM      7  H5  UNL     1      21.771   7.253   9.411  0.00  0.00    +0.000 HD
ENDROOT
TORSDOF 0
ENDMDL
MODEL 4
REMARK VINA RESULT:    -2.301     18.914     19.373
REMARK INTER + INTRA:          -2.301
REMARK INTER:                  -2.301
REMARK INTRA:                   0.000
REMARK UNBOUND:                 0.000
REMARK  Name = /home/anacleto/Desktop/manuscript_Mpro/naturecomm/supplementary_file_S2/6-chemical-library/molecular_docking/3D_ligand_structure/118.pdb
REMARK  0 active torsions:
REMARK  status: ('A' for Active; 'I' for Inactive)
REMARK                            x       y       z     vdW  Elec       q    Type
REMARK                         _______ _______ _______ _____ _____    ______ ____
ROOT
ATOM      1  C1  UNL     1      24.767  15.112  11.346  0.00  0.00    +0.000 A 
ATOM      2  C2  UNL     1      24.499  16.029  10.368  0.00  0.00    +0.000 A 
ATOM      3  N1  UNL     1      23.132  16.201  10.363  0.00  0.00    +0.000 N 
ATOM      4  C3  UNL     1      22.558  15.430  11.293  0.00  0.00    +0.000 A 
ATOM      5  N2  UNL     1      23.550  14.766  11.893  0.00  0.00    +0.000 N 
ATOM      6  H3  UNL     1      22.620  16.825   9.742  0.00  0.00    +0.000 HD
ATOM      7  H5  UNL     1      23.416  14.097  12.650  0.00  0.00    +0.000 HD
ENDROOT
TORSDOF 0
ENDMDL
MODEL 5
REMARK VINA RESULT:    -2.293     16.049     16.788
REMARK INTER + INTRA:          -2.293
REMARK INTER:                  -2.293
REMARK INTRA:                   0.000
REMARK UNBOUND:                 0.000
REMARK  Name = /home/anacleto/Desktop/manuscript_Mpro/naturecomm/supplementary_file_S2/6-chemical-library/molecular_docking/3D_ligand_structure/118.pdb
REMARK  0 active torsions:
REMARK  status: ('A' for Active; 'I' for Inactive)
REMARK                            x       y       z     vdW  Elec       q    Type
REMARK                         _______ _______ _______ _____ _____    ______ ____
ROOT
ATOM      1  C1  UNL     1      20.019   6.419  10.473  0.00  0.00    +0.000 A 
ATOM      2  C2  UNL     1      21.307   6.874  10.433  0.00  0.00    +0.000 A 
ATOM      3  N1  UNL     1      21.357   7.803   9.417  0.00  0.00    +0.000 N 
ATOM      4  C3  UNL     1      20.159   7.932   8.838  0.00  0.00    +0.000 A 
ATOM      5  N2  UNL     1      19.341   7.091   9.479  0.00  0.00    +0.000 N 
ATOM      6  H3  UNL     1      22.187   8.325   9.138  0.00  0.00    +0.000 HD
ATOM      7  H5  UNL     1      18.355   6.970   9.255  0.00  0.00    +0.000 HD
ENDROOT
TORSDOF 0
ENDMDL
MODEL 6
REMARK VINA RESULT:    -2.286     18.856     19.233
REMARK INTER + INTRA:          -2.286
REMARK INTER:                  -2.286
REMARK INTRA:                   0.000
REMARK UNBOUND:                 0.000
REMARK  Name = /home/anacleto/Desktop/manuscript_Mpro/naturecomm/supplementary_file_S2/6-chemical-library/molecular_docking/3D_ligand_structure/118.pdb
REMARK  0 active torsions:
REMARK  status: ('A' for Active; 'I' for Inactive)
REMARK                            x       y       z     vdW  Elec       q    Type
REMARK                         _______ _______ _______ _____ _____    ______ ____
ROOT
ATOM      1  C1  UNL     1      24.398  16.454  10.061  0.00  0.00    +0.000 A 
ATOM      2  C2  UNL     1      24.607  15.523  11.039  0.00  0.00    +0.000 A 
ATOM      3  N1  UNL     1      25.480  14.596  10.512  0.00  0.00    +0.000 N 
ATOM      4  C3  UNL     1      25.810  14.923   9.258  0.00  0.00    +0.000 A 
ATOM      5  N2  UNL     1      25.154  16.054   8.980  0.00  0.00    +0.000 N 
ATOM      6  H3  UNL     1      25.831  13.774  11.000  0.00  0.00    +0.000 HD
ATOM      7  H5  UNL     1      25.210  16.544   8.089  0.00  0.00    +0.000 HD
ENDROOT
TORSDOF 0
ENDMDL
MODEL 7
REMARK VINA RESULT:    -2.240     19.538     19.912
REMARK INTER + INTRA:          -2.240
REMARK INTER:                  -2.240
REMARK INTRA:                   0.000
REMARK UNBOUND:                 0.000
REMARK  Name = /home/anacleto/Desktop/manuscript_Mpro/naturecomm/supplementary_file_S2/6-chemical-library/molecular_docking/3D_ligand_structure/118.pdb
REMARK  0 active torsions:
REMARK  status: ('A' for Active; 'I' for Inactive)
REMARK                            x       y       z     vdW  Elec       q    Type
REMARK                         _______ _______ _______ _____ _____    ______ ____
ROOT
ATOM      1  C1  UNL     1      23.799  15.456  10.804  0.00  0.00    +0.000 A 
ATOM      2  C2  UNL     1      22.591  15.666  11.407  0.00  0.00    +0.000 A 
ATOM      3  N1  UNL     1      22.674  15.084  12.653  0.00  0.00    +0.000 N 
ATOM      4  C3  UNL     1      23.878  14.530  12.833  0.00  0.00    +0.000 A 
ATOM      5  N2  UNL     1      24.566  14.754  11.709  0.00  0.00    +0.000 N 
ATOM      6  H3  UNL     1      21.929  15.072  13.347  0.00  0.00    +0.000 HD
ATOM      7  H5  UNL     1      25.524  14.445  11.553  0.00  0.00    +0.000 HD
ENDROOT
TORSDOF 0
ENDMDL
MODEL 8
REMARK VINA RESULT:    -2.231     17.691     18.443
REMARK INTER + INTRA:          -2.231
REMARK INTER:                  -2.231
REMARK INTRA:                   0.000
REMARK UNBOUND:                 0.000
REMARK  Name = /home/anacleto/Desktop/manuscript_Mpro/naturecomm/supplementary_file_S2/6-chemical-library/molecular_docking/3D_ligand_structure/118.pdb
REMARK  0 active torsions:
REMARK  status: ('A' for Active; 'I' for Inactive)
REMARK                            x       y       z     vdW  Elec       q    Type
REMARK                         _______ _______ _______ _____ _____    ______ ____
ROOT
ATOM      1  C1  UNL     1      12.405   0.888   9.984  0.00  0.00    +0.000 A 
ATOM      2  C2  UNL     1      13.092   0.954   8.805  0.00  0.00    +0.000 A 
ATOM      3  N1  UNL     1      13.139  -0.332   8.312  0.00  0.00    +0.000 N 
ATOM      4  C3  UNL     1      12.511  -1.175   9.138  0.00  0.00    +0.000 A 
ATOM      5  N2  UNL     1      12.062  -0.436  10.157  0.00  0.00    +0.000 N 
ATOM      6  H3  UNL     1      13.586  -0.612   7.440  0.00  0.00    +0.000 HD
ATOM      7  H5  UNL     1      11.541  -0.809  10.949  0.00  0.00    +0.000 HD
ENDROOT
TORSDOF 0
ENDMDL
MODEL 9
REMARK VINA RESULT:    -2.134      2.632      3.105
REMARK INTER + INTRA:          -2.134
REMARK INTER:                  -2.134
REMARK INTRA:                   0.000
REMARK UNBOUND:                 0.000
REMARK  Name = /home/anacleto/Desktop/manuscript_Mpro/naturecomm/supplementary_file_S2/6-chemical-library/molecular_docking/3D_ligand_structure/118.pdb
REMARK  0 active torsions:
REMARK  status: ('A' for Active; 'I' for Inactive)
REMARK                            x       y       z     vdW  Elec       q    Type
REMARK                         _______ _______ _______ _____ _____    ______ ____
ROOT
ATOM      1  C1  UNL     1      14.521  13.275  -4.694  0.00  0.00    +0.000 A 
ATOM      2  C2  UNL     1      14.971  12.538  -3.635  0.00  0.00    +0.000 A 
ATOM      3  N1  UNL     1      14.869  13.351  -2.527  0.00  0.00    +0.000 N 
ATOM      4  C3  UNL     1      14.379  14.548  -2.866  0.00  0.00    +0.000 A 
ATOM      5  N2  UNL     1      14.165  14.505  -4.185  0.00  0.00    +0.000 N 
ATOM      6  H3  UNL     1      15.129  13.087  -1.578  0.00  0.00    +0.000 HD
ATOM      7  H5  UNL     1      13.792  15.281  -4.730  0.00  0.00    +0.000 HD
ENDROOT
TORSDOF 0
ENDMDL
