MODEL 1
REMARK VINA RESULT:    -4.063      0.000      0.000
REMARK INTER + INTRA:          -5.162
REMARK INTER:                  -4.957
REMARK INTRA:                  -0.206
REMARK UNBOUND:                -0.386
REMARK  Name = /home/anacleto/Desktop/manuscript_Mpro/naturecomm/supplementary_file_S2/6-chemical-library/molecular_docking/3D_ligand_structure/1305.pdb
REMARK  3 active torsions:
REMARK  status: ('A' for Active; 'I' for Inactive)
REMARK    1  A    between atoms: C3_3  and  C4_4
REMARK    2  A    between atoms: C4_4  and  O1_5
REMARK    3  A    between atoms: O1_5  and  C5_6
REMARK                            x       y       z     vdW  Elec       q    Type
REMARK                         _______ _______ _______ _____ _____    ______ ____
ROOT
ATOM      1  C5  UNL     1      19.284   5.515   8.690  0.00  0.00    +0.000 A 
ATOM      2  C6  UNL     1      18.981   6.877   8.635  0.00  0.00    +0.000 A 
ATOM      3  C7  UNL     1      19.966   7.836   8.877  0.00  0.00    +0.000 A 
ATOM      4  C8  UNL     1      21.265   7.436   9.176  0.00  0.00    +0.000 A 
ATOM      5  C9  UNL     1      21.576   6.079   9.232  0.00  0.00    +0.000 A 
ATOM      6  C10 UNL     1      20.589   5.118   8.989  0.00  0.00    +0.000 A 
ENDROOT
BRANCH   1   7
ATOM      7  O1  UNL     1      18.228   4.685   8.432  0.00  0.00    +0.000 OA
BRANCH   7   8
ATOM      8  C4  UNL     1      17.961   3.659   9.385  0.00  0.00    +0.000 C 
BRANCH   8  11
ATOM      9  C1  UNL     1      16.466   1.664   8.605  0.00  0.00    +0.000 C 
ATOM     10  C2  UNL     1      16.195   2.802   7.660  0.00  0.00    +0.000 C 
ATOM     11  C3  UNL     1      16.608   3.087   9.081  0.00  0.00    +0.000 C 
ENDBRANCH   8  11
ENDBRANCH   7   8
ENDBRANCH   1   7
TORSDOF 3
ENDMDL
MODEL 2
REMARK VINA RESULT:    -4.011      3.354      4.679
REMARK INTER + INTRA:          -5.100
REMARK INTER:                  -4.718
REMARK INTRA:                  -0.382
REMARK UNBOUND:                -0.386
REMARK  Name = /home/anacleto/Desktop/manuscript_Mpro/naturecomm/supplementary_file_S2/6-chemical-library/molecular_docking/3D_ligand_structure/1305.pdb
REMARK  3 active torsions:
REMARK  status: ('A' for Active; 'I' for Inactive)
REMARK    1  A    between atoms: C3_3  and  C4_4
REMARK    2  A    between atoms: C4_4  and  O1_5
REMARK    3  A    between atoms: O1_5  and  C5_6
REMARK                            x       y       z     vdW  Elec       q    Type
REMARK                         _______ _______ _______ _____ _____    ______ ____
ROOT
ATOM      1  C5  UNL     1      19.631   6.524  10.710  0.00  0.00    +0.000 A 
ATOM      2  C6  UNL     1      19.174   5.301  10.215  0.00  0.00    +0.000 A 
ATOM      3  C7  UNL     1      18.929   5.130   8.852  0.00  0.00    +0.000 A 
ATOM      4  C8  UNL     1      19.141   6.188   7.972  0.00  0.00    +0.000 A 
ATOM      5  C9  UNL     1      19.598   7.412   8.457  0.00  0.00    +0.000 A 
ATOM      6  C10 UNL     1      19.843   7.582   9.824  0.00  0.00    +0.000 A 
ENDROOT
BRANCH   1   7
ATOM      7  O1  UNL     1      19.831   6.553  12.063  0.00  0.00    +0.000 OA
BRANCH   7   8
ATOM      8  C4  UNL     1      19.361   7.703  12.764  0.00  0.00    +0.000 C 
BRANCH   8  11
ATOM      9  C1  UNL     1      17.173   7.708  14.190  0.00  0.00    +0.000 C 
ATOM     10  C2  UNL     1      17.208   6.395  13.457  0.00  0.00    +0.000 C 
ATOM     11  C3  UNL     1      17.867   7.610  12.855  0.00  0.00    +0.000 C 
ENDBRANCH   8  11
ENDBRANCH   7   8
ENDBRANCH   1   7
TORSDOF 3
ENDMDL
MODEL 3
REMARK VINA RESULT:    -3.825     14.192     15.417
REMARK INTER + INTRA:          -4.882
REMARK INTER:                  -4.622
REMARK INTRA:                  -0.260
REMARK UNBOUND:                -0.386
REMARK  Name = /home/anacleto/Desktop/manuscript_Mpro/naturecomm/supplementary_file_S2/6-chemical-library/molecular_docking/3D_ligand_structure/1305.pdb
REMARK  3 active torsions:
REMARK  status: ('A' for Active; 'I' for Inactive)
REMARK    1  A    between atoms: C3_3  and  C4_4
REMARK    2  A    between atoms: C4_4  and  O1_5
REMARK    3  A    between atoms: O1_5  and  C5_6
REMARK                            x       y       z     vdW  Elec       q    Type
REMARK                         _______ _______ _______ _____ _____    ______ ____
ROOT
ATOM      1  C5  UNL     1      14.987  10.906  -4.557  0.00  0.00    +0.000 A 
ATOM      2  C6  UNL     1      15.933  11.360  -5.478  0.00  0.00    +0.000 A 
ATOM      3  C7  UNL     1      15.581  11.578  -6.812  0.00  0.00    +0.000 A 
ATOM      4  C8  UNL     1      14.275  11.343  -7.231  0.00  0.00    +0.000 A 
ATOM      5  C9  UNL     1      13.325  10.892  -6.318  0.00  0.00    +0.000 A 
ATOM      6  C10 UNL     1      13.678  10.673  -4.982  0.00  0.00    +0.000 A 
ENDROOT
BRANCH   1   7
ATOM      7  O1  UNL     1      15.465  10.736  -3.286  0.00  0.00    +0.000 OA
BRANCH   7   8
ATOM      8  C4  UNL     1      15.280  11.815  -2.373  0.00  0.00    +0.000 C 
BRANCH   8  11
ATOM      9  C1  UNL     1      17.188  12.694  -0.821  0.00  0.00    +0.000 C 
ATOM     10  C2  UNL     1      17.696  11.429  -1.457  0.00  0.00    +0.000 C 
ATOM     11  C3  UNL     1      16.219  11.611  -1.221  0.00  0.00    +0.000 C 
ENDBRANCH   8  11
ENDBRANCH   7   8
ENDBRANCH   1   7
TORSDOF 3
ENDMDL
MODEL 4
REMARK VINA RESULT:    -3.810      3.517      4.717
REMARK INTER + INTRA:          -4.865
REMARK INTER:                  -4.495
REMARK INTRA:                  -0.370
REMARK UNBOUND:                -0.386
REMARK  Name = /home/anacleto/Desktop/manuscript_Mpro/naturecomm/supplementary_file_S2/6-chemical-library/molecular_docking/3D_ligand_structure/1305.pdb
REMARK  3 active torsions:
REMARK  status: ('A' for Active; 'I' for Inactive)
REMARK    1  A    between atoms: C3_3  and  C4_4
REMARK    2  A    between atoms: C4_4  and  O1_5
REMARK    3  A    between atoms: O1_5  and  C5_6
REMARK                            x       y       z     vdW  Elec       q    Type
REMARK                         _______ _______ _______ _____ _____    ______ ____
ROOT
ATOM      1  C5  UNL     1      20.071   7.032  12.068  0.00  0.00    +0.000 A 
ATOM      2  C6  UNL     1      18.693   7.027  11.845  0.00  0.00    +0.000 A 
ATOM      3  C7  UNL     1      17.810   7.464  12.834  0.00  0.00    +0.000 A 
ATOM      4  C8  UNL     1      18.304   7.911  14.056  0.00  0.00    +0.000 A 
ATOM      5  C9  UNL     1      19.678   7.921  14.286  0.00  0.00    +0.000 A 
ATOM      6  C10 UNL     1      20.563   7.483  13.294  0.00  0.00    +0.000 A 
ENDROOT
BRANCH   1   7
ATOM      7  O1  UNL     1      20.820   6.579  11.016  0.00  0.00    +0.000 OA
BRANCH   7   8
ATOM      8  C4  UNL     1      20.704   7.287   9.784  0.00  0.00    +0.000 C 
BRANCH   8  11
ATOM      9  C1  UNL     1      19.194   6.183   7.961  0.00  0.00    +0.000 C 
ATOM     10  C2  UNL     1      19.617   5.083   8.895  0.00  0.00    +0.000 C 
ATOM     11  C3  UNL     1      20.510   6.280   8.689  0.00  0.00    +0.000 C 
ENDBRANCH   8  11
ENDBRANCH   7   8
ENDBRANCH   1   7
TORSDOF 3
ENDMDL
MODEL 5
REMARK VINA RESULT:    -3.604     15.214     16.522
REMARK INTER + INTRA:          -4.623
REMARK INTER:                  -4.338
REMARK INTRA:                  -0.285
REMARK UNBOUND:                -0.386
REMARK  Name = /home/anacleto/Desktop/manuscript_Mpro/naturecomm/supplementary_file_S2/6-chemical-library/molecular_docking/3D_ligand_structure/1305.pdb
REMARK  3 active torsions:
REMARK  status: ('A' for Active; 'I' for Inactive)
REMARK    1  A    between atoms: C3_3  and  C4_4
REMARK    2  A    between atoms: C4_4  and  O1_5
REMARK    3  A    between atoms: O1_5  and  C5_6
REMARK                            x       y       z     vdW  Elec       q    Type
REMARK                         _______ _______ _______ _____ _____    ______ ____
ROOT
ATOM      1  C5  UNL     1      15.060  12.349  -4.627  0.00  0.00    +0.000 A 
ATOM      2  C6  UNL     1      15.186  12.795  -5.945  0.00  0.00    +0.000 A 
ATOM      3  C7  UNL     1      14.554  12.117  -6.989  0.00  0.00    +0.000 A 
ATOM      4  C8  UNL     1      13.789  10.986  -6.719  0.00  0.00    +0.000 A 
ATOM      5  C9  UNL     1      13.656  10.536  -5.407  0.00  0.00    +0.000 A 
ATOM      6  C10 UNL     1      14.290  11.216  -4.361  0.00  0.00    +0.000 A 
ENDROOT
BRANCH   1   7
ATOM      7  O1  UNL     1      15.728  13.105  -3.704  0.00  0.00    +0.000 OA
BRANCH   7   8
ATOM      8  C4  UNL     1      15.007  13.492  -2.536  0.00  0.00    +0.000 C 
BRANCH   8  11
ATOM      9  C1  UNL     1      14.508  15.825  -1.473  0.00  0.00    +0.000 C 
ATOM     10  C2  UNL     1      13.275  15.426  -2.237  0.00  0.00    +0.000 C 
ATOM     11  C3  UNL     1      14.628  14.936  -2.685  0.00  0.00    +0.000 C 
ENDBRANCH   8  11
ENDBRANCH   7   8
ENDBRANCH   1   7
TORSDOF 3
ENDMDL
MODEL 6
REMARK VINA RESULT:    -3.535      1.352      5.648
REMARK INTER + INTRA:          -4.541
REMARK INTER:                  -4.300
REMARK INTRA:                  -0.241
REMARK UNBOUND:                -0.386
REMARK  Name = /home/anacleto/Desktop/manuscript_Mpro/naturecomm/supplementary_file_S2/6-chemical-library/molecular_docking/3D_ligand_structure/1305.pdb
REMARK  3 active torsions:
REMARK  status: ('A' for Active; 'I' for Inactive)
REMARK    1  A    between atoms: C3_3  and  C4_4
REMARK    2  A    between atoms: C4_4  and  O1_5
REMARK    3  A    between atoms: O1_5  and  C5_6
REMARK                            x       y       z     vdW  Elec       q    Type
REMARK                         _______ _______ _______ _____ _____    ______ ____
ROOT
ATOM      1  C5  UNL     1      16.512   3.099   9.299  0.00  0.00    +0.000 A 
ATOM      2  C6  UNL     1      15.404   2.846  10.111  0.00  0.00    +0.000 A 
ATOM      3  C7  UNL     1      14.403   1.966   9.696  0.00  0.00    +0.000 A 
ATOM      4  C8  UNL     1      14.507   1.330   8.461  0.00  0.00    +0.000 A 
ATOM      5  C9  UNL     1      15.610   1.576   7.646  0.00  0.00    +0.000 A 
ATOM      6  C10 UNL     1      16.612   2.459   8.063  0.00  0.00    +0.000 A 
ENDROOT
BRANCH   1   7
ATOM      7  O1  UNL     1      17.416   3.981   9.827  0.00  0.00    +0.000 OA
BRANCH   7   8
ATOM      8  C4  UNL     1      18.714   4.008   9.238  0.00  0.00    +0.000 C 
BRANCH   8  11
ATOM      9  C1  UNL     1      20.272   5.985   8.541  0.00  0.00    +0.000 C 
ATOM     10  C2  UNL     1      19.219   6.563   9.446  0.00  0.00    +0.000 C 
ATOM     11  C3  UNL     1      18.905   5.354   8.604  0.00  0.00    +0.000 C 
ENDBRANCH   8  11
ENDBRANCH   7   8
ENDBRANCH   1   7
TORSDOF 3
ENDMDL
MODEL 7
REMARK VINA RESULT:    -3.448     15.052     16.373
REMARK INTER + INTRA:          -4.439
REMARK INTER:                  -4.057
REMARK INTRA:                  -0.382
REMARK UNBOUND:                -0.386
REMARK  Name = /home/anacleto/Desktop/manuscript_Mpro/naturecomm/supplementary_file_S2/6-chemical-library/molecular_docking/3D_ligand_structure/1305.pdb
REMARK  3 active torsions:
REMARK  status: ('A' for Active; 'I' for Inactive)
REMARK    1  A    between atoms: C3_3  and  C4_4
REMARK    2  A    between atoms: C4_4  and  O1_5
REMARK    3  A    between atoms: O1_5  and  C5_6
REMARK                            x       y       z     vdW  Elec       q    Type
REMARK                         _______ _______ _______ _____ _____    ______ ____
ROOT
ATOM      1  C5  UNL     1      15.633  11.645  -5.266  0.00  0.00    +0.000 A 
ATOM      2  C6  UNL     1      14.600  11.050  -4.537  0.00  0.00    +0.000 A 
ATOM      3  C7  UNL     1      13.454  10.579  -5.181  0.00  0.00    +0.000 A 
ATOM      4  C8  UNL     1      13.336  10.701  -6.563  0.00  0.00    +0.000 A 
ATOM      5  C9  UNL     1      14.362  11.291  -7.297  0.00  0.00    +0.000 A 
ATOM      6  C10 UNL     1      15.510  11.763  -6.651  0.00  0.00    +0.000 A 
ENDROOT
BRANCH   1   7
ATOM      7  O1  UNL     1      16.696  12.060  -4.512  0.00  0.00    +0.000 OA
BRANCH   7   8
ATOM      8  C4  UNL     1      16.461  12.277  -3.122  0.00  0.00    +0.000 C 
BRANCH   8  11
ATOM      9  C1  UNL     1      15.492  14.438  -2.019  0.00  0.00    +0.000 C 
ATOM     10  C2  UNL     1      15.542  14.694  -3.501  0.00  0.00    +0.000 C 
ATOM     11  C3  UNL     1      16.534  13.754  -2.867  0.00  0.00    +0.000 C 
ENDBRANCH   8  11
ENDBRANCH   7   8
ENDBRANCH   1   7
TORSDOF 3
ENDMDL
MODEL 8
REMARK VINA RESULT:    -3.432      3.433      5.103
REMARK INTER + INTRA:          -4.420
REMARK INTER:                  -4.081
REMARK INTRA:                  -0.339
REMARK UNBOUND:                -0.386
REMARK  Name = /home/anacleto/Desktop/manuscript_Mpro/naturecomm/supplementary_file_S2/6-chemical-library/molecular_docking/3D_ligand_structure/1305.pdb
REMARK  3 active torsions:
REMARK  status: ('A' for Active; 'I' for Inactive)
REMARK    1  A    between atoms: C3_3  and  C4_4
REMARK    2  A    between atoms: C4_4  and  O1_5
REMARK    3  A    between atoms: O1_5  and  C5_6
REMARK                            x       y       z     vdW  Elec       q    Type
REMARK                         _______ _______ _______ _____ _____    ______ ____
ROOT
ATOM      1  C5  UNL     1      18.780   6.951  11.833  0.00  0.00    +0.000 A 
ATOM      2  C6  UNL     1      18.353   7.872  12.791  0.00  0.00    +0.000 A 
ATOM      3  C7  UNL     1      17.525   7.473  13.843  0.00  0.00    +0.000 A 
ATOM      4  C8  UNL     1      17.120   6.145  13.941  0.00  0.00    +0.000 A 
ATOM      5  C9  UNL     1      17.544   5.219  12.989  0.00  0.00    +0.000 A 
ATOM      6  C10 UNL     1      18.373   5.620  11.936  0.00  0.00    +0.000 A 
ENDROOT
BRANCH   1   7
ATOM      7  O1  UNL     1      19.587   7.474  10.859  0.00  0.00    +0.000 OA
BRANCH   7   8
ATOM      8  C4  UNL     1      19.324   7.075   9.515  0.00  0.00    +0.000 C 
BRANCH   8  11
ATOM      9  C1  UNL     1      20.994   5.418   8.381  0.00  0.00    +0.000 C 
ATOM     10  C2  UNL     1      21.715   6.022   9.555  0.00  0.00    +0.000 C 
ATOM     11  C3  UNL     1      20.640   6.807   8.848  0.00  0.00    +0.000 C 
ENDBRANCH   8  11
ENDBRANCH   7   8
ENDBRANCH   1   7
TORSDOF 3
ENDMDL
MODEL 9
REMARK VINA RESULT:    -3.357     15.051     16.257
REMARK INTER + INTRA:          -4.332
REMARK INTER:                  -3.946
REMARK INTRA:                  -0.386
REMARK UNBOUND:                -0.386
REMARK  Name = /home/anacleto/Desktop/manuscript_Mpro/naturecomm/supplementary_file_S2/6-chemical-library/molecular_docking/3D_ligand_structure/1305.pdb
REMARK  3 active torsions:
REMARK  status: ('A' for Active; 'I' for Inactive)
REMARK    1  A    between atoms: C3_3  and  C4_4
REMARK    2  A    between atoms: C4_4  and  O1_5
REMARK    3  A    between atoms: O1_5  and  C5_6
REMARK                            x       y       z     vdW  Elec       q    Type
REMARK                         _______ _______ _______ _____ _____    ______ ____
ROOT
ATOM      1  C5  UNL     1      15.369  12.060  -4.793  0.00  0.00    +0.000 A 
ATOM      2  C6  UNL     1      14.520  11.081  -4.272  0.00  0.00    +0.000 A 
ATOM      3  C7  UNL     1      13.540  10.490  -5.072  0.00  0.00    +0.000 A 
ATOM      4  C8  UNL     1      13.406  10.876  -6.403  0.00  0.00    +0.000 A 
ATOM      5  C9  UNL     1      14.250  11.850  -6.930  0.00  0.00    +0.000 A 
ATOM      6  C10 UNL     1      15.231  12.443  -6.128  0.00  0.00    +0.000 A 
ENDROOT
BRANCH   1   7
ATOM      7  O1  UNL     1      16.282  12.555  -3.902  0.00  0.00    +0.000 OA
BRANCH   7   8
ATOM      8  C4  UNL     1      17.634  12.653  -4.346  0.00  0.00    +0.000 C 
BRANCH   8  11
ATOM      9  C1  UNL     1      19.543  10.973  -4.941  0.00  0.00    +0.000 C 
ATOM     10  C2  UNL     1      18.253  10.330  -5.371  0.00  0.00    +0.000 C 
ATOM     11  C3  UNL     1      18.262  11.297  -4.215  0.00  0.00    +0.000 C 
ENDBRANCH   8  11
ENDBRANCH   7   8
ENDBRANCH   1   7
TORSDOF 3
ENDMDL
