MODEL 1
REMARK VINA RESULT:    -5.180      0.000      0.000
REMARK INTER + INTRA:          -5.998
REMARK INTER:                  -5.793
REMARK INTRA:                  -0.205
REMARK UNBOUND:                -0.213
REMARK  Name = /home/anacleto/Desktop/manuscript_Mpro/naturecomm/supplementary_file_S2/6-chemical-library/molecular_docking/3D_ligand_structure/979.pdb
REMARK  2 active torsions:
REMARK  status: ('A' for Active; 'I' for Inactive)
REMARK    1  A    between atoms: C3_5  and  C4_6
REMARK    2  A    between atoms: N3_8  and  C5_9
REMARK                            x       y       z     vdW  Elec       q    Type
REMARK                         _______ _______ _______ _____ _____    ______ ____
ROOT
ATOM      1  C4  UNL     1     -36.294  -1.982 -26.196  0.00  0.00    +0.000 C 
ATOM      2  O1  UNL     1     -37.280  -1.916 -25.471  0.00  0.00    +0.000 OA
ATOM      3  N3  UNL     1     -36.189  -1.559 -27.505  0.00  0.00    +0.000 N 
ATOM      4  H4  UNL     1     -35.268  -1.716 -27.909  0.00  0.00    +0.000 HD
ENDROOT
BRANCH   1   9
ATOM      5  N1  UNL     1     -34.844  -3.917 -25.514  0.00  0.00    +0.000 NA
ATOM      6  C1  UNL     1     -33.600  -4.041 -25.107  0.00  0.00    +0.000 A 
ATOM      7  N2  UNL     1     -32.966  -2.832 -25.048  0.00  0.00    +0.000 N 
ATOM      8  C2  UNL     1     -33.859  -1.875 -25.441  0.00  0.00    +0.000 A 
ATOM      9  C3  UNL     1     -35.025  -2.555 -25.730  0.00  0.00    +0.000 A 
ATOM     10  H2  UNL     1     -32.008  -2.678 -24.763  0.00  0.00    +0.000 HD
ENDBRANCH   1   9
BRANCH   3  11
ATOM     11  C5  UNL     1     -37.167  -0.960 -28.314  0.00  0.00    +0.000 A 
ATOM     12  C6  UNL     1     -37.187   0.399 -28.635  0.00  0.00    +0.000 A 
ATOM     13  C7  UNL     1     -38.199   0.919 -29.448  0.00  0.00    +0.000 A 
ATOM     14  C8  UNL     1     -39.199   0.086 -29.945  0.00  0.00    +0.000 A 
ATOM     15  C9  UNL     1     -39.188  -1.270 -29.630  0.00  0.00    +0.000 A 
ATOM     16  C10 UNL     1     -38.176  -1.790 -28.818  0.00  0.00    +0.000 A 
ENDBRANCH   3  11
TORSDOF 2
ENDMDL
MODEL 2
REMARK VINA RESULT:    -4.794     18.287     19.159
REMARK INTER + INTRA:          -5.567
REMARK INTER:                  -5.323
REMARK INTRA:                  -0.244
REMARK UNBOUND:                -0.213
REMARK  Name = /home/anacleto/Desktop/manuscript_Mpro/naturecomm/supplementary_file_S2/6-chemical-library/molecular_docking/3D_ligand_structure/979.pdb
REMARK  2 active torsions:
REMARK  status: ('A' for Active; 'I' for Inactive)
REMARK    1  A    between atoms: C3_5  and  C4_6
REMARK    2  A    between atoms: N3_8  and  C5_9
REMARK                            x       y       z     vdW  Elec       q    Type
REMARK                         _______ _______ _______ _____ _____    ______ ____
ROOT
ATOM      1  C4  UNL     1     -23.083   6.782 -38.349  0.00  0.00    +0.000 C 
ATOM      2  O1  UNL     1     -22.013   6.184 -38.376  0.00  0.00    +0.000 OA
ATOM      3  N3  UNL     1     -24.306   6.329 -38.798  0.00  0.00    +0.000 N 
ATOM      4  H4  UNL     1     -25.058   7.001 -38.671  0.00  0.00    +0.000 HD
ENDROOT
BRANCH   1   9
ATOM      5  N1  UNL     1     -22.119   8.836 -37.270  0.00  0.00    +0.000 NA
ATOM      6  C1  UNL     1     -22.608   9.993 -36.884  0.00  0.00    +0.000 A 
ATOM      7  N2  UNL     1     -23.949  10.083 -37.136  0.00  0.00    +0.000 N 
ATOM      8  C2  UNL     1     -24.341   8.911 -37.718  0.00  0.00    +0.000 A 
ATOM      9  C3  UNL     1     -23.199   8.138 -37.799  0.00  0.00    +0.000 A 
ATOM     10  H2  UNL     1     -24.539  10.876 -36.926  0.00  0.00    +0.000 HD
ENDBRANCH   1   9
BRANCH   3  11
ATOM     11  C5  UNL     1     -24.620   5.093 -39.386  0.00  0.00    +0.000 A 
ATOM     12  C6  UNL     1     -24.428   4.802 -40.737  0.00  0.00    +0.000 A 
ATOM     13  C7  UNL     1     -24.769   3.545 -41.246  0.00  0.00    +0.000 A 
ATOM     14  C8  UNL     1     -25.305   2.570 -40.408  0.00  0.00    +0.000 A 
ATOM     15  C9  UNL     1     -25.501   2.851 -39.059  0.00  0.00    +0.000 A 
ATOM     16  C10 UNL     1     -25.160   4.107 -38.550  0.00  0.00    +0.000 A 
ENDBRANCH   3  11
TORSDOF 2
ENDMDL
MODEL 3
REMARK VINA RESULT:    -4.639     17.291     18.327
REMARK INTER + INTRA:          -5.393
REMARK INTER:                  -5.220
REMARK INTRA:                  -0.173
REMARK UNBOUND:                -0.213
REMARK  Name = /home/anacleto/Desktop/manuscript_Mpro/naturecomm/supplementary_file_S2/6-chemical-library/molecular_docking/3D_ligand_structure/979.pdb
REMARK  2 active torsions:
REMARK  status: ('A' for Active; 'I' for Inactive)
REMARK    1  A    between atoms: C3_5  and  C4_6
REMARK    2  A    between atoms: N3_8  and  C5_9
REMARK                            x       y       z     vdW  Elec       q    Type
REMARK                         _______ _______ _______ _____ _____    ______ ____
ROOT
ATOM      1  C4  UNL     1     -25.976   5.312 -38.941  0.00  0.00    +0.000 C 
ATOM      2  O1  UNL     1     -26.422   6.410 -39.251  0.00  0.00    +0.000 OA
ATOM      3  N3  UNL     1     -24.650   4.956 -38.804  0.00  0.00    +0.000 N 
ATOM      4  H4  UNL     1     -24.517   3.984 -38.536  0.00  0.00    +0.000 HD
ENDROOT
BRANCH   1   9
ATOM      5  N1  UNL     1     -26.373   2.885 -38.429  0.00  0.00    +0.000 NA
ATOM      6  C1  UNL     1     -27.441   2.148 -38.215  0.00  0.00    +0.000 A 
ATOM      7  N2  UNL     1     -28.587   2.889 -38.290  0.00  0.00    +0.000 N 
ATOM      8  C2  UNL     1     -28.231   4.177 -38.571  0.00  0.00    +0.000 A 
ATOM      9  C3  UNL     1     -26.853   4.170 -38.656  0.00  0.00    +0.000 A 
ATOM     10  H2  UNL     1     -29.527   2.539 -38.162  0.00  0.00    +0.000 HD
ENDBRANCH   1   9
BRANCH   3  11
ATOM     11  C5  UNL     1     -23.506   5.750 -38.986  0.00  0.00    +0.000 A 
ATOM     12  C6  UNL     1     -23.198   6.413 -40.175  0.00  0.00    +0.000 A 
ATOM     13  C7  UNL     1     -22.037   7.185 -40.275  0.00  0.00    +0.000 A 
ATOM     14  C8  UNL     1     -21.175   7.302 -39.187  0.00  0.00    +0.000 A 
ATOM     15  C9  UNL     1     -21.473   6.644 -37.996  0.00  0.00    +0.000 A 
ATOM     16  C10 UNL     1     -22.634   5.873 -37.897  0.00  0.00    +0.000 A 
ENDBRANCH   3  11
TORSDOF 2
ENDMDL
MODEL 4
REMARK VINA RESULT:    -4.555     25.062     25.811
REMARK INTER + INTRA:          -5.300
REMARK INTER:                  -5.070
REMARK INTRA:                  -0.230
REMARK UNBOUND:                -0.213
REMARK  Name = /home/anacleto/Desktop/manuscript_Mpro/naturecomm/supplementary_file_S2/6-chemical-library/molecular_docking/3D_ligand_structure/979.pdb
REMARK  2 active torsions:
REMARK  status: ('A' for Active; 'I' for Inactive)
REMARK    1  A    between atoms: C3_5  and  C4_6
REMARK    2  A    between atoms: N3_8  and  C5_9
REMARK                            x       y       z     vdW  Elec       q    Type
REMARK                         _______ _______ _______ _____ _____    ______ ____
ROOT
ATOM      1  C4  UNL     1     -16.096   9.494 -40.336  0.00  0.00    +0.000 C 
ATOM      2  O1  UNL     1     -16.641  10.058 -41.277  0.00  0.00    +0.000 OA
ATOM      3  N3  UNL     1     -16.695   9.008 -39.192  0.00  0.00    +0.000 N 
ATOM      4  H4  UNL     1     -16.040   8.575 -38.545  0.00  0.00    +0.000 HD
ENDROOT
BRANCH   1   9
ATOM      5  N1  UNL     1     -13.984   8.528 -41.294  0.00  0.00    +0.000 NA
ATOM      6  C1  UNL     1     -12.721   8.524 -40.930  0.00  0.00    +0.000 A 
ATOM      7  N2  UNL     1     -12.532   9.206 -39.762  0.00  0.00    +0.000 N 
ATOM      8  C2  UNL     1     -13.748   9.675 -39.353  0.00  0.00    +0.000 A 
ATOM      9  C3  UNL     1     -14.648   9.251 -40.309  0.00  0.00    +0.000 A 
ATOM     10  H2  UNL     1     -11.648   9.336 -39.288  0.00  0.00    +0.000 HD
ENDBRANCH   1   9
BRANCH   3  11
ATOM     11  C5  UNL     1     -18.051   9.039 -38.832  0.00  0.00    +0.000 A 
ATOM     12  C6  UNL     1     -18.698  10.169 -38.327  0.00  0.00    +0.000 A 
ATOM     13  C7  UNL     1     -20.054  10.118 -37.992  0.00  0.00    +0.000 A 
ATOM     14  C8  UNL     1     -20.775   8.937 -38.157  0.00  0.00    +0.000 A 
ATOM     15  C9  UNL     1     -20.139   7.805 -38.659  0.00  0.00    +0.000 A 
ATOM     16  C10 UNL     1     -18.784   7.856 -38.995  0.00  0.00    +0.000 A 
ENDBRANCH   3  11
TORSDOF 2
ENDMDL
MODEL 5
REMARK VINA RESULT:    -4.459     17.627     18.374
REMARK INTER + INTRA:          -5.192
REMARK INTER:                  -4.959
REMARK INTRA:                  -0.234
REMARK UNBOUND:                -0.213
REMARK  Name = /home/anacleto/Desktop/manuscript_Mpro/naturecomm/supplementary_file_S2/6-chemical-library/molecular_docking/3D_ligand_structure/979.pdb
REMARK  2 active torsions:
REMARK  status: ('A' for Active; 'I' for Inactive)
REMARK    1  A    between atoms: C3_5  and  C4_6
REMARK    2  A    between atoms: N3_8  and  C5_9
REMARK                            x       y       z     vdW  Elec       q    Type
REMARK                         _______ _______ _______ _____ _____    ______ ____
ROOT
ATOM      1  C4  UNL     1     -23.886   5.564 -39.644  0.00  0.00    +0.000 C 
ATOM      2  O1  UNL     1     -24.146   5.423 -40.833  0.00  0.00    +0.000 OA
ATOM      3  N3  UNL     1     -24.611   5.093 -38.568  0.00  0.00    +0.000 N 
ATOM      4  H4  UNL     1     -24.201   5.332 -37.668  0.00  0.00    +0.000 HD
ENDROOT
BRANCH   1   9
ATOM      5  N1  UNL     1     -22.134   7.345 -39.908  0.00  0.00    +0.000 NA
ATOM      6  C1  UNL     1     -21.101   7.738 -39.198  0.00  0.00    +0.000 A 
ATOM      7  N2  UNL     1     -20.963   6.997 -38.057  0.00  0.00    +0.000 N 
ATOM      8  C2  UNL     1     -21.970   6.074 -38.037  0.00  0.00    +0.000 A 
ATOM      9  C3  UNL     1     -22.696   6.294 -39.191  0.00  0.00    +0.000 A 
ATOM     10  H2  UNL     1     -20.243   7.116 -37.357  0.00  0.00    +0.000 HD
ENDBRANCH   1   9
BRANCH   3  11
ATOM     11  C5  UNL     1     -25.803   4.352 -38.571  0.00  0.00    +0.000 A 
ATOM     12  C6  UNL     1     -27.054   4.890 -38.878  0.00  0.00    +0.000 A 
ATOM     13  C7  UNL     1     -28.196   4.082 -38.858  0.00  0.00    +0.000 A 
ATOM     14  C8  UNL     1     -28.095   2.732 -38.531  0.00  0.00    +0.000 A 
ATOM     15  C9  UNL     1     -26.852   2.187 -38.223  0.00  0.00    +0.000 A 
ATOM     16  C10 UNL     1     -25.711   2.993 -38.244  0.00  0.00    +0.000 A 
ENDBRANCH   3  11
TORSDOF 2
ENDMDL
MODEL 6
REMARK VINA RESULT:    -4.377     11.103     13.458
REMARK INTER + INTRA:          -5.102
REMARK INTER:                  -4.872
REMARK INTRA:                  -0.230
REMARK UNBOUND:                -0.213
REMARK  Name = /home/anacleto/Desktop/manuscript_Mpro/naturecomm/supplementary_file_S2/6-chemical-library/molecular_docking/3D_ligand_structure/979.pdb
REMARK  2 active torsions:
REMARK  status: ('A' for Active; 'I' for Inactive)
REMARK    1  A    between atoms: C3_5  and  C4_6
REMARK    2  A    between atoms: N3_8  and  C5_9
REMARK                            x       y       z     vdW  Elec       q    Type
REMARK                         _______ _______ _______ _____ _____    ______ ____
ROOT
ATOM      1  C4  UNL     1     -22.667  -4.941 -28.068  0.00  0.00    +0.000 C 
ATOM      2  O1  UNL     1     -22.945  -5.951 -28.704  0.00  0.00    +0.000 OA
ATOM      3  N3  UNL     1     -23.545  -4.022 -27.533  0.00  0.00    +0.000 N 
ATOM      4  H4  UNL     1     -23.084  -3.259 -27.043  0.00  0.00    +0.000 HD
ENDROOT
BRANCH   1   9
ATOM      5  N1  UNL     1     -20.578  -5.038 -26.676  0.00  0.00    +0.000 NA
ATOM      6  C1  UNL     1     -19.387  -4.487 -26.756  0.00  0.00    +0.000 A 
ATOM      7  N2  UNL     1     -19.278  -3.681 -27.854  0.00  0.00    +0.000 N 
ATOM      8  C2  UNL     1     -20.472  -3.718 -28.517  0.00  0.00    +0.000 A 
ATOM      9  C3  UNL     1     -21.277  -4.564 -27.780  0.00  0.00    +0.000 A 
ATOM     10  H2  UNL     1     -18.459  -3.152 -28.123  0.00  0.00    +0.000 HD
ENDBRANCH   1   9
BRANCH   3  11
ATOM     11  C5  UNL     1     -24.948  -4.017 -27.584  0.00  0.00    +0.000 A 
ATOM     12  C6  UNL     1     -25.690  -3.331 -28.547  0.00  0.00    +0.000 A 
ATOM     13  C7  UNL     1     -27.088  -3.377 -28.528  0.00  0.00    +0.000 A 
ATOM     14  C8  UNL     1     -27.754  -4.107 -27.547  0.00  0.00    +0.000 A 
ATOM     15  C9  UNL     1     -27.022  -4.794 -26.581  0.00  0.00    +0.000 A 
ATOM     16  C10 UNL     1     -25.625  -4.749 -26.601  0.00  0.00    +0.000 A 
ENDBRANCH   3  11
TORSDOF 2
ENDMDL
MODEL 7
REMARK VINA RESULT:    -4.349     10.833     13.965
REMARK INTER + INTRA:          -5.070
REMARK INTER:                  -4.848
REMARK INTRA:                  -0.222
REMARK UNBOUND:                -0.213
REMARK  Name = /home/anacleto/Desktop/manuscript_Mpro/naturecomm/supplementary_file_S2/6-chemical-library/molecular_docking/3D_ligand_structure/979.pdb
REMARK  2 active torsions:
REMARK  status: ('A' for Active; 'I' for Inactive)
REMARK    1  A    between atoms: C3_5  and  C4_6
REMARK    2  A    between atoms: N3_8  and  C5_9
REMARK                            x       y       z     vdW  Elec       q    Type
REMARK                         _______ _______ _______ _____ _____    ______ ____
ROOT
ATOM      1  C4  UNL     1     -24.597  -3.801 -28.513  0.00  0.00    +0.000 C 
ATOM      2  O1  UNL     1     -24.260  -2.927 -29.304  0.00  0.00    +0.000 OA
ATOM      3  N3  UNL     1     -23.787  -4.745 -27.916  0.00  0.00    +0.000 N 
ATOM      4  H4  UNL     1     -24.289  -5.372 -27.291  0.00  0.00    +0.000 HD
ENDROOT
BRANCH   1   9
ATOM      5  N1  UNL     1     -26.387  -4.906 -27.140  0.00  0.00    +0.000 NA
ATOM      6  C1  UNL     1     -27.685  -4.744 -27.012  0.00  0.00    +0.000 A 
ATOM      7  N2  UNL     1     -28.150  -3.741 -27.816  0.00  0.00    +0.000 N 
ATOM      8  C2  UNL     1     -27.084  -3.231 -28.500  0.00  0.00    +0.000 A 
ATOM      9  C3  UNL     1     -25.990  -3.958 -28.077  0.00  0.00    +0.000 A 
ATOM     10  H2  UNL     1     -29.112  -3.437 -27.887  0.00  0.00    +0.000 HD
ENDBRANCH   1   9
BRANCH   3  11
ATOM     11  C5  UNL     1     -22.404  -4.934 -28.065  0.00  0.00    +0.000 A 
ATOM     12  C6  UNL     1     -21.801  -5.376 -29.243  0.00  0.00    +0.000 A 
ATOM     13  C7  UNL     1     -20.413  -5.539 -29.310  0.00  0.00    +0.000 A 
ATOM     14  C8  UNL     1     -19.619  -5.262 -28.199  0.00  0.00    +0.000 A 
ATOM     15  C9  UNL     1     -20.212  -4.822 -27.019  0.00  0.00    +0.000 A 
ATOM     16  C10 UNL     1     -21.598  -4.658 -26.953  0.00  0.00    +0.000 A 
ENDBRANCH   3  11
TORSDOF 2
ENDMDL
MODEL 8
REMARK VINA RESULT:    -4.267     14.278     16.146
REMARK INTER + INTRA:          -4.978
REMARK INTER:                  -4.765
REMARK INTRA:                  -0.213
REMARK UNBOUND:                -0.213
REMARK  Name = /home/anacleto/Desktop/manuscript_Mpro/naturecomm/supplementary_file_S2/6-chemical-library/molecular_docking/3D_ligand_structure/979.pdb
REMARK  2 active torsions:
REMARK  status: ('A' for Active; 'I' for Inactive)
REMARK    1  A    between atoms: C3_5  and  C4_6
REMARK    2  A    between atoms: N3_8  and  C5_9
REMARK                            x       y       z     vdW  Elec       q    Type
REMARK                         _______ _______ _______ _____ _____    ______ ____
ROOT
ATOM      1  C4  UNL     1     -33.348  12.941 -34.317  0.00  0.00    +0.000 C 
ATOM      2  O1  UNL     1     -34.224  13.241 -35.120  0.00  0.00    +0.000 OA
ATOM      3  N3  UNL     1     -33.514  12.374 -33.070  0.00  0.00    +0.000 N 
ATOM      4  H4  UNL     1     -32.639  12.213 -32.579  0.00  0.00    +0.000 HD
ENDROOT
BRANCH   1   9
ATOM      5  N1  UNL     1     -31.038  12.126 -34.876  0.00  0.00    +0.000 NA
ATOM      6  C1  UNL     1     -29.877  12.707 -35.077  0.00  0.00    +0.000 A 
ATOM      7  N2  UNL     1     -29.963  14.064 -34.948  0.00  0.00    +0.000 N 
ATOM      8  C2  UNL     1     -31.260  14.371 -34.647  0.00  0.00    +0.000 A 
ATOM      9  C3  UNL     1     -31.925  13.162 -34.603  0.00  0.00    +0.000 A 
ATOM     10  H2  UNL     1     -29.201  14.720 -35.057  0.00  0.00    +0.000 HD
ENDBRANCH   1   9
BRANCH   3  11
ATOM     11  C5  UNL     1     -34.707  12.008 -32.426  0.00  0.00    +0.000 A 
ATOM     12  C6  UNL     1     -35.286  12.737 -31.386  0.00  0.00    +0.000 A 
ATOM     13  C7  UNL     1     -36.477  12.304 -30.796  0.00  0.00    +0.000 A 
ATOM     14  C8  UNL     1     -37.099  11.139 -31.241  0.00  0.00    +0.000 A 
ATOM     15  C9  UNL     1     -36.528  10.404 -32.277  0.00  0.00    +0.000 A 
ATOM     16  C10 UNL     1     -35.338  10.838 -32.867  0.00  0.00    +0.000 A 
ENDBRANCH   3  11
TORSDOF 2
ENDMDL
MODEL 9
REMARK VINA RESULT:    -4.257     10.439     13.668
REMARK INTER + INTRA:          -4.967
REMARK INTER:                  -4.895
REMARK INTRA:                  -0.072
REMARK UNBOUND:                -0.213
REMARK  Name = /home/anacleto/Desktop/manuscript_Mpro/naturecomm/supplementary_file_S2/6-chemical-library/molecular_docking/3D_ligand_structure/979.pdb
REMARK  2 active torsions:
REMARK  status: ('A' for Active; 'I' for Inactive)
REMARK    1  A    between atoms: C3_5  and  C4_6
REMARK    2  A    between atoms: N3_8  and  C5_9
REMARK                            x       y       z     vdW  Elec       q    Type
REMARK                         _______ _______ _______ _____ _____    ______ ____
ROOT
ATOM      1  C4  UNL     1     -24.929  -4.006 -26.680  0.00  0.00    +0.000 C 
ATOM      2  O1  UNL     1     -24.732  -3.819 -25.486  0.00  0.00    +0.000 OA
ATOM      3  N3  UNL     1     -23.984  -4.239 -27.658  0.00  0.00    +0.000 N 
ATOM      4  H4  UNL     1     -24.382  -4.367 -28.585  0.00  0.00    +0.000 HD
ENDROOT
BRANCH   1   9
ATOM      5  N1  UNL     1     -26.612  -3.315 -28.413  0.00  0.00    +0.000 NA
ATOM      6  C1  UNL     1     -27.891  -3.550 -28.605  0.00  0.00    +0.000 A 
ATOM      7  N2  UNL     1     -28.406  -4.359 -27.631  0.00  0.00    +0.000 N 
ATOM      8  C2  UNL     1     -27.395  -4.658 -26.762  0.00  0.00    +0.000 A 
ATOM      9  C3  UNL     1     -26.281  -4.007 -27.253  0.00  0.00    +0.000 A 
ATOM     10  H2  UNL     1     -29.364  -4.675 -27.569  0.00  0.00    +0.000 HD
ENDBRANCH   1   9
BRANCH   3  11
ATOM     11  C5  UNL     1     -22.588  -4.317 -27.526  0.00  0.00    +0.000 A 
ATOM     12  C6  UNL     1     -21.939  -5.017 -26.507  0.00  0.00    +0.000 A 
ATOM     13  C7  UNL     1     -20.543  -5.045 -26.446  0.00  0.00    +0.000 A 
ATOM     14  C8  UNL     1     -19.784  -4.374 -27.402  0.00  0.00    +0.000 A 
ATOM     15  C9  UNL     1     -20.422  -3.672 -28.422  0.00  0.00    +0.000 A 
ATOM     16  C10 UNL     1     -21.817  -3.644 -28.483  0.00  0.00    +0.000 A 
ENDBRANCH   3  11
TORSDOF 2
ENDMDL
