MODEL 1
REMARK VINA RESULT:    -2.893      0.000      0.000
REMARK INTER + INTRA:          -2.893
REMARK INTER:                  -2.893
REMARK INTRA:                   0.000
REMARK UNBOUND:                 0.000
REMARK  Name = /home/anacleto/Desktop/manuscript_Mpro/naturecomm/supplementary_file_S2/6-chemical-library/molecular_docking/3D_ligand_structure/356.pdb
REMARK  0 active torsions:
REMARK  status: ('A' for Active; 'I' for Inactive)
REMARK                            x       y       z     vdW  Elec       q    Type
REMARK                         _______ _______ _______ _____ _____    ______ ____
ROOT
ATOM      1  S1  UNL     1     -21.837   6.423 -38.273  0.00  0.00    +0.000 S 
ATOM      2  C1  UNL     1     -23.544   6.351 -38.746  0.00  0.00    +0.000 C 
ATOM      3  C2  UNL     1     -24.194   7.477 -38.405  0.00  0.00    +0.000 C 
ATOM      4  N1  UNL     1     -23.394   8.389 -37.773  0.00  0.00    +0.000 N 
ATOM      5  C3  UNL     1     -22.089   8.027 -37.628  0.00  0.00    +0.000 C 
ATOM      6  C4  UNL     1     -23.563   9.729 -37.311  0.00  0.00    +0.000 C 
ATOM      7  C5  UNL     1     -22.136  10.026 -36.770  0.00  0.00    +0.000 C 
ATOM      8  N2  UNL     1     -21.246   8.848 -37.086  0.00  0.00    +0.000 NA
ENDROOT
TORSDOF 0
ENDMDL
MODEL 2
REMARK VINA RESULT:    -2.887     27.605     28.049
REMARK INTER + INTRA:          -2.887
REMARK INTER:                  -2.887
REMARK INTRA:                   0.000
REMARK UNBOUND:                 0.000
REMARK  Name = /home/anacleto/Desktop/manuscript_Mpro/naturecomm/supplementary_file_S2/6-chemical-library/molecular_docking/3D_ligand_structure/356.pdb
REMARK  0 active torsions:
REMARK  status: ('A' for Active; 'I' for Inactive)
REMARK                            x       y       z     vdW  Elec       q    Type
REMARK                         _______ _______ _______ _____ _____    ______ ____
ROOT
ATOM      1  S1  UNL     1     -39.987   6.448 -13.656  0.00  0.00    +0.000 S 
ATOM      2  C1  UNL     1     -38.561   5.420 -13.877  0.00  0.00    +0.000 C 
ATOM      3  C2  UNL     1     -37.610   6.049 -14.591  0.00  0.00    +0.000 C 
ATOM      4  N1  UNL     1     -37.976   7.308 -14.980  0.00  0.00    +0.000 N 
ATOM      5  C3  UNL     1     -39.202   7.722 -14.557  0.00  0.00    +0.000 C 
ATOM      6  C4  UNL     1     -37.320   8.386 -15.647  0.00  0.00    +0.000 C 
ATOM      7  C5  UNL     1     -38.445   9.460 -15.626  0.00  0.00    +0.000 C 
ATOM      8  N2  UNL     1     -39.612   8.920 -14.835  0.00  0.00    +0.000 NA
ENDROOT
TORSDOF 0
ENDMDL
MODEL 3
REMARK VINA RESULT:    -2.882     15.326     15.955
REMARK INTER + INTRA:          -2.882
REMARK INTER:                  -2.882
REMARK INTRA:                   0.000
REMARK UNBOUND:                 0.000
REMARK  Name = /home/anacleto/Desktop/manuscript_Mpro/naturecomm/supplementary_file_S2/6-chemical-library/molecular_docking/3D_ligand_structure/356.pdb
REMARK  0 active torsions:
REMARK  status: ('A' for Active; 'I' for Inactive)
REMARK                            x       y       z     vdW  Elec       q    Type
REMARK                         _______ _______ _______ _____ _____    ______ ____
ROOT
ATOM      1  S1  UNL     1     -23.404  -4.282 -26.875  0.00  0.00    +0.000 S 
ATOM      2  C1  UNL     1     -23.092  -3.663 -28.506  0.00  0.00    +0.000 C 
ATOM      3  C2  UNL     1     -24.236  -3.339 -29.134  0.00  0.00    +0.000 C 
ATOM      4  N1  UNL     1     -25.350  -3.575 -28.376  0.00  0.00    +0.000 N 
ATOM      5  C3  UNL     1     -25.119  -4.055 -27.123  0.00  0.00    +0.000 C 
ATOM      6  C4  UNL     1     -26.746  -3.324 -28.532  0.00  0.00    +0.000 C 
ATOM      7  C5  UNL     1     -27.285  -3.856 -27.174  0.00  0.00    +0.000 C 
ATOM      8  N2  UNL     1     -26.111  -4.260 -26.315  0.00  0.00    +0.000 NA
ENDROOT
TORSDOF 0
ENDMDL
MODEL 4
REMARK VINA RESULT:    -2.881      1.787      3.484
REMARK INTER + INTRA:          -2.881
REMARK INTER:                  -2.881
REMARK INTRA:                   0.000
REMARK UNBOUND:                 0.000
REMARK  Name = /home/anacleto/Desktop/manuscript_Mpro/naturecomm/supplementary_file_S2/6-chemical-library/molecular_docking/3D_ligand_structure/356.pdb
REMARK  0 active torsions:
REMARK  status: ('A' for Active; 'I' for Inactive)
REMARK                            x       y       z     vdW  Elec       q    Type
REMARK                         _______ _______ _______ _____ _____    ______ ____
ROOT
ATOM      1  S1  UNL     1     -23.412   9.817 -37.528  0.00  0.00    +0.000 S 
ATOM      2  C1  UNL     1     -21.706   9.832 -37.049  0.00  0.00    +0.000 C 
ATOM      3  C2  UNL     1     -21.145   8.618 -37.200  0.00  0.00    +0.000 C 
ATOM      4  N1  UNL     1     -22.019   7.677 -37.669  0.00  0.00    +0.000 N 
ATOM      5  C3  UNL     1     -23.278   8.123 -37.933  0.00  0.00    +0.000 C 
ATOM      6  C4  UNL     1     -21.908   6.314 -38.078  0.00  0.00    +0.000 C 
ATOM      7  C5  UNL     1     -23.371   6.030 -38.522  0.00  0.00    +0.000 C 
ATOM      8  N2  UNL     1     -24.161   7.313 -38.429  0.00  0.00    +0.000 NA
ENDROOT
TORSDOF 0
ENDMDL
MODEL 5
REMARK VINA RESULT:    -2.837      3.006      3.798
REMARK INTER + INTRA:          -2.837
REMARK INTER:                  -2.837
REMARK INTRA:                   0.000
REMARK UNBOUND:                 0.000
REMARK  Name = /home/anacleto/Desktop/manuscript_Mpro/naturecomm/supplementary_file_S2/6-chemical-library/molecular_docking/3D_ligand_structure/356.pdb
REMARK  0 active torsions:
REMARK  status: ('A' for Active; 'I' for Inactive)
REMARK                            x       y       z     vdW  Elec       q    Type
REMARK                         _______ _______ _______ _____ _____    ______ ____
ROOT
ATOM      1  S1  UNL     1     -21.509   9.589 -37.206  0.00  0.00    +0.000 S 
ATOM      2  C1  UNL     1     -21.657   7.858 -37.557  0.00  0.00    +0.000 C 
ATOM      3  C2  UNL     1     -20.594   7.407 -38.248  0.00  0.00    +0.000 C 
ATOM      4  N1  UNL     1     -19.676   8.383 -38.519  0.00  0.00    +0.000 N 
ATOM      5  C3  UNL     1     -19.965   9.618 -38.024  0.00  0.00    +0.000 C 
ATOM      6  C4  UNL     1     -18.379   8.409 -39.115  0.00  0.00    +0.000 C 
ATOM      7  C5  UNL     1     -18.028   9.917 -38.969  0.00  0.00    +0.000 C 
ATOM      8  N2  UNL     1     -19.128  10.594 -38.187  0.00  0.00    +0.000 NA
ENDROOT
TORSDOF 0
ENDMDL
MODEL 6
REMARK VINA RESULT:    -2.806     17.096     17.742
REMARK INTER + INTRA:          -2.806
REMARK INTER:                  -2.806
REMARK INTRA:                   0.000
REMARK UNBOUND:                 0.000
REMARK  Name = /home/anacleto/Desktop/manuscript_Mpro/naturecomm/supplementary_file_S2/6-chemical-library/molecular_docking/3D_ligand_structure/356.pdb
REMARK  0 active torsions:
REMARK  status: ('A' for Active; 'I' for Inactive)
REMARK                            x       y       z     vdW  Elec       q    Type
REMARK                         _______ _______ _______ _____ _____    ______ ____
ROOT
ATOM      1  S1  UNL     1     -25.372  -3.994 -27.169  0.00  0.00    +0.000 S 
ATOM      2  C1  UNL     1     -26.544  -3.507 -28.407  0.00  0.00    +0.000 C 
ATOM      3  C2  UNL     1     -27.755  -4.042 -28.171  0.00  0.00    +0.000 C 
ATOM      4  N1  UNL     1     -27.786  -4.831 -27.054  0.00  0.00    +0.000 N 
ATOM      5  C3  UNL     1     -26.617  -4.914 -26.360  0.00  0.00    +0.000 C 
ATOM      6  C4  UNL     1     -28.808  -5.524 -26.338  0.00  0.00    +0.000 C 
ATOM      7  C5  UNL     1     -27.980  -6.116 -25.162  0.00  0.00    +0.000 C 
ATOM      8  N2  UNL     1     -26.565  -5.599 -25.260  0.00  0.00    +0.000 NA
ENDROOT
TORSDOF 0
ENDMDL
MODEL 7
REMARK VINA RESULT:    -2.780     17.005     17.585
REMARK INTER + INTRA:          -2.780
REMARK INTER:                  -2.780
REMARK INTRA:                   0.000
REMARK UNBOUND:                 0.000
REMARK  Name = /home/anacleto/Desktop/manuscript_Mpro/naturecomm/supplementary_file_S2/6-chemical-library/molecular_docking/3D_ligand_structure/356.pdb
REMARK  0 active torsions:
REMARK  status: ('A' for Active; 'I' for Inactive)
REMARK                            x       y       z     vdW  Elec       q    Type
REMARK                         _______ _______ _______ _____ _____    ______ ____
ROOT
ATOM      1  S1  UNL     1     -26.340  -5.665 -25.146  0.00  0.00    +0.000 S 
ATOM      2  C1  UNL     1     -28.059  -6.075 -25.278  0.00  0.00    +0.000 C 
ATOM      3  C2  UNL     1     -28.625  -5.476 -26.341  0.00  0.00    +0.000 C 
ATOM      4  N1  UNL     1     -27.751  -4.696 -27.046  0.00  0.00    +0.000 N 
ATOM      5  C3  UNL     1     -26.470  -4.683 -26.586  0.00  0.00    +0.000 C 
ATOM      6  C4  UNL     1     -27.820  -3.953 -28.263  0.00  0.00    +0.000 C 
ATOM      7  C5  UNL     1     -26.362  -3.418 -28.353  0.00  0.00    +0.000 C 
ATOM      8  N2  UNL     1     -25.560  -4.012 -27.220  0.00  0.00    +0.000 NA
ENDROOT
TORSDOF 0
ENDMDL
MODEL 8
REMARK VINA RESULT:    -2.768     14.969     15.659
REMARK INTER + INTRA:          -2.768
REMARK INTER:                  -2.768
REMARK INTRA:                   0.000
REMARK UNBOUND:                 0.000
REMARK  Name = /home/anacleto/Desktop/manuscript_Mpro/naturecomm/supplementary_file_S2/6-chemical-library/molecular_docking/3D_ligand_structure/356.pdb
REMARK  0 active torsions:
REMARK  status: ('A' for Active; 'I' for Inactive)
REMARK                            x       y       z     vdW  Elec       q    Type
REMARK                         _______ _______ _______ _____ _____    ______ ____
ROOT
ATOM      1  S1  UNL     1     -34.967  12.398 -32.546  0.00  0.00    +0.000 S 
ATOM      2  C1  UNL     1     -35.715  10.884 -33.086  0.00  0.00    +0.000 C 
ATOM      3  C2  UNL     1     -36.653  10.465 -32.217  0.00  0.00    +0.000 C 
ATOM      4  N1  UNL     1     -36.790  11.291 -31.136  0.00  0.00    +0.000 N 
ATOM      5  C3  UNL     1     -35.997  12.397 -31.135  0.00  0.00    +0.000 C 
ATOM      6  C4  UNL     1     -37.676  11.347 -30.018  0.00  0.00    +0.000 C 
ATOM      7  C5  UNL     1     -37.165  12.636 -29.315  0.00  0.00    +0.000 C 
ATOM      8  N2  UNL     1     -36.095  13.263 -30.175  0.00  0.00    +0.000 NA
ENDROOT
TORSDOF 0
ENDMDL
MODEL 9
REMARK VINA RESULT:    -2.755      2.579      3.430
REMARK INTER + INTRA:          -2.755
REMARK INTER:                  -2.755
REMARK INTRA:                   0.000
REMARK UNBOUND:                 0.000
REMARK  Name = /home/anacleto/Desktop/manuscript_Mpro/naturecomm/supplementary_file_S2/6-chemical-library/molecular_docking/3D_ligand_structure/356.pdb
REMARK  0 active torsions:
REMARK  status: ('A' for Active; 'I' for Inactive)
REMARK                            x       y       z     vdW  Elec       q    Type
REMARK                         _______ _______ _______ _____ _____    ______ ____
ROOT
ATOM      1  S1  UNL     1     -21.463   7.010 -38.404  0.00  0.00    +0.000 S 
ATOM      2  C1  UNL     1     -22.239   8.448 -37.717  0.00  0.00    +0.000 C 
ATOM      3  C2  UNL     1     -21.381   9.481 -37.647  0.00  0.00    +0.000 C 
ATOM      4  N1  UNL     1     -20.130   9.172 -38.106  0.00  0.00    +0.000 N 
ATOM      5  C3  UNL     1     -19.974   7.906 -38.581  0.00  0.00    +0.000 C 
ATOM      6  C4  UNL     1     -18.928   9.909 -38.329  0.00  0.00    +0.000 C 
ATOM      7  C5  UNL     1     -18.016   8.795 -38.918  0.00  0.00    +0.000 C 
ATOM      8  N2  UNL     1     -18.836   7.538 -39.083  0.00  0.00    +0.000 NA
ENDROOT
TORSDOF 0
ENDMDL
