MODEL 1
REMARK VINA RESULT:    -4.415      0.000      0.000
REMARK INTER + INTRA:          -4.415
REMARK INTER:                  -4.415
REMARK INTRA:                   0.000
REMARK UNBOUND:                 0.000
REMARK  Name = /home/anacleto/Desktop/manuscript_Mpro/naturecomm/supplementary_file_S2/6-chemical-library/molecular_docking/3D_ligand_structure/4.pdb
REMARK  0 active torsions:
REMARK  status: ('A' for Active; 'I' for Inactive)
REMARK                            x       y       z     vdW  Elec       q    Type
REMARK                         _______ _______ _______ _____ _____    ______ ____
ROOT
ATOM      1  N1  UNL     1     -17.620  -3.231 -24.153  0.00  0.00    +0.000 NA
ATOM      2  C1  UNL     1     -17.759  -4.256 -24.905  0.00  0.00    +0.000 A 
ATOM      3  N2  UNL     1     -17.205  -5.446 -24.610  0.00  0.00    +0.000 N 
ATOM      4  C2  UNL     1     -17.352  -6.541 -25.411  0.00  0.00    +0.000 A 
ATOM      5  O1  UNL     1     -16.840  -7.619 -25.128  0.00  0.00    +0.000 OA
ATOM      6  N3  UNL     1     -18.097  -6.364 -26.537  0.00  0.00    +0.000 N 
ATOM      7  C3  UNL     1     -18.683  -5.186 -26.890  0.00  0.00    +0.000 A 
ATOM      8  O2  UNL     1     -19.346  -5.073 -27.915  0.00  0.00    +0.000 OA
ATOM      9  N4  UNL     1     -18.483  -4.147 -26.032  0.00  0.00    +0.000 N 
ATOM     10  H1  UNL     1     -17.049  -3.452 -23.334  0.00  0.00    +0.000 HD
ATOM     11  H2  UNL     1     -16.653  -5.578 -23.778  0.00  0.00    +0.000 HD
ATOM     12  H3  UNL     1     -18.224  -7.155 -27.150  0.00  0.00    +0.000 HD
ATOM     13  H4  UNL     1     -18.898  -3.254 -26.251  0.00  0.00    +0.000 HD
ENDROOT
TORSDOF 0
ENDMDL
MODEL 2
REMARK VINA RESULT:    -4.269     16.651     17.433
REMARK INTER + INTRA:          -4.269
REMARK INTER:                  -4.269
REMARK INTRA:                   0.000
REMARK UNBOUND:                 0.000
REMARK  Name = /home/anacleto/Desktop/manuscript_Mpro/naturecomm/supplementary_file_S2/6-chemical-library/molecular_docking/3D_ligand_structure/4.pdb
REMARK  0 active torsions:
REMARK  status: ('A' for Active; 'I' for Inactive)
REMARK                            x       y       z     vdW  Elec       q    Type
REMARK                         _______ _______ _______ _____ _____    ______ ____
ROOT
ATOM      1  N1  UNL     1     -32.728  -2.102 -25.452  0.00  0.00    +0.000 NA
ATOM      2  C1  UNL     1     -33.897  -2.619 -25.442  0.00  0.00    +0.000 A 
ATOM      3  N2  UNL     1     -34.125  -3.879 -25.029  0.00  0.00    +0.000 N 
ATOM      4  C2  UNL     1     -35.372  -4.432 -25.018  0.00  0.00    +0.000 A 
ATOM      5  O1  UNL     1     -35.562  -5.583 -24.638  0.00  0.00    +0.000 OA
ATOM      6  N3  UNL     1     -36.386  -3.633 -25.452  0.00  0.00    +0.000 N 
ATOM      7  C3  UNL     1     -36.220  -2.351 -25.883  0.00  0.00    +0.000 A 
ATOM      8  O2  UNL     1     -37.163  -1.669 -26.265  0.00  0.00    +0.000 OA
ATOM      9  N4  UNL     1     -34.941  -1.882 -25.860  0.00  0.00    +0.000 N 
ATOM     10  H1  UNL     1     -32.030  -2.767 -25.112  0.00  0.00    +0.000 HD
ATOM     11  H2  UNL     1     -33.375  -4.470 -24.708  0.00  0.00    +0.000 HD
ATOM     12  H3  UNL     1     -37.320  -4.013 -25.457  0.00  0.00    +0.000 HD
ATOM     13  H4  UNL     1     -34.769  -0.937 -26.169  0.00  0.00    +0.000 HD
ENDROOT
TORSDOF 0
ENDMDL
MODEL 3
REMARK VINA RESULT:    -4.170     18.201     18.943
REMARK INTER + INTRA:          -4.170
REMARK INTER:                  -4.170
REMARK INTRA:                   0.000
REMARK UNBOUND:                 0.000
REMARK  Name = /home/anacleto/Desktop/manuscript_Mpro/naturecomm/supplementary_file_S2/6-chemical-library/molecular_docking/3D_ligand_structure/4.pdb
REMARK  0 active torsions:
REMARK  status: ('A' for Active; 'I' for Inactive)
REMARK                            x       y       z     vdW  Elec       q    Type
REMARK                         _______ _______ _______ _____ _____    ______ ____
ROOT
ATOM      1  N1  UNL     1     -18.439   6.035 -40.053  0.00  0.00    +0.000 NA
ATOM      2  C1  UNL     1     -18.828   7.048 -39.377  0.00  0.00    +0.000 A 
ATOM      3  N2  UNL     1     -18.116   8.187 -39.311  0.00  0.00    +0.000 N 
ATOM      4  C2  UNL     1     -18.530   9.269 -38.590  0.00  0.00    +0.000 A 
ATOM      5  O1  UNL     1     -17.868  10.301 -38.540  0.00  0.00    +0.000 OA
ATOM      6  N3  UNL     1     -19.714   9.133 -37.932  0.00  0.00    +0.000 N 
ATOM      7  C3  UNL     1     -20.480   8.007 -37.959  0.00  0.00    +0.000 A 
ATOM      8  O2  UNL     1     -21.542   7.930 -37.351  0.00  0.00    +0.000 OA
ATOM      9  N4  UNL     1     -19.990   6.978 -38.704  0.00  0.00    +0.000 N 
ATOM     10  H1  UNL     1     -17.545   6.222 -40.513  0.00  0.00    +0.000 HD
ATOM     11  H2  UNL     1     -17.239   8.288 -39.797  0.00  0.00    +0.000 HD
ATOM     12  H3  UNL     1     -20.047   9.915 -37.389  0.00  0.00    +0.000 HD
ATOM     13  H4  UNL     1     -20.522   6.122 -38.755  0.00  0.00    +0.000 HD
ENDROOT
TORSDOF 0
ENDMDL
MODEL 4
REMARK VINA RESULT:    -4.163     18.167     18.899
REMARK INTER + INTRA:          -4.163
REMARK INTER:                  -4.163
REMARK INTRA:                   0.000
REMARK UNBOUND:                 0.000
REMARK  Name = /home/anacleto/Desktop/manuscript_Mpro/naturecomm/supplementary_file_S2/6-chemical-library/molecular_docking/3D_ligand_structure/4.pdb
REMARK  0 active torsions:
REMARK  status: ('A' for Active; 'I' for Inactive)
REMARK                            x       y       z     vdW  Elec       q    Type
REMARK                         _______ _______ _______ _____ _____    ______ ____
ROOT
ATOM      1  N1  UNL     1     -18.424   6.042 -40.043  0.00  0.00    +0.000 NA
ATOM      2  C1  UNL     1     -18.885   7.009 -39.346  0.00  0.00    +0.000 A 
ATOM      3  N2  UNL     1     -20.057   6.929 -38.688  0.00  0.00    +0.000 N 
ATOM      4  C2  UNL     1     -20.550   7.960 -37.944  0.00  0.00    +0.000 A 
ATOM      5  O1  UNL     1     -21.621   7.871 -37.351  0.00  0.00    +0.000 OA
ATOM      6  N3  UNL     1     -19.788   9.087 -37.901  0.00  0.00    +0.000 N 
ATOM      7  C3  UNL     1     -18.594   9.230 -38.543  0.00  0.00    +0.000 A 
ATOM      8  O2  UNL     1     -17.941  10.264 -38.475  0.00  0.00    +0.000 OA
ATOM      9  N4  UNL     1     -18.180   8.150 -39.263  0.00  0.00    +0.000 N 
ATOM     10  H1  UNL     1     -19.057   5.239 -40.021  0.00  0.00    +0.000 HD
ATOM     11  H2  UNL     1     -20.622   6.096 -38.721  0.00  0.00    +0.000 HD
ATOM     12  H3  UNL     1     -20.126   9.868 -37.359  0.00  0.00    +0.000 HD
ATOM     13  H4  UNL     1     -17.302   8.208 -39.756  0.00  0.00    +0.000 HD
ENDROOT
TORSDOF 0
ENDMDL
MODEL 5
REMARK VINA RESULT:    -4.001      8.649      9.610
REMARK INTER + INTRA:          -4.001
REMARK INTER:                  -4.001
REMARK INTRA:                   0.000
REMARK UNBOUND:                 0.000
REMARK  Name = /home/anacleto/Desktop/manuscript_Mpro/naturecomm/supplementary_file_S2/6-chemical-library/molecular_docking/3D_ligand_structure/4.pdb
REMARK  0 active torsions:
REMARK  status: ('A' for Active; 'I' for Inactive)
REMARK                            x       y       z     vdW  Elec       q    Type
REMARK                         _______ _______ _______ _____ _____    ______ ____
ROOT
ATOM      1  N1  UNL     1     -28.024  -2.771 -28.735  0.00  0.00    +0.000 NA
ATOM      2  C1  UNL     1     -27.548  -3.505 -27.803  0.00  0.00    +0.000 A 
ATOM      3  N2  UNL     1     -26.297  -3.352 -27.331  0.00  0.00    +0.000 N 
ATOM      4  C2  UNL     1     -25.788  -4.134 -26.337  0.00  0.00    +0.000 A 
ATOM      5  O1  UNL     1     -24.645  -3.981 -25.918  0.00  0.00    +0.000 OA
ATOM      6  N3  UNL     1     -26.621  -5.090 -25.840  0.00  0.00    +0.000 N 
ATOM      7  C3  UNL     1     -27.896  -5.295 -26.274  0.00  0.00    +0.000 A 
ATOM      8  O2  UNL     1     -28.611  -6.169 -25.797  0.00  0.00    +0.000 OA
ATOM      9  N4  UNL     1     -28.320  -4.468 -27.270  0.00  0.00    +0.000 N 
ATOM     10  H1  UNL     1     -27.335  -2.083 -29.048  0.00  0.00    +0.000 HD
ATOM     11  H2  UNL     1     -25.680  -2.645 -27.699  0.00  0.00    +0.000 HD
ATOM     12  H3  UNL     1     -26.274  -5.685 -25.104  0.00  0.00    +0.000 HD
ATOM     13  H4  UNL     1     -29.258  -4.582 -27.625  0.00  0.00    +0.000 HD
ENDROOT
TORSDOF 0
ENDMDL
MODEL 6
REMARK VINA RESULT:    -3.996     18.118     18.638
REMARK INTER + INTRA:          -3.996
REMARK INTER:                  -3.996
REMARK INTRA:                   0.000
REMARK UNBOUND:                 0.000
REMARK  Name = /home/anacleto/Desktop/manuscript_Mpro/naturecomm/supplementary_file_S2/6-chemical-library/molecular_docking/3D_ligand_structure/4.pdb
REMARK  0 active torsions:
REMARK  status: ('A' for Active; 'I' for Inactive)
REMARK                            x       y       z     vdW  Elec       q    Type
REMARK                         _______ _______ _______ _____ _____    ______ ____
ROOT
ATOM      1  N1  UNL     1     -18.213  10.108 -38.039  0.00  0.00    +0.000 NA
ATOM      2  C1  UNL     1     -18.814   9.025 -38.354  0.00  0.00    +0.000 A 
ATOM      3  N2  UNL     1     -18.303   8.148 -39.238  0.00  0.00    +0.000 N 
ATOM      4  C2  UNL     1     -18.943   6.991 -39.575  0.00  0.00    +0.000 A 
ATOM      5  O1  UNL     1     -18.464   6.202 -40.384  0.00  0.00    +0.000 OA
ATOM      6  N3  UNL     1     -20.140   6.769 -38.966  0.00  0.00    +0.000 N 
ATOM      7  C3  UNL     1     -20.710   7.617 -38.064  0.00  0.00    +0.000 A 
ATOM      8  O2  UNL     1     -21.790   7.374 -37.538  0.00  0.00    +0.000 OA
ATOM      9  N4  UNL     1     -20.000   8.746 -37.787  0.00  0.00    +0.000 N 
ATOM     10  H1  UNL     1     -17.326  10.195 -38.541  0.00  0.00    +0.000 HD
ATOM     11  H2  UNL     1     -17.418   8.312 -39.690  0.00  0.00    +0.000 HD
ATOM     12  H3  UNL     1     -20.639   5.922 -39.194  0.00  0.00    +0.000 HD
ATOM     13  H4  UNL     1     -20.381   9.405 -37.125  0.00  0.00    +0.000 HD
ENDROOT
TORSDOF 0
ENDMDL
MODEL 7
REMARK VINA RESULT:    -3.973     18.147     18.686
REMARK INTER + INTRA:          -3.973
REMARK INTER:                  -3.973
REMARK INTRA:                   0.000
REMARK UNBOUND:                 0.000
REMARK  Name = /home/anacleto/Desktop/manuscript_Mpro/naturecomm/supplementary_file_S2/6-chemical-library/molecular_docking/3D_ligand_structure/4.pdb
REMARK  0 active torsions:
REMARK  status: ('A' for Active; 'I' for Inactive)
REMARK                            x       y       z     vdW  Elec       q    Type
REMARK                         _______ _______ _______ _____ _____    ______ ____
ROOT
ATOM      1  N1  UNL     1     -18.131  10.011 -38.039  0.00  0.00    +0.000 NA
ATOM      2  C1  UNL     1     -18.776   8.959 -38.372  0.00  0.00    +0.000 A 
ATOM      3  N2  UNL     1     -19.962   8.637 -37.826  0.00  0.00    +0.000 N 
ATOM      4  C2  UNL     1     -20.652   7.514 -38.180  0.00  0.00    +0.000 A 
ATOM      5  O1  UNL     1     -21.733   7.235 -37.672  0.00  0.00    +0.000 OA
ATOM      6  N3  UNL     1     -20.069   6.726 -39.126  0.00  0.00    +0.000 N 
ATOM      7  C3  UNL     1     -18.871   6.997 -39.716  0.00  0.00    +0.000 A 
ATOM      8  O2  UNL     1     -18.385   6.258 -40.565  0.00  0.00    +0.000 OA
ATOM      9  N4  UNL     1     -18.254   8.138 -39.301  0.00  0.00    +0.000 N 
ATOM     10  H1  UNL     1     -18.638  10.542 -37.327  0.00  0.00    +0.000 HD
ATOM     11  H2  UNL     1     -20.394   9.218 -37.126  0.00  0.00    +0.000 HD
ATOM     12  H3  UNL     1     -20.554   5.888 -39.409  0.00  0.00    +0.000 HD
ATOM     13  H4  UNL     1     -17.364   8.381 -39.710  0.00  0.00    +0.000 HD
ENDROOT
TORSDOF 0
ENDMDL
MODEL 8
REMARK VINA RESULT:    -3.859     17.921     18.643
REMARK INTER + INTRA:          -3.859
REMARK INTER:                  -3.859
REMARK INTRA:                   0.000
REMARK UNBOUND:                 0.000
REMARK  Name = /home/anacleto/Desktop/manuscript_Mpro/naturecomm/supplementary_file_S2/6-chemical-library/molecular_docking/3D_ligand_structure/4.pdb
REMARK  0 active torsions:
REMARK  status: ('A' for Active; 'I' for Inactive)
REMARK                            x       y       z     vdW  Elec       q    Type
REMARK                         _______ _______ _______ _____ _____    ______ ____
ROOT
ATOM      1  N1  UNL     1     -22.060  10.134 -36.350  0.00  0.00    +0.000 NA
ATOM      2  C1  UNL     1     -21.367   9.332 -37.064  0.00  0.00    +0.000 A 
ATOM      3  N2  UNL     1     -20.179   9.679 -37.592  0.00  0.00    +0.000 N 
ATOM      4  C2  UNL     1     -19.439   8.824 -38.354  0.00  0.00    +0.000 A 
ATOM      5  O1  UNL     1     -18.357   9.156 -38.829  0.00  0.00    +0.000 OA
ATOM      6  N3  UNL     1     -19.970   7.586 -38.557  0.00  0.00    +0.000 N 
ATOM      7  C3  UNL     1     -21.167   7.175 -38.050  0.00  0.00    +0.000 A 
ATOM      8  O2  UNL     1     -21.606   6.050 -38.258  0.00  0.00    +0.000 OA
ATOM      9  N4  UNL     1     -21.837   8.094 -37.301  0.00  0.00    +0.000 N 
ATOM     10  H1  UNL     1     -21.589  11.036 -36.250  0.00  0.00    +0.000 HD
ATOM     11  H2  UNL     1     -19.785  10.594 -37.444  0.00  0.00    +0.000 HD
ATOM     12  H3  UNL     1     -19.447   6.931 -39.116  0.00  0.00    +0.000 HD
ATOM     13  H4  UNL     1     -22.728   7.836 -36.904  0.00  0.00    +0.000 HD
ENDROOT
TORSDOF 0
ENDMDL
MODEL 9
REMARK VINA RESULT:    -3.783      7.462      8.698
REMARK INTER + INTRA:          -3.783
REMARK INTER:                  -3.783
REMARK INTRA:                   0.000
REMARK UNBOUND:                 0.000
REMARK  Name = /home/anacleto/Desktop/manuscript_Mpro/naturecomm/supplementary_file_S2/6-chemical-library/molecular_docking/3D_ligand_structure/4.pdb
REMARK  0 active torsions:
REMARK  status: ('A' for Active; 'I' for Inactive)
REMARK                            x       y       z     vdW  Elec       q    Type
REMARK                         _______ _______ _______ _____ _____    ______ ____
ROOT
ATOM      1  N1  UNL     1     -28.075  -2.971 -28.492  0.00  0.00    +0.000 NA
ATOM      2  C1  UNL     1     -26.935  -3.350 -28.055  0.00  0.00    +0.000 A 
ATOM      3  N2  UNL     1     -25.799  -3.172 -28.753  0.00  0.00    +0.000 N 
ATOM      4  C2  UNL     1     -24.582  -3.575 -28.288  0.00  0.00    +0.000 A 
ATOM      5  O1  UNL     1     -23.555  -3.405 -28.938  0.00  0.00    +0.000 OA
ATOM      6  N3  UNL     1     -24.576  -4.175 -27.066  0.00  0.00    +0.000 N 
ATOM      7  C3  UNL     1     -25.691  -4.384 -26.310  0.00  0.00    +0.000 A 
ATOM      8  O2  UNL     1     -25.638  -4.929 -25.214  0.00  0.00    +0.000 OA
ATOM      9  N4  UNL     1     -26.861  -3.950 -26.854  0.00  0.00    +0.000 N 
ATOM     10  H1  UNL     1     -27.988  -2.533 -29.412  0.00  0.00    +0.000 HD
ATOM     11  H2  UNL     1     -25.802  -2.728 -29.658  0.00  0.00    +0.000 HD
ATOM     12  H3  UNL     1     -23.691  -4.485 -26.694  0.00  0.00    +0.000 HD
ATOM     13  H4  UNL     1     -27.714  -4.082 -26.331  0.00  0.00    +0.000 HD
ENDROOT
TORSDOF 0
ENDMDL
