MODEL 1
REMARK VINA RESULT:    -4.913      0.000      0.000
REMARK INTER + INTRA:          -6.799
REMARK INTER:                  -6.147
REMARK INTRA:                  -0.652
REMARK UNBOUND:                -0.737
REMARK  Name = /home/anacleto/Desktop/manuscript_Mpro/naturecomm/supplementary_file_S2/6-chemical-library/molecular_docking/3D_ligand_structure/540.pdb
REMARK  4 active torsions:
REMARK  status: ('A' for Active; 'I' for Inactive)
REMARK    1  A    between atoms: N3_5  and  C3_6
REMARK    2  A    between atoms: C3_6  and  C4_7
REMARK    3  A    between atoms: N4_9  and  C5_10
REMARK    4  A    between atoms: C5_10  and  C6_11
REMARK                            x       y       z     vdW  Elec       q    Type
REMARK                         _______ _______ _______ _____ _____    ______ ____
ROOT
ATOM      1  C4  UNL     1     -22.619   6.101 -38.387  0.00  0.00    +0.000 C 
ATOM      2  O1  UNL     1     -22.966   5.310 -37.513  0.00  0.00    +0.000 OA
ATOM      3  N4  UNL     1     -23.209   6.139 -39.627  0.00  0.00    +0.000 N 
ATOM      4  H5  UNL     1     -22.796   6.679 -40.386  0.00  0.00    +0.000 HD
ENDROOT
BRANCH   1   5
ATOM      5  C3  UNL     1     -21.515   7.107 -38.170  0.00  0.00    +0.000 C 
BRANCH   5  10
ATOM      6  N1  UNL     1     -23.299   8.724 -37.971  0.00  0.00    +0.000 NA
ATOM      7  N2  UNL     1     -23.538   9.865 -37.338  0.00  0.00    +0.000 NA
ATOM      8  C1  UNL     1     -22.428  10.182 -36.606  0.00  0.00    +0.000 A 
ATOM      9  C2  UNL     1     -21.470   9.216 -36.783  0.00  0.00    +0.000 A 
ATOM     10  N3  UNL     1     -22.053   8.337 -37.646  0.00  0.00    +0.000 N 
ENDBRANCH   5  10
ENDBRANCH   1   5
BRANCH   3  11
ATOM     11  C5  UNL     1     -24.227   5.176 -40.007  0.00  0.00    +0.000 C 
BRANCH  11  12
ATOM     12  C6  UNL     1     -25.598   5.626 -39.491  0.00  0.00    +0.000 C 
ATOM     13  O2  UNL     1     -25.906   6.820 -39.491  0.00  0.00    +0.000 OA
ATOM     14  N5  UNL     1     -26.456   4.637 -39.038  0.00  0.00    +0.000 N 
ATOM     15  C7  UNL     1     -27.808   5.003 -38.608  0.00  0.00    +0.000 C 
ATOM     16  C8  UNL     1     -28.829   3.892 -38.911  0.00  0.00    +0.000 C 
ATOM     17  N6  UNL     1     -28.492   2.560 -38.382  0.00  0.00    +0.000 NA
ATOM     18  C9  UNL     1     -27.063   2.419 -38.070  0.00  0.00    +0.000 C 
ATOM     19  C10 UNL     1     -26.134   3.207 -39.010  0.00  0.00    +0.000 C 
ATOM     20  H12 UNL     1     -29.037   2.371 -37.541  0.00  0.00    +0.000 HD
ENDBRANCH  11  12
ENDBRANCH   3  11
TORSDOF 4
ENDMDL
MODEL 2
REMARK VINA RESULT:    -4.768      1.743      6.744
REMARK INTER + INTRA:          -6.620
REMARK INTER:                  -6.089
REMARK INTRA:                  -0.531
REMARK UNBOUND:                -0.737
REMARK  Name = /home/anacleto/Desktop/manuscript_Mpro/naturecomm/supplementary_file_S2/6-chemical-library/molecular_docking/3D_ligand_structure/540.pdb
REMARK  4 active torsions:
REMARK  status: ('A' for Active; 'I' for Inactive)
REMARK    1  A    between atoms: N3_5  and  C3_6
REMARK    2  A    between atoms: C3_6  and  C4_7
REMARK    3  A    between atoms: N4_9  and  C5_10
REMARK    4  A    between atoms: C5_10  and  C6_11
REMARK                            x       y       z     vdW  Elec       q    Type
REMARK                         _______ _______ _______ _____ _____    ______ ____
ROOT
ATOM      1  C4  UNL     1     -25.876   3.294 -38.818  0.00  0.00    +0.000 C 
ATOM      2  O1  UNL     1     -25.243   2.686 -39.679  0.00  0.00    +0.000 OA
ATOM      3  N4  UNL     1     -25.434   4.473 -38.269  0.00  0.00    +0.000 N 
ATOM      4  H5  UNL     1     -25.883   4.865 -37.443  0.00  0.00    +0.000 HD
ENDROOT
BRANCH   1   5
ATOM      5  C3  UNL     1     -27.200   2.797 -38.294  0.00  0.00    +0.000 C 
BRANCH   5  10
ATOM      6  N1  UNL     1     -28.720   4.673 -38.394  0.00  0.00    +0.000 NA
ATOM      7  N2  UNL     1     -29.699   5.117 -39.172  0.00  0.00    +0.000 NA
ATOM      8  C1  UNL     1     -29.866   4.223 -40.192  0.00  0.00    +0.000 A 
ATOM      9  C2  UNL     1     -28.969   3.193 -40.052  0.00  0.00    +0.000 A 
ATOM     10  N3  UNL     1     -28.287   3.512 -38.916  0.00  0.00    +0.000 N 
ENDBRANCH   5  10
ENDBRANCH   1   5
BRANCH   3  11
ATOM     11  C5  UNL     1     -24.137   5.025 -38.615  0.00  0.00    +0.000 C 
BRANCH  11  12
ATOM     12  C6  UNL     1     -24.184   6.556 -38.559  0.00  0.00    +0.000 C 
ATOM     13  O2  UNL     1     -25.243   7.158 -38.756  0.00  0.00    +0.000 OA
ATOM     14  N5  UNL     1     -22.998   7.213 -38.276  0.00  0.00    +0.000 N 
ATOM     15  C7  UNL     1     -23.002   8.671 -38.132  0.00  0.00    +0.000 C 
ATOM     16  C8  UNL     1     -21.966   9.152 -37.101  0.00  0.00    +0.000 C 
ATOM     17  N6  UNL     1     -20.586   8.687 -37.325  0.00  0.00    +0.000 NA
ATOM     18  C9  UNL     1     -20.521   7.504 -38.195  0.00  0.00    +0.000 C 
ATOM     19  C10 UNL     1     -21.714   6.545 -38.041  0.00  0.00    +0.000 C 
ATOM     20  H12 UNL     1     -20.030   9.435 -37.737  0.00  0.00    +0.000 HD
ENDBRANCH  11  12
ENDBRANCH   3  11
TORSDOF 4
ENDMDL
MODEL 3
REMARK VINA RESULT:    -4.685     14.639     16.320
REMARK INTER + INTRA:          -6.517
REMARK INTER:                  -5.786
REMARK INTRA:                  -0.731
REMARK UNBOUND:                -0.737
REMARK  Name = /home/anacleto/Desktop/manuscript_Mpro/naturecomm/supplementary_file_S2/6-chemical-library/molecular_docking/3D_ligand_structure/540.pdb
REMARK  4 active torsions:
REMARK  status: ('A' for Active; 'I' for Inactive)
REMARK    1  A    between atoms: N3_5  and  C3_6
REMARK    2  A    between atoms: C3_6  and  C4_7
REMARK    3  A    between atoms: N4_9  and  C5_10
REMARK    4  A    between atoms: C5_10  and  C6_11
REMARK                            x       y       z     vdW  Elec       q    Type
REMARK                         _______ _______ _______ _____ _____    ______ ____
ROOT
ATOM      1  C4  UNL     1     -25.266  -4.211 -26.648  0.00  0.00    +0.000 C 
ATOM      2  O1  UNL     1     -26.190  -3.708 -27.285  0.00  0.00    +0.000 OA
ATOM      3  N4  UNL     1     -23.966  -4.190 -27.091  0.00  0.00    +0.000 N 
ATOM      4  H5  UNL     1     -23.251  -4.756 -26.637  0.00  0.00    +0.000 HD
ENDROOT
BRANCH   1   5
ATOM      5  C3  UNL     1     -25.481  -4.890 -25.319  0.00  0.00    +0.000 C 
BRANCH   5  10
ATOM      6  N1  UNL     1     -24.338  -3.086 -24.189  0.00  0.00    +0.000 NA
ATOM      7  N2  UNL     1     -23.438  -2.930 -23.227  0.00  0.00    +0.000 NA
ATOM      8  C1  UNL     1     -23.078  -4.170 -22.779  0.00  0.00    +0.000 A 
ATOM      9  C2  UNL     1     -23.770  -5.129 -23.478  0.00  0.00    +0.000 A 
ATOM     10  N3  UNL     1     -24.531  -4.408 -24.348  0.00  0.00    +0.000 N 
ENDBRANCH   5  10
ENDBRANCH   1   5
BRANCH   3  11
ATOM     11  C5  UNL     1     -23.621  -3.645 -28.392  0.00  0.00    +0.000 C 
BRANCH  11  12
ATOM     12  C6  UNL     1     -23.342  -4.781 -29.382  0.00  0.00    +0.000 C 
ATOM     13  O2  UNL     1     -24.271  -5.348 -29.962  0.00  0.00    +0.000 OA
ATOM     14  N5  UNL     1     -22.016  -5.126 -29.587  0.00  0.00    +0.000 N 
ATOM     15  C7  UNL     1     -21.687  -6.150 -30.581  0.00  0.00    +0.000 C 
ATOM     16  C8  UNL     1     -20.337  -5.876 -31.266  0.00  0.00    +0.000 C 
ATOM     17  N6  UNL     1     -19.191  -5.691 -30.359  0.00  0.00    +0.000 NA
ATOM     18  C9  UNL     1     -19.603  -5.344 -28.991  0.00  0.00    +0.000 C 
ATOM     19  C10 UNL     1     -20.879  -4.487 -28.916  0.00  0.00    +0.000 C 
ATOM     20  H12 UNL     1     -18.628  -6.540 -30.332  0.00  0.00    +0.000 HD
ENDBRANCH  11  12
ENDBRANCH   3  11
TORSDOF 4
ENDMDL
MODEL 4
REMARK VINA RESULT:    -4.602     16.113     18.062
REMARK INTER + INTRA:          -6.415
REMARK INTER:                  -5.624
REMARK INTRA:                  -0.791
REMARK UNBOUND:                -0.737
REMARK  Name = /home/anacleto/Desktop/manuscript_Mpro/naturecomm/supplementary_file_S2/6-chemical-library/molecular_docking/3D_ligand_structure/540.pdb
REMARK  4 active torsions:
REMARK  status: ('A' for Active; 'I' for Inactive)
REMARK    1  A    between atoms: N3_5  and  C3_6
REMARK    2  A    between atoms: C3_6  and  C4_7
REMARK    3  A    between atoms: N4_9  and  C5_10
REMARK    4  A    between atoms: C5_10  and  C6_11
REMARK                            x       y       z     vdW  Elec       q    Type
REMARK                         _______ _______ _______ _____ _____    ______ ____
ROOT
ATOM      1  C4  UNL     1     -23.422  -3.545 -23.885  0.00  0.00    +0.000 C 
ATOM      2  O1  UNL     1     -24.284  -2.696 -24.104  0.00  0.00    +0.000 OA
ATOM      3  N4  UNL     1     -22.916  -4.356 -24.872  0.00  0.00    +0.000 N 
ATOM      4  H5  UNL     1     -22.335  -5.160 -24.640  0.00  0.00    +0.000 HD
ENDROOT
BRANCH   1   5
ATOM      5  C3  UNL     1     -22.838  -3.763 -22.512  0.00  0.00    +0.000 C 
BRANCH   5  10
ATOM      6  N1  UNL     1     -24.150  -5.789 -22.609  0.00  0.00    +0.000 NA
ATOM      7  N2  UNL     1     -24.586  -6.729 -21.781  0.00  0.00    +0.000 NA
ATOM      8  C1  UNL     1     -24.151  -6.420 -20.523  0.00  0.00    +0.000 A 
ATOM      9  C2  UNL     1     -23.422  -5.257 -20.562  0.00  0.00    +0.000 A 
ATOM     10  N3  UNL     1     -23.458  -4.898 -21.876  0.00  0.00    +0.000 N 
ENDBRANCH   5  10
ENDBRANCH   1   5
BRANCH   3  11
ATOM     11  C5  UNL     1     -23.444  -4.316 -26.224  0.00  0.00    +0.000 C 
BRANCH  11  12
ATOM     12  C6  UNL     1     -24.460  -5.445 -26.426  0.00  0.00    +0.000 C 
ATOM     13  O2  UNL     1     -24.105  -6.626 -26.372  0.00  0.00    +0.000 OA
ATOM     14  N5  UNL     1     -25.774  -5.075 -26.665  0.00  0.00    +0.000 N 
ATOM     15  C7  UNL     1     -26.800  -6.113 -26.787  0.00  0.00    +0.000 C 
ATOM     16  C8  UNL     1     -28.164  -5.641 -26.250  0.00  0.00    +0.000 C 
ATOM     17  N6  UNL     1     -28.670  -4.383 -26.825  0.00  0.00    +0.000 NA
ATOM     18  C9  UNL     1     -27.610  -3.577 -27.446  0.00  0.00    +0.000 C 
ATOM     19  C10 UNL     1     -26.244  -3.689 -26.746  0.00  0.00    +0.000 C 
ATOM     20  H12 UNL     1     -29.388  -4.583 -27.521  0.00  0.00    +0.000 HD
ENDBRANCH  11  12
ENDBRANCH   3  11
TORSDOF 4
ENDMDL
MODEL 5
REMARK VINA RESULT:    -4.601     14.099     16.254
REMARK INTER + INTRA:          -6.415
REMARK INTER:                  -5.677
REMARK INTRA:                  -0.737
REMARK UNBOUND:                -0.737
REMARK  Name = /home/anacleto/Desktop/manuscript_Mpro/naturecomm/supplementary_file_S2/6-chemical-library/molecular_docking/3D_ligand_structure/540.pdb
REMARK  4 active torsions:
REMARK  status: ('A' for Active; 'I' for Inactive)
REMARK    1  A    between atoms: N3_5  and  C3_6
REMARK    2  A    between atoms: C3_6  and  C4_7
REMARK    3  A    between atoms: N4_9  and  C5_10
REMARK    4  A    between atoms: C5_10  and  C6_11
REMARK                            x       y       z     vdW  Elec       q    Type
REMARK                         _______ _______ _______ _____ _____    ______ ____
ROOT
ATOM      1  C4  UNL     1     -26.655  -3.540 -27.930  0.00  0.00    +0.000 C 
ATOM      2  O1  UNL     1     -27.214  -2.948 -28.851  0.00  0.00    +0.000 OA
ATOM      3  N4  UNL     1     -25.297  -3.748 -27.900  0.00  0.00    +0.000 N 
ATOM      4  H5  UNL     1     -24.881  -4.384 -27.222  0.00  0.00    +0.000 HD
ENDROOT
BRANCH   1   5
ATOM      5  C3  UNL     1     -27.414  -4.084 -26.746  0.00  0.00    +0.000 C 
BRANCH   5  10
ATOM      6  N1  UNL     1     -26.568  -6.308 -27.162  0.00  0.00    +0.000 NA
ATOM      7  N2  UNL     1     -26.007  -7.300 -26.483  0.00  0.00    +0.000 NA
ATOM      8  C1  UNL     1     -25.903  -6.911 -25.177  0.00  0.00    +0.000 A 
ATOM      9  C2  UNL     1     -26.410  -5.643 -25.033  0.00  0.00    +0.000 A 
ATOM     10  N3  UNL     1     -26.820  -5.316 -26.290  0.00  0.00    +0.000 N 
ENDBRANCH   5  10
ENDBRANCH   1   5
BRANCH   3  11
ATOM     11  C5  UNL     1     -24.450  -3.355 -29.012  0.00  0.00    +0.000 C 
BRANCH  11  12
ATOM     12  C6  UNL     1     -23.663  -4.564 -29.529  0.00  0.00    +0.000 C 
ATOM     13  O2  UNL     1     -24.217  -5.424 -30.218  0.00  0.00    +0.000 OA
ATOM     14  N5  UNL     1     -22.322  -4.634 -29.190  0.00  0.00    +0.000 N 
ATOM     15  C7  UNL     1     -21.504  -5.726 -29.722  0.00  0.00    +0.000 C 
ATOM     16  C8  UNL     1     -20.049  -5.289 -29.970  0.00  0.00    +0.000 C 
ATOM     17  N6  UNL     1     -19.364  -4.684 -28.816  0.00  0.00    +0.000 NA
ATOM     18  C9  UNL     1     -20.300  -4.188 -27.797  0.00  0.00    +0.000 C 
ATOM     19  C10 UNL     1     -21.620  -3.642 -28.369  0.00  0.00    +0.000 C 
ATOM     20  H12 UNL     1     -18.736  -5.364 -28.388  0.00  0.00    +0.000 HD
ENDBRANCH  11  12
ENDBRANCH   3  11
TORSDOF 4
ENDMDL
MODEL 6
REMARK VINA RESULT:    -4.471     14.656     16.494
REMARK INTER + INTRA:          -6.254
REMARK INTER:                  -5.775
REMARK INTRA:                  -0.479
REMARK UNBOUND:                -0.737
REMARK  Name = /home/anacleto/Desktop/manuscript_Mpro/naturecomm/supplementary_file_S2/6-chemical-library/molecular_docking/3D_ligand_structure/540.pdb
REMARK  4 active torsions:
REMARK  status: ('A' for Active; 'I' for Inactive)
REMARK    1  A    between atoms: N3_5  and  C3_6
REMARK    2  A    between atoms: C3_6  and  C4_7
REMARK    3  A    between atoms: N4_9  and  C5_10
REMARK    4  A    between atoms: C5_10  and  C6_11
REMARK                            x       y       z     vdW  Elec       q    Type
REMARK                         _______ _______ _______ _____ _____    ______ ____
ROOT
ATOM      1  C4  UNL     1     -23.346  -3.856 -28.435  0.00  0.00    +0.000 C 
ATOM      2  O1  UNL     1     -23.741  -4.318 -29.504  0.00  0.00    +0.000 OA
ATOM      3  N4  UNL     1     -24.105  -3.888 -27.291  0.00  0.00    +0.000 N 
ATOM      4  H5  UNL     1     -23.833  -3.352 -26.469  0.00  0.00    +0.000 HD
ENDROOT
BRANCH   1   5
ATOM      5  C3  UNL     1     -21.987  -3.220 -28.287  0.00  0.00    +0.000 C 
BRANCH   5  10
ATOM      6  N1  UNL     1     -21.364  -5.496 -27.768  0.00  0.00    +0.000 NA
ATOM      7  N2  UNL     1     -20.262  -6.192 -27.521  0.00  0.00    +0.000 NA
ATOM      8  C1  UNL     1     -19.199  -5.335 -27.580  0.00  0.00    +0.000 A 
ATOM      9  C2  UNL     1     -19.645  -4.070 -27.873  0.00  0.00    +0.000 A 
ATOM     10  N3  UNL     1     -20.996  -4.219 -27.971  0.00  0.00    +0.000 N 
ENDBRANCH   5  10
ENDBRANCH   1   5
BRANCH   3  11
ATOM     11  C5  UNL     1     -25.467  -4.393 -27.303  0.00  0.00    +0.000 C 
BRANCH  11  12
ATOM     12  C6  UNL     1     -25.654  -5.429 -26.190  0.00  0.00    +0.000 C 
ATOM     13  O2  UNL     1     -24.677  -5.954 -25.652  0.00  0.00    +0.000 OA
ATOM     14  N5  UNL     1     -26.956  -5.734 -25.826  0.00  0.00    +0.000 N 
ATOM     15  C7  UNL     1     -27.192  -6.658 -24.715  0.00  0.00    +0.000 C 
ATOM     16  C8  UNL     1     -28.468  -6.303 -23.930  0.00  0.00    +0.000 C 
ATOM     17  N6  UNL     1     -29.695  -6.185 -24.736  0.00  0.00    +0.000 NA
ATOM     18  C9  UNL     1     -29.417  -5.971 -26.164  0.00  0.00    +0.000 C 
ATOM     19  C10 UNL     1     -28.150  -5.143 -26.440  0.00  0.00    +0.000 C 
ATOM     20  H12 UNL     1     -30.263  -7.024 -24.629  0.00  0.00    +0.000 HD
ENDBRANCH  11  12
ENDBRANCH   3  11
TORSDOF 4
ENDMDL
MODEL 7
REMARK VINA RESULT:    -4.453      1.575      6.987
REMARK INTER + INTRA:          -6.231
REMARK INTER:                  -5.664
REMARK INTRA:                  -0.568
REMARK UNBOUND:                -0.737
REMARK  Name = /home/anacleto/Desktop/manuscript_Mpro/naturecomm/supplementary_file_S2/6-chemical-library/molecular_docking/3D_ligand_structure/540.pdb
REMARK  4 active torsions:
REMARK  status: ('A' for Active; 'I' for Inactive)
REMARK    1  A    between atoms: N3_5  and  C3_6
REMARK    2  A    between atoms: C3_6  and  C4_7
REMARK    3  A    between atoms: N4_9  and  C5_10
REMARK    4  A    between atoms: C5_10  and  C6_11
REMARK                            x       y       z     vdW  Elec       q    Type
REMARK                         _______ _______ _______ _____ _____    ______ ____
ROOT
ATOM      1  C4  UNL     1     -27.147   6.711 -39.285  0.00  0.00    +0.000 C 
ATOM      2  O1  UNL     1     -27.683   7.692 -38.773  0.00  0.00    +0.000 OA
ATOM      3  N4  UNL     1     -25.788   6.513 -39.259  0.00  0.00    +0.000 N 
ATOM      4  H5  UNL     1     -25.355   5.791 -39.832  0.00  0.00    +0.000 HD
ENDROOT
BRANCH   1   5
ATOM      5  C3  UNL     1     -27.941   5.634 -39.982  0.00  0.00    +0.000 C 
BRANCH   5  10
ATOM      6  N1  UNL     1     -26.526   3.680 -39.851  0.00  0.00    +0.000 NA
ATOM      7  N2  UNL     1     -26.466   2.542 -39.171  0.00  0.00    +0.000 NA
ATOM      8  C1  UNL     1     -27.532   2.503 -38.316  0.00  0.00    +0.000 A 
ATOM      9  C2  UNL     1     -28.279   3.646 -38.462  0.00  0.00    +0.000 A 
ATOM     10  N3  UNL     1     -27.621   4.340 -39.433  0.00  0.00    +0.000 N 
ENDBRANCH   5  10
ENDBRANCH   1   5
BRANCH   3  11
ATOM     11  C5  UNL     1     -24.892   7.508 -38.697  0.00  0.00    +0.000 C 
BRANCH  11  12
ATOM     12  C6  UNL     1     -23.502   6.901 -38.477  0.00  0.00    +0.000 C 
ATOM     13  O2  UNL     1     -23.308   5.697 -38.662  0.00  0.00    +0.000 OA
ATOM     14  N5  UNL     1     -22.496   7.762 -38.070  0.00  0.00    +0.000 N 
ATOM     15  C7  UNL     1     -21.132   7.251 -37.921  0.00  0.00    +0.000 C 
ATOM     16  C8  UNL     1     -20.076   8.315 -38.270  0.00  0.00    +0.000 C 
ATOM     17  N6  UNL     1     -20.201   9.592 -37.547  0.00  0.00    +0.000 NA
ATOM     18  C9  UNL     1     -21.542   9.794 -36.982  0.00  0.00    +0.000 C 
ATOM     19  C10 UNL     1     -22.679   9.197 -37.830  0.00  0.00    +0.000 C 
ATOM     20  H12 UNL     1     -19.512   9.635 -36.796  0.00  0.00    +0.000 HD
ENDBRANCH  11  12
ENDBRANCH   3  11
TORSDOF 4
ENDMDL
MODEL 8
REMARK VINA RESULT:    -4.444     18.365     20.312
REMARK INTER + INTRA:          -6.220
REMARK INTER:                  -5.565
REMARK INTRA:                  -0.655
REMARK UNBOUND:                -0.737
REMARK  Name = /home/anacleto/Desktop/manuscript_Mpro/naturecomm/supplementary_file_S2/6-chemical-library/molecular_docking/3D_ligand_structure/540.pdb
REMARK  4 active torsions:
REMARK  status: ('A' for Active; 'I' for Inactive)
REMARK    1  A    between atoms: N3_5  and  C3_6
REMARK    2  A    between atoms: C3_6  and  C4_7
REMARK    3  A    between atoms: N4_9  and  C5_10
REMARK    4  A    between atoms: C5_10  and  C6_11
REMARK                            x       y       z     vdW  Elec       q    Type
REMARK                         _______ _______ _______ _____ _____    ______ ____
ROOT
ATOM      1  C4  UNL     1     -23.399  -5.451 -20.255  0.00  0.00    +0.000 C 
ATOM      2  O1  UNL     1     -22.845  -6.526 -20.475  0.00  0.00    +0.000 OA
ATOM      3  N4  UNL     1     -23.720  -4.566 -21.256  0.00  0.00    +0.000 N 
ATOM      4  H5  UNL     1     -24.017  -3.617 -21.037  0.00  0.00    +0.000 HD
ENDROOT
BRANCH   1   5
ATOM      5  C3  UNL     1     -23.781  -5.013 -18.863  0.00  0.00    +0.000 C 
BRANCH   5  10
ATOM      6  N1  UNL     1     -26.059  -5.432 -19.551  0.00  0.00    +0.000 NA
ATOM      7  N2  UNL     1     -27.201  -5.836 -19.010  0.00  0.00    +0.000 NA
ATOM      8  C1  UNL     1     -26.981  -6.062 -17.680  0.00  0.00    +0.000 A 
ATOM      9  C2  UNL     1     -25.668  -5.794 -17.379  0.00  0.00    +0.000 A 
ATOM     10  N3  UNL     1     -25.139  -5.397 -18.570  0.00  0.00    +0.000 N 
ENDBRANCH   5  10
ENDBRANCH   1   5
BRANCH   3  11
ATOM     11  C5  UNL     1     -23.337  -4.816 -22.634  0.00  0.00    +0.000 C 
BRANCH  11  12
ATOM     12  C6  UNL     1     -24.571  -5.181 -23.466  0.00  0.00    +0.000 C 
ATOM     13  O2  UNL     1     -25.502  -5.814 -22.961  0.00  0.00    +0.000 OA
ATOM     14  N5  UNL     1     -24.585  -4.766 -24.787  0.00  0.00    +0.000 N 
ATOM     15  C7  UNL     1     -25.773  -5.020 -25.606  0.00  0.00    +0.000 C 
ATOM     16  C8  UNL     1     -26.005  -3.908 -26.645  0.00  0.00    +0.000 C 
ATOM     17  N6  UNL     1     -24.861  -3.613 -27.524  0.00  0.00    +0.000 NA
ATOM     18  C9  UNL     1     -23.584  -4.087 -26.970  0.00  0.00    +0.000 C 
ATOM     19  C10 UNL     1     -23.501  -4.020 -25.435  0.00  0.00    +0.000 C 
ATOM     20  H12 UNL     1     -25.006  -4.039 -28.438  0.00  0.00    +0.000 HD
ENDBRANCH  11  12
ENDBRANCH   3  11
TORSDOF 4
ENDMDL
MODEL 9
REMARK VINA RESULT:    -4.346     16.621     18.748
REMARK INTER + INTRA:          -6.099
REMARK INTER:                  -5.362
REMARK INTRA:                  -0.737
REMARK UNBOUND:                -0.737
REMARK  Name = /home/anacleto/Desktop/manuscript_Mpro/naturecomm/supplementary_file_S2/6-chemical-library/molecular_docking/3D_ligand_structure/540.pdb
REMARK  4 active torsions:
REMARK  status: ('A' for Active; 'I' for Inactive)
REMARK    1  A    between atoms: N3_5  and  C3_6
REMARK    2  A    between atoms: C3_6  and  C4_7
REMARK    3  A    between atoms: N4_9  and  C5_10
REMARK    4  A    between atoms: C5_10  and  C6_11
REMARK                            x       y       z     vdW  Elec       q    Type
REMARK                         _______ _______ _______ _____ _____    ______ ____
ROOT
ATOM      1  C4  UNL     1     -23.612  -4.760 -22.644  0.00  0.00    +0.000 C 
ATOM      2  O1  UNL     1     -23.456  -3.595 -23.005  0.00  0.00    +0.000 OA
ATOM      3  N4  UNL     1     -23.863  -5.781 -23.528  0.00  0.00    +0.000 N 
ATOM      4  H5  UNL     1     -24.158  -6.698 -23.197  0.00  0.00    +0.000 HD
ENDROOT
BRANCH   1   5
ATOM      5  C3  UNL     1     -23.535  -5.170 -21.195  0.00  0.00    +0.000 C 
BRANCH   5  10
ATOM      6  N1  UNL     1     -25.940  -5.302 -21.378  0.00  0.00    +0.000 NA
ATOM      7  N2  UNL     1     -26.949  -5.914 -20.773  0.00  0.00    +0.000 NA
ATOM      8  C1  UNL     1     -26.437  -6.670 -19.756  0.00  0.00    +0.000 A 
ATOM      9  C2  UNL     1     -25.071  -6.530 -19.723  0.00  0.00    +0.000 A 
ATOM     10  N3  UNL     1     -24.811  -5.663 -20.743  0.00  0.00    +0.000 N 
ENDBRANCH   5  10
ENDBRANCH   1   5
BRANCH   3  11
ATOM     11  C5  UNL     1     -24.049  -5.522 -24.945  0.00  0.00    +0.000 C 
BRANCH  11  12
ATOM     12  C6  UNL     1     -25.540  -5.557 -25.296  0.00  0.00    +0.000 C 
ATOM     13  O2  UNL     1     -26.324  -6.241 -24.633  0.00  0.00    +0.000 OA
ATOM     14  N5  UNL     1     -25.952  -4.790 -26.374  0.00  0.00    +0.000 N 
ATOM     15  C7  UNL     1     -27.377  -4.725 -26.705  0.00  0.00    +0.000 C 
ATOM     16  C8  UNL     1     -27.772  -3.355 -27.285  0.00  0.00    +0.000 C 
ATOM     17  N6  UNL     1     -26.981  -2.905 -28.443  0.00  0.00    +0.000 NA
ATOM     18  C9  UNL     1     -25.690  -3.599 -28.551  0.00  0.00    +0.000 C 
ATOM     19  C10 UNL     1     -25.059  -3.968 -27.197  0.00  0.00    +0.000 C 
ATOM     20  H12 UNL     1     -27.510  -3.048 -29.302  0.00  0.00    +0.000 HD
ENDBRANCH  11  12
ENDBRANCH   3  11
TORSDOF 4
ENDMDL
