MODEL 1
REMARK VINA RESULT:    -4.368      0.000      0.000
REMARK INTER + INTRA:          -9.229
REMARK INTER:                  -6.051
REMARK INTRA:                  -3.178
REMARK UNBOUND:                -3.074
REMARK  Name = /home/anacleto/Desktop/manuscript_Mpro/naturecomm/supplementary_file_S2/6-chemical-library/molecular_docking/3D_ligand_structure/571.pdb
REMARK  7 active torsions:
REMARK  status: ('A' for Active; 'I' for Inactive)
REMARK    1  A    between atoms: C6_6  and  C7_7
REMARK    2  A    between atoms: C7_7  and  C8_8
REMARK    3  A    between atoms: C8_8  and  C9_9
REMARK    4  A    between atoms: C9_9  and  C10_10
REMARK    5  A    between atoms: C10_10  and  C11_11
REMARK    6  A    between atoms: C11_11  and  C12_12
REMARK    7  A    between atoms: C12_12  and  C13_13
REMARK                            x       y       z     vdW  Elec       q    Type
REMARK                         _______ _______ _______ _____ _____    ______ ____
ROOT
ATOM      1  C9  UNL     1      18.980   2.054  10.303  0.00  0.00    +0.000 C 
ENDROOT
BRANCH   1   2
ATOM      2  C8  UNL     1      19.061   2.968  11.533  0.00  0.00    +0.000 C 
BRANCH   2   3
ATOM      3  C7  UNL     1      18.218   4.248  11.460  0.00  0.00    +0.000 C 
BRANCH   3   9
ATOM      4  C1  UNL     1      18.264   6.711  12.022  0.00  0.00    +0.000 A 
ATOM      5  C2  UNL     1      18.916   7.845  12.511  0.00  0.00    +0.000 A 
ATOM      6  C3  UNL     1      20.225   7.752  12.978  0.00  0.00    +0.000 A 
ATOM      7  C4  UNL     1      20.884   6.524  12.958  0.00  0.00    +0.000 A 
ATOM      8  C5  UNL     1      20.234   5.389  12.470  0.00  0.00    +0.000 A 
ATOM      9  C6  UNL     1      18.918   5.472  11.996  0.00  0.00    +0.000 A 
ENDBRANCH   3   9
ENDBRANCH   2   3
ENDBRANCH   1   2
BRANCH   1  10
ATOM     10  C10 UNL     1      20.317   1.895   9.576  0.00  0.00    +0.000 C 
BRANCH  10  11
ATOM     11  C11 UNL     1      21.313   3.022   9.880  0.00  0.00    +0.000 C 
BRANCH  11  12
ATOM     12  C12 UNL     1      21.661   3.931   8.695  0.00  0.00    +0.000 C 
BRANCH  12  13
ATOM     13  C13 UNL     1      21.014   5.292   8.758  0.00  0.00    +0.000 A 
ATOM     14  C14 UNL     1      21.718   6.393   9.267  0.00  0.00    +0.000 A 
ATOM     15  C15 UNL     1      21.122   7.653   9.319  0.00  0.00    +0.000 A 
ATOM     16  C16 UNL     1      19.816   7.827   8.864  0.00  0.00    +0.000 A 
ATOM     17  C17 UNL     1      19.105   6.740   8.357  0.00  0.00    +0.000 A 
ATOM     18  C18 UNL     1      19.701   5.479   8.306  0.00  0.00    +0.000 A 
ENDBRANCH  12  13
ENDBRANCH  11  12
ENDBRANCH  10  11
ENDBRANCH   1  10
TORSDOF 7
ENDMDL
MODEL 2
REMARK VINA RESULT:    -4.251      1.591      4.617
REMARK INTER + INTRA:          -9.065
REMARK INTER:                  -5.985
REMARK INTRA:                  -3.080
REMARK UNBOUND:                -3.074
REMARK  Name = /home/anacleto/Desktop/manuscript_Mpro/naturecomm/supplementary_file_S2/6-chemical-library/molecular_docking/3D_ligand_structure/571.pdb
REMARK  7 active torsions:
REMARK  status: ('A' for Active; 'I' for Inactive)
REMARK    1  A    between atoms: C6_6  and  C7_7
REMARK    2  A    between atoms: C7_7  and  C8_8
REMARK    3  A    between atoms: C8_8  and  C9_9
REMARK    4  A    between atoms: C9_9  and  C10_10
REMARK    5  A    between atoms: C10_10  and  C11_11
REMARK    6  A    between atoms: C11_11  and  C12_12
REMARK    7  A    between atoms: C12_12  and  C13_13
REMARK                            x       y       z     vdW  Elec       q    Type
REMARK                         _______ _______ _______ _____ _____    ______ ____
ROOT
ATOM      1  C9  UNL     1      24.329   4.905  11.200  0.00  0.00    +0.000 C 
ENDROOT
BRANCH   1   2
ATOM      2  C8  UNL     1      23.753   5.387   9.862  0.00  0.00    +0.000 C 
BRANCH   2   3
ATOM      3  C7  UNL     1      22.499   4.647   9.379  0.00  0.00    +0.000 C 
BRANCH   3   9
ATOM      4  C1  UNL     1      21.433   6.937   9.284  0.00  0.00    +0.000 A 
ATOM      5  C2  UNL     1      20.339   7.771   9.048  0.00  0.00    +0.000 A 
ATOM      6  C3  UNL     1      19.121   7.228   8.641  0.00  0.00    +0.000 A 
ATOM      7  C4  UNL     1      18.998   5.850   8.470  0.00  0.00    +0.000 A 
ATOM      8  C5  UNL     1      20.091   5.015   8.705  0.00  0.00    +0.000 A 
ATOM      9  C6  UNL     1      21.319   5.550   9.116  0.00  0.00    +0.000 A 
ENDBRANCH   3   9
ENDBRANCH   2   3
ENDBRANCH   1   2
BRANCH   1  10
ATOM     10  C10 UNL     1      24.558   6.036  12.205  0.00  0.00    +0.000 C 
BRANCH  10  11
ATOM     11  C11 UNL     1      23.261   6.714  12.665  0.00  0.00    +0.000 C 
BRANCH  11  12
ATOM     12  C12 UNL     1      22.188   5.772  13.225  0.00  0.00    +0.000 C 
BRANCH  12  13
ATOM     13  C13 UNL     1      20.778   6.170  12.865  0.00  0.00    +0.000 A 
ATOM     14  C14 UNL     1      20.381   7.513  12.920  0.00  0.00    +0.000 A 
ATOM     15  C15 UNL     1      19.078   7.882  12.581  0.00  0.00    +0.000 A 
ATOM     16  C16 UNL     1      18.159   6.913  12.185  0.00  0.00    +0.000 A 
ATOM     17  C17 UNL     1      18.542   5.574  12.127  0.00  0.00    +0.000 A 
ATOM     18  C18 UNL     1      19.844   5.204  12.467  0.00  0.00    +0.000 A 
ENDBRANCH  12  13
ENDBRANCH  11  12
ENDBRANCH  10  11
ENDBRANCH   1  10
TORSDOF 7
ENDMDL
MODEL 3
REMARK VINA RESULT:    -4.225      1.140      3.777
REMARK INTER + INTRA:          -9.027
REMARK INTER:                  -5.911
REMARK INTRA:                  -3.116
REMARK UNBOUND:                -3.074
REMARK  Name = /home/anacleto/Desktop/manuscript_Mpro/naturecomm/supplementary_file_S2/6-chemical-library/molecular_docking/3D_ligand_structure/571.pdb
REMARK  7 active torsions:
REMARK  status: ('A' for Active; 'I' for Inactive)
REMARK    1  A    between atoms: C6_6  and  C7_7
REMARK    2  A    between atoms: C7_7  and  C8_8
REMARK    3  A    between atoms: C8_8  and  C9_9
REMARK    4  A    between atoms: C9_9  and  C10_10
REMARK    5  A    between atoms: C10_10  and  C11_11
REMARK    6  A    between atoms: C11_11  and  C12_12
REMARK    7  A    between atoms: C12_12  and  C13_13
REMARK                            x       y       z     vdW  Elec       q    Type
REMARK                         _______ _______ _______ _____ _____    ______ ____
ROOT
ATOM      1  C9  UNL     1      17.690   2.249  10.329  0.00  0.00    +0.000 C 
ENDROOT
BRANCH   1   2
ATOM      2  C8  UNL     1      18.523   2.951   9.248  0.00  0.00    +0.000 C 
BRANCH   2   3
ATOM      3  C7  UNL     1      18.087   4.382   8.905  0.00  0.00    +0.000 C 
BRANCH   3   9
ATOM      4  C1  UNL     1      18.905   6.773   8.919  0.00  0.00    +0.000 A 
ATOM      5  C2  UNL     1      19.923   7.720   9.043  0.00  0.00    +0.000 A 
ATOM      6  C3  UNL     1      21.231   7.311   9.298  0.00  0.00    +0.000 A 
ATOM      7  C4  UNL     1      21.521   5.953   9.428  0.00  0.00    +0.000 A 
ATOM      8  C5  UNL     1      20.504   5.005   9.304  0.00  0.00    +0.000 A 
ATOM      9  C6  UNL     1      19.186   5.406   9.047  0.00  0.00    +0.000 A 
ENDBRANCH   3   9
ENDBRANCH   2   3
ENDBRANCH   1   2
BRANCH   1  10
ATOM     10  C10 UNL     1      16.707   3.182  11.038  0.00  0.00    +0.000 C 
BRANCH  10  11
ATOM     11  C11 UNL     1      17.091   3.479  12.494  0.00  0.00    +0.000 C 
BRANCH  11  12
ATOM     12  C12 UNL     1      18.578   3.765  12.737  0.00  0.00    +0.000 C 
BRANCH  12  13
ATOM     13  C13 UNL     1      18.925   5.233  12.738  0.00  0.00    +0.000 A 
ATOM     14  C14 UNL     1      20.244   5.653  12.963  0.00  0.00    +0.000 A 
ATOM     15  C15 UNL     1      20.567   7.011  12.957  0.00  0.00    +0.000 A 
ATOM     16  C16 UNL     1      19.576   7.963  12.726  0.00  0.00    +0.000 A 
ATOM     17  C17 UNL     1      18.261   7.558  12.502  0.00  0.00    +0.000 A 
ATOM     18  C18 UNL     1      17.937   6.200  12.509  0.00  0.00    +0.000 A 
ENDBRANCH  12  13
ENDBRANCH  11  12
ENDBRANCH  10  11
ENDBRANCH   1  10
TORSDOF 7
ENDMDL
MODEL 4
REMARK VINA RESULT:    -4.064      1.313      2.115
REMARK INTER + INTRA:          -8.801
REMARK INTER:                  -5.709
REMARK INTRA:                  -3.092
REMARK UNBOUND:                -3.074
REMARK  Name = /home/anacleto/Desktop/manuscript_Mpro/naturecomm/supplementary_file_S2/6-chemical-library/molecular_docking/3D_ligand_structure/571.pdb
REMARK  7 active torsions:
REMARK  status: ('A' for Active; 'I' for Inactive)
REMARK    1  A    between atoms: C6_6  and  C7_7
REMARK    2  A    between atoms: C7_7  and  C8_8
REMARK    3  A    between atoms: C8_8  and  C9_9
REMARK    4  A    between atoms: C9_9  and  C10_10
REMARK    5  A    between atoms: C10_10  and  C11_11
REMARK    6  A    between atoms: C11_11  and  C12_12
REMARK    7  A    between atoms: C12_12  and  C13_13
REMARK                            x       y       z     vdW  Elec       q    Type
REMARK                         _______ _______ _______ _____ _____    ______ ____
ROOT
ATOM      1  C9  UNL     1      17.135   2.303  11.349  0.00  0.00    +0.000 C 
ENDROOT
BRANCH   1   2
ATOM      2  C8  UNL     1      17.442   3.100  12.624  0.00  0.00    +0.000 C 
BRANCH   2   3
ATOM      3  C7  UNL     1      17.002   4.570  12.604  0.00  0.00    +0.000 C 
BRANCH   3   9
ATOM      4  C1  UNL     1      17.939   6.903  12.340  0.00  0.00    +0.000 A 
ATOM      5  C2  UNL     1      19.001   7.808  12.372  0.00  0.00    +0.000 A 
ATOM      6  C3  UNL     1      20.281   7.373  12.707  0.00  0.00    +0.000 A 
ATOM      7  C4  UNL     1      20.500   6.030  13.013  0.00  0.00    +0.000 A 
ATOM      8  C5  UNL     1      19.439   5.124  12.983  0.00  0.00    +0.000 A 
ATOM      9  C6  UNL     1      18.148   5.551  12.645  0.00  0.00    +0.000 A 
ENDBRANCH   3   9
ENDBRANCH   2   3
ENDBRANCH   1   2
BRANCH   1  10
ATOM     10  C10 UNL     1      16.531   3.155  10.231  0.00  0.00    +0.000 C 
BRANCH  10  11
ATOM     11  C11 UNL     1      17.505   3.423   9.076  0.00  0.00    +0.000 C 
BRANCH  11  12
ATOM     12  C12 UNL     1      18.991   3.440   9.457  0.00  0.00    +0.000 C 
BRANCH  12  13
ATOM     13  C13 UNL     1      19.649   4.787   9.290  0.00  0.00    +0.000 A 
ATOM     14  C14 UNL     1      18.911   5.891   8.841  0.00  0.00    +0.000 A 
ATOM     15  C15 UNL     1      19.518   7.138   8.693  0.00  0.00    +0.000 A 
ATOM     16  C16 UNL     1      20.870   7.296   8.992  0.00  0.00    +0.000 A 
ATOM     17  C17 UNL     1      21.615   6.207   9.440  0.00  0.00    +0.000 A 
ATOM     18  C18 UNL     1      21.008   4.958   9.587  0.00  0.00    +0.000 A 
ENDBRANCH  12  13
ENDBRANCH  11  12
ENDBRANCH  10  11
ENDBRANCH   1  10
TORSDOF 7
ENDMDL
MODEL 5
REMARK VINA RESULT:    -4.030      1.115      4.133
REMARK INTER + INTRA:          -8.753
REMARK INTER:                  -5.707
REMARK INTRA:                  -3.046
REMARK UNBOUND:                -3.074
REMARK  Name = /home/anacleto/Desktop/manuscript_Mpro/naturecomm/supplementary_file_S2/6-chemical-library/molecular_docking/3D_ligand_structure/571.pdb
REMARK  7 active torsions:
REMARK  status: ('A' for Active; 'I' for Inactive)
REMARK    1  A    between atoms: C6_6  and  C7_7
REMARK    2  A    between atoms: C7_7  and  C8_8
REMARK    3  A    between atoms: C8_8  and  C9_9
REMARK    4  A    between atoms: C9_9  and  C10_10
REMARK    5  A    between atoms: C10_10  and  C11_11
REMARK    6  A    between atoms: C11_11  and  C12_12
REMARK    7  A    between atoms: C12_12  and  C13_13
REMARK                            x       y       z     vdW  Elec       q    Type
REMARK                         _______ _______ _______ _____ _____    ______ ____
ROOT
ATOM      1  C9  UNL     1      23.466   2.930   9.790  0.00  0.00    +0.000 C 
ENDROOT
BRANCH   1   2
ATOM      2  C8  UNL     1      23.007   3.945   8.735  0.00  0.00    +0.000 C 
BRANCH   2   3
ATOM      3  C7  UNL     1      22.865   5.391   9.229  0.00  0.00    +0.000 C 
BRANCH   3   9
ATOM      4  C1  UNL     1      21.285   7.363   9.179  0.00  0.00    +0.000 A 
ATOM      5  C2  UNL     1      20.027   7.920   8.942  0.00  0.00    +0.000 A 
ATOM      6  C3  UNL     1      18.981   7.119   8.491  0.00  0.00    +0.000 A 
ATOM      7  C4  UNL     1      19.192   5.758   8.275  0.00  0.00    +0.000 A 
ATOM      8  C5  UNL     1      20.449   5.199   8.510  0.00  0.00    +0.000 A 
ATOM      9  C6  UNL     1      21.508   5.996   8.966  0.00  0.00    +0.000 A 
ENDBRANCH   3   9
ENDBRANCH   2   3
ENDBRANCH   1   2
BRANCH   1  10
ATOM     10  C10 UNL     1      22.310   2.298  10.569  0.00  0.00    +0.000 C 
BRANCH  10  11
ATOM     11  C11 UNL     1      21.836   3.151  11.753  0.00  0.00    +0.000 C 
BRANCH  11  12
ATOM     12  C12 UNL     1      20.346   3.516  11.747  0.00  0.00    +0.000 C 
BRANCH  12  13
ATOM     13  C13 UNL     1      20.071   4.962  12.080  0.00  0.00    +0.000 A 
ATOM     14  C14 UNL     1      18.799   5.511  11.869  0.00  0.00    +0.000 A 
ATOM     15  C15 UNL     1      18.541   6.846  12.184  0.00  0.00    +0.000 A 
ATOM     16  C16 UNL     1      19.552   7.646  12.713  0.00  0.00    +0.000 A 
ATOM     17  C17 UNL     1      20.822   7.111  12.927  0.00  0.00    +0.000 A 
ATOM     18  C18 UNL     1      21.080   5.776  12.611  0.00  0.00    +0.000 A 
ENDBRANCH  12  13
ENDBRANCH  11  12
ENDBRANCH  10  11
ENDBRANCH   1  10
TORSDOF 7
ENDMDL
MODEL 6
REMARK VINA RESULT:    -3.915      1.851      5.467
REMARK INTER + INTRA:          -8.592
REMARK INTER:                  -6.659
REMARK INTRA:                  -1.932
REMARK UNBOUND:                -3.074
REMARK  Name = /home/anacleto/Desktop/manuscript_Mpro/naturecomm/supplementary_file_S2/6-chemical-library/molecular_docking/3D_ligand_structure/571.pdb
REMARK  7 active torsions:
REMARK  status: ('A' for Active; 'I' for Inactive)
REMARK    1  A    between atoms: C6_6  and  C7_7
REMARK    2  A    between atoms: C7_7  and  C8_8
REMARK    3  A    between atoms: C8_8  and  C9_9
REMARK    4  A    between atoms: C9_9  and  C10_10
REMARK    5  A    between atoms: C10_10  and  C11_11
REMARK    6  A    between atoms: C11_11  and  C12_12
REMARK    7  A    between atoms: C12_12  and  C13_13
REMARK                            x       y       z     vdW  Elec       q    Type
REMARK                         _______ _______ _______ _____ _____    ______ ____
ROOT
ATOM      1  C9  UNL     1      21.346   5.703  13.139  0.00  0.00    +0.000 C 
ENDROOT
BRANCH   1   2
ATOM      2  C8  UNL     1      22.446   6.137  12.162  0.00  0.00    +0.000 C 
BRANCH   2   3
ATOM      3  C7  UNL     1      22.353   5.534  10.754  0.00  0.00    +0.000 C 
BRANCH   3   9
ATOM      4  C1  UNL     1      21.154   7.364   9.488  0.00  0.00    +0.000 A 
ATOM      5  C2  UNL     1      20.067   7.833   8.749  0.00  0.00    +0.000 A 
ATOM      6  C3  UNL     1      18.998   6.986   8.463  0.00  0.00    +0.000 A 
ATOM      7  C4  UNL     1      19.017   5.668   8.915  0.00  0.00    +0.000 A 
ATOM      8  C5  UNL     1      20.103   5.196   9.654  0.00  0.00    +0.000 A 
ATOM      9  C6  UNL     1      21.183   6.041   9.949  0.00  0.00    +0.000 A 
ENDBRANCH   3   9
ENDBRANCH   2   3
ENDBRANCH   1   2
BRANCH   1  10
ATOM     10  C10 UNL     1      20.845   6.839  14.034  0.00  0.00    +0.000 C 
BRANCH  10  11
ATOM     11  C11 UNL     1      20.160   7.969  13.256  0.00  0.00    +0.000 C 
BRANCH  11  12
ATOM     12  C12 UNL     1      18.941   7.552  12.424  0.00  0.00    +0.000 C 
BRANCH  12  13
ATOM     13  C13 UNL     1      17.776   7.062  13.249  0.00  0.00    +0.000 A 
ATOM     14  C14 UNL     1      17.219   7.873  14.247  0.00  0.00    +0.000 A 
ATOM     15  C15 UNL     1      16.138   7.423  15.006  0.00  0.00    +0.000 A 
ATOM     16  C16 UNL     1      15.602   6.158  14.775  0.00  0.00    +0.000 A 
ATOM     17  C17 UNL     1      16.147   5.342  13.785  0.00  0.00    +0.000 A 
ATOM     18  C18 UNL     1      17.230   5.791  13.026  0.00  0.00    +0.000 A 
ENDBRANCH  12  13
ENDBRANCH  11  12
ENDBRANCH  10  11
ENDBRANCH   1  10
TORSDOF 7
ENDMDL
MODEL 7
REMARK VINA RESULT:    -3.851     13.998     16.920
REMARK INTER + INTRA:          -8.501
REMARK INTER:                  -5.781
REMARK INTRA:                  -2.721
REMARK UNBOUND:                -3.074
REMARK  Name = /home/anacleto/Desktop/manuscript_Mpro/naturecomm/supplementary_file_S2/6-chemical-library/molecular_docking/3D_ligand_structure/571.pdb
REMARK  7 active torsions:
REMARK  status: ('A' for Active; 'I' for Inactive)
REMARK    1  A    between atoms: C6_6  and  C7_7
REMARK    2  A    between atoms: C7_7  and  C8_8
REMARK    3  A    between atoms: C8_8  and  C9_9
REMARK    4  A    between atoms: C9_9  and  C10_10
REMARK    5  A    between atoms: C10_10  and  C11_11
REMARK    6  A    between atoms: C11_11  and  C12_12
REMARK    7  A    between atoms: C12_12  and  C13_13
REMARK                            x       y       z     vdW  Elec       q    Type
REMARK                         _______ _______ _______ _____ _____    ______ ____
ROOT
ATOM      1  C9  UNL     1      15.603  15.456  -1.625  0.00  0.00    +0.000 C 
ENDROOT
BRANCH   1   2
ATOM      2  C8  UNL     1      15.633  14.750  -2.987  0.00  0.00    +0.000 C 
BRANCH   2   3
ATOM      3  C7  UNL     1      14.692  13.546  -3.126  0.00  0.00    +0.000 C 
BRANCH   3   9
ATOM      4  C1  UNL     1      15.362  13.527  -5.563  0.00  0.00    +0.000 A 
ATOM      5  C2  UNL     1      15.399  12.921  -6.820  0.00  0.00    +0.000 A 
ATOM      6  C3  UNL     1      14.815  11.670  -7.010  0.00  0.00    +0.000 A 
ATOM      7  C4  UNL     1      14.193  11.025  -5.942  0.00  0.00    +0.000 A 
ATOM      8  C5  UNL     1      14.156  11.630  -4.684  0.00  0.00    +0.000 A 
ATOM      9  C6  UNL     1      14.740  12.888  -4.483  0.00  0.00    +0.000 A 
ENDBRANCH   3   9
ENDBRANCH   2   3
ENDBRANCH   1   2
BRANCH   1  10
ATOM     10  C10 UNL     1      16.898  15.291  -0.827  0.00  0.00    +0.000 C 
BRANCH  10  11
ATOM     11  C11 UNL     1      17.145  13.851  -0.357  0.00  0.00    +0.000 C 
BRANCH  11  12
ATOM     12  C12 UNL     1      18.391  13.172  -0.940  0.00  0.00    +0.000 C 
BRANCH  12  13
ATOM     13  C13 UNL     1      18.093  12.208  -2.061  0.00  0.00    +0.000 A 
ATOM     14  C14 UNL     1      17.315  11.066  -1.831  0.00  0.00    +0.000 A 
ATOM     15  C15 UNL     1      17.034  10.177  -2.870  0.00  0.00    +0.000 A 
ATOM     16  C16 UNL     1      17.527  10.422  -4.150  0.00  0.00    +0.000 A 
ATOM     17  C17 UNL     1      18.303  11.555  -4.392  0.00  0.00    +0.000 A 
ATOM     18  C18 UNL     1      18.585  12.443  -3.352  0.00  0.00    +0.000 A 
ENDBRANCH  12  13
ENDBRANCH  11  12
ENDBRANCH  10  11
ENDBRANCH   1  10
TORSDOF 7
ENDMDL
MODEL 8
REMARK VINA RESULT:    -3.806     14.008     16.926
REMARK INTER + INTRA:          -8.438
REMARK INTER:                  -5.509
REMARK INTRA:                  -2.929
REMARK UNBOUND:                -3.074
REMARK  Name = /home/anacleto/Desktop/manuscript_Mpro/naturecomm/supplementary_file_S2/6-chemical-library/molecular_docking/3D_ligand_structure/571.pdb
REMARK  7 active torsions:
REMARK  status: ('A' for Active; 'I' for Inactive)
REMARK    1  A    between atoms: C6_6  and  C7_7
REMARK    2  A    between atoms: C7_7  and  C8_8
REMARK    3  A    between atoms: C8_8  and  C9_9
REMARK    4  A    between atoms: C9_9  and  C10_10
REMARK    5  A    between atoms: C10_10  and  C11_11
REMARK    6  A    between atoms: C11_11  and  C12_12
REMARK    7  A    between atoms: C12_12  and  C13_13
REMARK                            x       y       z     vdW  Elec       q    Type
REMARK                         _______ _______ _______ _____ _____    ______ ____
ROOT
ATOM      1  C9  UNL     1      17.254  15.499  -1.391  0.00  0.00    +0.000 C 
ENDROOT
BRANCH   1   2
ATOM      2  C8  UNL     1      17.930  14.349  -0.632  0.00  0.00    +0.000 C 
BRANCH   2   3
ATOM      3  C7  UNL     1      17.105  13.061  -0.515  0.00  0.00    +0.000 C 
BRANCH   3   9
ATOM      4  C1  UNL     1      16.077  11.290  -1.996  0.00  0.00    +0.000 A 
ATOM      5  C2  UNL     1      16.075  10.511  -3.155  0.00  0.00    +0.000 A 
ATOM      6  C3  UNL     1      17.090  10.657  -4.097  0.00  0.00    +0.000 A 
ATOM      7  C4  UNL     1      18.109  11.584  -3.883  0.00  0.00    +0.000 A 
ATOM      8  C5  UNL     1      18.112  12.365  -2.725  0.00  0.00    +0.000 A 
ATOM      9  C6  UNL     1      17.097  12.224  -1.770  0.00  0.00    +0.000 A 
ENDBRANCH   3   9
ENDBRANCH   2   3
ENDBRANCH   1   2
BRANCH   1  10
ATOM     10  C10 UNL     1      15.734  15.529  -1.218  0.00  0.00    +0.000 C 
BRANCH  10  11
ATOM     11  C11 UNL     1      14.968  15.230  -2.513  0.00  0.00    +0.000 C 
BRANCH  11  12
ATOM     12  C12 UNL     1      15.831  15.093  -3.773  0.00  0.00    +0.000 C 
BRANCH  12  13
ATOM     13  C13 UNL     1      15.326  14.063  -4.752  0.00  0.00    +0.000 A 
ATOM     14  C14 UNL     1      15.975  13.866  -5.979  0.00  0.00    +0.000 A 
ATOM     15  C15 UNL     1      15.512  12.908  -6.881  0.00  0.00    +0.000 A 
ATOM     16  C16 UNL     1      14.394  12.137  -6.568  0.00  0.00    +0.000 A 
ATOM     17  C17 UNL     1      13.739  12.324  -5.352  0.00  0.00    +0.000 A 
ATOM     18  C18 UNL     1      14.202  13.283  -4.449  0.00  0.00    +0.000 A 
ENDBRANCH  12  13
ENDBRANCH  11  12
ENDBRANCH  10  11
ENDBRANCH   1  10
TORSDOF 7
ENDMDL
MODEL 9
REMARK VINA RESULT:    -3.722     13.596     16.487
REMARK INTER + INTRA:          -8.320
REMARK INTER:                  -5.246
REMARK INTRA:                  -3.074
REMARK UNBOUND:                -3.074
REMARK  Name = /home/anacleto/Desktop/manuscript_Mpro/naturecomm/supplementary_file_S2/6-chemical-library/molecular_docking/3D_ligand_structure/571.pdb
REMARK  7 active torsions:
REMARK  status: ('A' for Active; 'I' for Inactive)
REMARK    1  A    between atoms: C6_6  and  C7_7
REMARK    2  A    between atoms: C7_7  and  C8_8
REMARK    3  A    between atoms: C8_8  and  C9_9
REMARK    4  A    between atoms: C9_9  and  C10_10
REMARK    5  A    between atoms: C10_10  and  C11_11
REMARK    6  A    between atoms: C11_11  and  C12_12
REMARK    7  A    between atoms: C12_12  and  C13_13
REMARK                            x       y       z     vdW  Elec       q    Type
REMARK                         _______ _______ _______ _____ _____    ______ ____
ROOT
ATOM      1  C9  UNL     1      19.100  13.125  -0.291  0.00  0.00    +0.000 C 
ENDROOT
BRANCH   1   2
ATOM      2  C8  UNL     1      19.080  12.695  -1.764  0.00  0.00    +0.000 C 
BRANCH   2   3
ATOM      3  C7  UNL     1      18.699  13.793  -2.766  0.00  0.00    +0.000 C 
BRANCH   3   9
ATOM      4  C1  UNL     1      16.874  14.417  -4.399  0.00  0.00    +0.000 A 
ATOM      5  C2  UNL     1      15.559  14.330  -4.861  0.00  0.00    +0.000 A 
ATOM      6  C3  UNL     1      14.639  13.519  -4.200  0.00  0.00    +0.000 A 
ATOM      7  C4  UNL     1      15.033  12.794  -3.077  0.00  0.00    +0.000 A 
ATOM      8  C5  UNL     1      16.347  12.879  -2.614  0.00  0.00    +0.000 A 
ATOM      9  C6  UNL     1      17.280  13.693  -3.270  0.00  0.00    +0.000 A 
ENDBRANCH   3   9
ENDBRANCH   2   3
ENDBRANCH   1   2
BRANCH   1  10
ATOM     10  C10 UNL     1      19.902  14.404  -0.043  0.00  0.00    +0.000 C 
BRANCH  10  11
ATOM     11  C11 UNL     1      19.073  15.528   0.593  0.00  0.00    +0.000 C 
BRANCH  11  12
ATOM     12  C12 UNL     1      18.716  16.692  -0.339  0.00  0.00    +0.000 C 
BRANCH  12  13
ATOM     13  C13 UNL     1      17.316  16.622  -0.896  0.00  0.00    +0.000 A 
ATOM     14  C14 UNL     1      16.349  15.805  -0.293  0.00  0.00    +0.000 A 
ATOM     15  C15 UNL     1      15.052  15.745  -0.805  0.00  0.00    +0.000 A 
ATOM     16  C16 UNL     1      14.708  16.500  -1.924  0.00  0.00    +0.000 A 
ATOM     17  C17 UNL     1      15.661  17.315  -2.533  0.00  0.00    +0.000 A 
ATOM     18  C18 UNL     1      16.959  17.375  -2.023  0.00  0.00    +0.000 A 
ENDBRANCH  12  13
ENDBRANCH  11  12
ENDBRANCH  10  11
ENDBRANCH   1  10
TORSDOF 7
ENDMDL
