MODEL 1
REMARK VINA RESULT:    -5.657      0.000      0.000
REMARK INTER + INTRA:          -7.958
REMARK INTER:                  -7.609
REMARK INTRA:                  -0.349
REMARK UNBOUND:                -0.647
REMARK  Name = /home/anacleto/Desktop/manuscript_Mpro/naturecomm/supplementary_file_S2/6-chemical-library/molecular_docking/3D_ligand_structure/424.pdb
REMARK  5 active torsions:
REMARK  status: ('A' for Active; 'I' for Inactive)
REMARK    1  A    between atoms: N3_9  and  C6_10
REMARK    2  A    between atoms: C6_10  and  C7_11
REMARK    3  A    between atoms: C7_11  and  N4_12
REMARK    4  A    between atoms: N4_12  and  S1_13
REMARK    5  A    between atoms: S1_13  and  C8_16
REMARK                            x       y       z     vdW  Elec       q    Type
REMARK                         _______ _______ _______ _____ _____    ______ ____
ROOT
ATOM      1  C6  UNL     1      19.283   8.644  -7.777  0.00  0.00    +0.000 C 
ENDROOT
BRANCH   1  10
ATOM      2  C1  UNL     1      21.633   7.738  -4.343  0.00  0.00    +0.000 C 
ATOM      3  C2  UNL     1      22.514   6.887  -3.411  0.00  0.00    +0.000 C 
ATOM      4  N1  UNL     1      23.914   7.322  -3.304  0.00  0.00    +0.000 NA
ATOM      5  C3  UNL     1      24.392   7.985  -4.531  0.00  0.00    +0.000 C 
ATOM      6  C4  UNL     1      23.634   7.596  -5.811  0.00  0.00    +0.000 C 
ATOM      7  N2  UNL     1      22.199   7.862  -5.691  0.00  0.00    +0.000 N 
ATOM      8  C5  UNL     1      21.465   8.030  -6.846  0.00  0.00    +0.000 C 
ATOM      9  O1  UNL     1      21.940   7.891  -7.969  0.00  0.00    +0.000 OA
ATOM     10  N3  UNL     1      20.148   8.362  -6.641  0.00  0.00    +0.000 N 
ATOM     11  H5  UNL     1      24.023   7.967  -2.521  0.00  0.00    +0.000 HD
ATOM     12  H10 UNL     1      20.021   8.974  -5.850  0.00  0.00    +0.000 HD
ENDBRANCH   1  10
BRANCH   1  13
ATOM     13  C7  UNL     1      19.137  10.143  -8.075  0.00  0.00    +0.000 C 
BRANCH  13  14
ATOM     14  N4  UNL     1      17.741  10.579  -8.002  0.00  0.00    +0.000 NA
ATOM     15  H15 UNL     1      16.986   9.930  -8.203  0.00  0.00    +0.000 HD
BRANCH  14  16
ATOM     16  S1  UNL     1      17.303  11.972  -7.193  0.00  0.00    +0.000 S 
ATOM     17  O2  UNL     1      18.281  12.136  -6.139  0.00  0.00    +0.000 OA
ATOM     18  O3  UNL     1      17.072  13.014  -8.167  0.00  0.00    +0.000 OA
BRANCH  16  19
ATOM     19  C8  UNL     1      15.760  11.524  -6.444  0.00  0.00    +0.000 A 
ATOM     20  C9  UNL     1      14.630  11.344  -7.247  0.00  0.00    +0.000 A 
ATOM     21  C10 UNL     1      13.423  10.970  -6.657  0.00  0.00    +0.000 A 
ATOM     22  C11 UNL     1      13.350  10.770  -5.278  0.00  0.00    +0.000 A 
ATOM     23  C12 UNL     1      14.484  10.937  -4.482  0.00  0.00    +0.000 A 
ATOM     24  C13 UNL     1      15.697  11.307  -5.064  0.00  0.00    +0.000 A 
ENDBRANCH  16  19
ENDBRANCH  14  16
ENDBRANCH  13  14
ENDBRANCH   1  13
TORSDOF 5
ENDMDL
MODEL 2
REMARK VINA RESULT:    -5.632      5.834      7.623
REMARK INTER + INTRA:          -7.925
REMARK INTER:                  -7.459
REMARK INTRA:                  -0.466
REMARK UNBOUND:                -0.647
REMARK  Name = /home/anacleto/Desktop/manuscript_Mpro/naturecomm/supplementary_file_S2/6-chemical-library/molecular_docking/3D_ligand_structure/424.pdb
REMARK  5 active torsions:
REMARK  status: ('A' for Active; 'I' for Inactive)
REMARK    1  A    between atoms: N3_9  and  C6_10
REMARK    2  A    between atoms: C6_10  and  C7_11
REMARK    3  A    between atoms: C7_11  and  N4_12
REMARK    4  A    between atoms: N4_12  and  S1_13
REMARK    5  A    between atoms: S1_13  and  C8_16
REMARK                            x       y       z     vdW  Elec       q    Type
REMARK                         _______ _______ _______ _____ _____    ______ ____
ROOT
ATOM      1  C6  UNL     1      17.132  11.636  -1.583  0.00  0.00    +0.000 C 
ENDROOT
BRANCH   1  10
ATOM      2  C1  UNL     1      17.356  15.537   0.110  0.00  0.00    +0.000 C 
ATOM      3  C2  UNL     1      17.583  16.600   1.200  0.00  0.00    +0.000 C 
ATOM      4  N1  UNL     1      18.763  17.455   1.002  0.00  0.00    +0.000 NA
ATOM      5  C3  UNL     1      19.840  16.766   0.267  0.00  0.00    +0.000 C 
ATOM      6  C4  UNL     1      19.809  15.233   0.365  0.00  0.00    +0.000 C 
ATOM      7  N2  UNL     1      18.532  14.687  -0.099  0.00  0.00    +0.000 N 
ATOM      8  C5  UNL     1      18.496  13.376  -0.526  0.00  0.00    +0.000 C 
ATOM      9  O1  UNL     1      19.463  12.623  -0.462  0.00  0.00    +0.000 OA
ATOM     10  N3  UNL     1      17.283  12.973  -1.027  0.00  0.00    +0.000 N 
ATOM     11  H5  UNL     1      18.505  18.298   0.488  0.00  0.00    +0.000 HD
ATOM     12  H10 UNL     1      16.814  13.701  -1.543  0.00  0.00    +0.000 HD
ENDBRANCH   1  10
BRANCH   1  13
ATOM     13  C7  UNL     1      15.671  11.174  -1.672  0.00  0.00    +0.000 C 
BRANCH  13  14
ATOM     14  N4  UNL     1      15.393  10.491  -2.938  0.00  0.00    +0.000 NA
ATOM     15  H15 UNL     1      15.319   9.479  -2.974  0.00  0.00    +0.000 HD
BRANCH  14  16
ATOM     16  S1  UNL     1      14.768  11.310  -4.252  0.00  0.00    +0.000 S 
ATOM     17  O2  UNL     1      13.659  10.509  -4.722  0.00  0.00    +0.000 OA
ATOM     18  O3  UNL     1      14.586  12.696  -3.883  0.00  0.00    +0.000 OA
BRANCH  16  19
ATOM     19  C8  UNL     1      16.073  11.193  -5.445  0.00  0.00    +0.000 A 
ATOM     20  C9  UNL     1      17.256  10.528  -5.111  0.00  0.00    +0.000 A 
ATOM     21  C10 UNL     1      18.272  10.419  -6.061  0.00  0.00    +0.000 A 
ATOM     22  C11 UNL     1      18.102  10.964  -7.334  0.00  0.00    +0.000 A 
ATOM     23  C12 UNL     1      16.914  11.615  -7.668  0.00  0.00    +0.000 A 
ATOM     24  C13 UNL     1      15.890  11.726  -6.725  0.00  0.00    +0.000 A 
ENDBRANCH  16  19
ENDBRANCH  14  16
ENDBRANCH  13  14
ENDBRANCH   1  13
TORSDOF 5
ENDMDL
MODEL 3
REMARK VINA RESULT:    -5.623      4.627      7.742
REMARK INTER + INTRA:          -7.913
REMARK INTER:                  -7.127
REMARK INTRA:                  -0.786
REMARK UNBOUND:                -0.647
REMARK  Name = /home/anacleto/Desktop/manuscript_Mpro/naturecomm/supplementary_file_S2/6-chemical-library/molecular_docking/3D_ligand_structure/424.pdb
REMARK  5 active torsions:
REMARK  status: ('A' for Active; 'I' for Inactive)
REMARK    1  A    between atoms: N3_9  and  C6_10
REMARK    2  A    between atoms: C6_10  and  C7_11
REMARK    3  A    between atoms: C7_11  and  N4_12
REMARK    4  A    between atoms: N4_12  and  S1_13
REMARK    5  A    between atoms: S1_13  and  C8_16
REMARK                            x       y       z     vdW  Elec       q    Type
REMARK                         _______ _______ _______ _____ _____    ______ ____
ROOT
ATOM      1  C6  UNL     1      16.222  10.933  -1.429  0.00  0.00    +0.000 C 
ENDROOT
BRANCH   1  10
ATOM      2  C1  UNL     1      14.532  14.685  -2.526  0.00  0.00    +0.000 C 
ATOM      3  C2  UNL     1      13.834  16.042  -2.320  0.00  0.00    +0.000 C 
ATOM      4  N1  UNL     1      14.679  17.221  -2.560  0.00  0.00    +0.000 NA
ATOM      5  C3  UNL     1      16.103  16.961  -2.278  0.00  0.00    +0.000 C 
ATOM      6  C4  UNL     1      16.365  15.817  -1.286  0.00  0.00    +0.000 C 
ATOM      7  N2  UNL     1      15.762  14.561  -1.737  0.00  0.00    +0.000 N 
ATOM      8  C5  UNL     1      16.278  13.376  -1.255  0.00  0.00    +0.000 C 
ATOM      9  O1  UNL     1      17.164  13.327  -0.406  0.00  0.00    +0.000 OA
ATOM     10  N3  UNL     1      15.715  12.247  -1.796  0.00  0.00    +0.000 N 
ATOM     11  H5  UNL     1      14.588  17.527  -3.529  0.00  0.00    +0.000 HD
ATOM     12  H10 UNL     1      15.487  12.356  -2.772  0.00  0.00    +0.000 HD
ENDBRANCH   1  10
BRANCH   1  13
ATOM     13  C7  UNL     1      17.502  10.543  -2.181  0.00  0.00    +0.000 C 
BRANCH  13  14
ATOM     14  N4  UNL     1      17.211  10.027  -3.521  0.00  0.00    +0.000 NA
ATOM     15  H15 UNL     1      16.684   9.167  -3.640  0.00  0.00    +0.000 HD
BRANCH  14  16
ATOM     16  S1  UNL     1      17.330  10.998  -4.873  0.00  0.00    +0.000 S 
ATOM     17  O2  UNL     1      17.623  12.325  -4.378  0.00  0.00    +0.000 OA
ATOM     18  O3  UNL     1      18.197  10.348  -5.829  0.00  0.00    +0.000 OA
BRANCH  16  19
ATOM     19  C8  UNL     1      15.672  11.001  -5.502  0.00  0.00    +0.000 A 
ATOM     20  C9  UNL     1      14.609  10.700  -4.646  0.00  0.00    +0.000 A 
ATOM     21  C10 UNL     1      13.305  10.724  -5.139  0.00  0.00    +0.000 A 
ATOM     22  C11 UNL     1      13.066  11.056  -6.473  0.00  0.00    +0.000 A 
ATOM     23  C12 UNL     1      14.130  11.370  -7.320  0.00  0.00    +0.000 A 
ATOM     24  C13 UNL     1      15.438  11.351  -6.835  0.00  0.00    +0.000 A 
ENDBRANCH  16  19
ENDBRANCH  14  16
ENDBRANCH  13  14
ENDBRANCH   1  13
TORSDOF 5
ENDMDL
MODEL 4
REMARK VINA RESULT:    -5.476      5.716      7.970
REMARK INTER + INTRA:          -7.724
REMARK INTER:                  -7.393
REMARK INTRA:                  -0.330
REMARK UNBOUND:                -0.647
REMARK  Name = /home/anacleto/Desktop/manuscript_Mpro/naturecomm/supplementary_file_S2/6-chemical-library/molecular_docking/3D_ligand_structure/424.pdb
REMARK  5 active torsions:
REMARK  status: ('A' for Active; 'I' for Inactive)
REMARK    1  A    between atoms: N3_9  and  C6_10
REMARK    2  A    between atoms: C6_10  and  C7_11
REMARK    3  A    between atoms: C7_11  and  N4_12
REMARK    4  A    between atoms: N4_12  and  S1_13
REMARK    5  A    between atoms: S1_13  and  C8_16
REMARK                            x       y       z     vdW  Elec       q    Type
REMARK                         _______ _______ _______ _____ _____    ______ ____
ROOT
ATOM      1  C6  UNL     1      14.510  14.311  -2.849  0.00  0.00    +0.000 C 
ENDROOT
BRANCH   1  10
ATOM      2  C1  UNL     1      17.902  14.475  -0.280  0.00  0.00    +0.000 C 
ATOM      3  C2  UNL     1      19.335  14.828   0.157  0.00  0.00    +0.000 C 
ATOM      4  N1  UNL     1      19.432  15.823   1.235  0.00  0.00    +0.000 NA
ATOM      5  C3  UNL     1      18.302  16.770   1.231  0.00  0.00    +0.000 C 
ATOM      6  C4  UNL     1      17.608  16.939  -0.130  0.00  0.00    +0.000 C 
ATOM      7  N2  UNL     1      17.121  15.660  -0.651  0.00  0.00    +0.000 N 
ATOM      8  C5  UNL     1      16.095  15.675  -1.573  0.00  0.00    +0.000 C 
ATOM      9  O1  UNL     1      15.625  16.710  -2.036  0.00  0.00    +0.000 OA
ATOM     10  N3  UNL     1      15.641  14.433  -1.942  0.00  0.00    +0.000 N 
ATOM     11  H5  UNL     1      19.465  15.357   2.142  0.00  0.00    +0.000 HD
ATOM     12  H10 UNL     1      15.643  13.776  -1.177  0.00  0.00    +0.000 HD
ENDBRANCH   1  10
BRANCH   1  13
ATOM     13  C7  UNL     1      14.906  13.852  -4.259  0.00  0.00    +0.000 C 
BRANCH  13  14
ATOM     14  N4  UNL     1      13.839  13.079  -4.900  0.00  0.00    +0.000 NA
ATOM     15  H15 UNL     1      12.992  13.537  -5.224  0.00  0.00    +0.000 HD
BRANCH  14  16
ATOM     16  S1  UNL     1      14.117  11.552  -5.514  0.00  0.00    +0.000 S 
ATOM     17  O2  UNL     1      13.036  10.728  -5.019  0.00  0.00    +0.000 OA
ATOM     18  O3  UNL     1      14.380  11.668  -6.930  0.00  0.00    +0.000 OA
BRANCH  16  19
ATOM     19  C8  UNL     1      15.605  11.060  -4.685  0.00  0.00    +0.000 A 
ATOM     20  C9  UNL     1      15.568  10.762  -3.320  0.00  0.00    +0.000 A 
ATOM     21  C10 UNL     1      16.737  10.355  -2.676  0.00  0.00    +0.000 A 
ATOM     22  C11 UNL     1      17.928  10.238  -3.394  0.00  0.00    +0.000 A 
ATOM     23  C12 UNL     1      17.956  10.523  -4.760  0.00  0.00    +0.000 A 
ATOM     24  C13 UNL     1      16.791  10.928  -5.413  0.00  0.00    +0.000 A 
ENDBRANCH  16  19
ENDBRANCH  14  16
ENDBRANCH  13  14
ENDBRANCH   1  13
TORSDOF 5
ENDMDL
MODEL 5
REMARK VINA RESULT:    -5.423      6.436      8.461
REMARK INTER + INTRA:          -7.656
REMARK INTER:                  -6.814
REMARK INTRA:                  -0.842
REMARK UNBOUND:                -0.647
REMARK  Name = /home/anacleto/Desktop/manuscript_Mpro/naturecomm/supplementary_file_S2/6-chemical-library/molecular_docking/3D_ligand_structure/424.pdb
REMARK  5 active torsions:
REMARK  status: ('A' for Active; 'I' for Inactive)
REMARK    1  A    between atoms: N3_9  and  C6_10
REMARK    2  A    between atoms: C6_10  and  C7_11
REMARK    3  A    between atoms: C7_11  and  N4_12
REMARK    4  A    between atoms: N4_12  and  S1_13
REMARK    5  A    between atoms: S1_13  and  C8_16
REMARK                            x       y       z     vdW  Elec       q    Type
REMARK                         _______ _______ _______ _____ _____    ______ ____
ROOT
ATOM      1  C6  UNL     1      16.840  13.006  -0.838  0.00  0.00    +0.000 C 
ENDROOT
BRANCH   1  10
ATOM      2  C1  UNL     1      15.009  13.165  -4.679  0.00  0.00    +0.000 C 
ATOM      3  C2  UNL     1      14.821  12.856  -6.176  0.00  0.00    +0.000 C 
ATOM      4  N1  UNL     1      13.650  12.029  -6.500  0.00  0.00    +0.000 NA
ATOM      5  C3  UNL     1      13.288  11.110  -5.405  0.00  0.00    +0.000 C 
ATOM      6  C4  UNL     1      14.442  10.755  -4.455  0.00  0.00    +0.000 C 
ATOM      7  N2  UNL     1      15.037  11.951  -3.856  0.00  0.00    +0.000 N 
ATOM      8  C5  UNL     1      15.722  11.818  -2.666  0.00  0.00    +0.000 C 
ATOM      9  O1  UNL     1      15.924  10.734  -2.127  0.00  0.00    +0.000 OA
ATOM     10  N3  UNL     1      16.170  12.999  -2.130  0.00  0.00    +0.000 N 
ATOM     11  H5  UNL     1      12.846  12.622  -6.708  0.00  0.00    +0.000 HD
ATOM     12  H10 UNL     1      15.526  13.761  -2.277  0.00  0.00    +0.000 HD
ENDBRANCH   1  10
BRANCH   1  13
ATOM     13  C7  UNL     1      17.618  14.300  -0.561  0.00  0.00    +0.000 C 
BRANCH  13  14
ATOM     14  N4  UNL     1      16.733  15.467  -0.512  0.00  0.00    +0.000 NA
ATOM     15  H15 UNL     1      16.397  15.824   0.377  0.00  0.00    +0.000 HD
BRANCH  14  16
ATOM     16  S1  UNL     1      16.587  16.505  -1.812  0.00  0.00    +0.000 S 
ATOM     17  O2  UNL     1      17.186  17.751  -1.388  0.00  0.00    +0.000 OA
ATOM     18  O3  UNL     1      17.046  15.820  -2.999  0.00  0.00    +0.000 OA
BRANCH  16  19
ATOM     19  C8  UNL     1      14.835  16.750  -1.924  0.00  0.00    +0.000 A 
ATOM     20  C9  UNL     1      13.968  15.723  -1.539  0.00  0.00    +0.000 A 
ATOM     21  C10 UNL     1      12.590  15.927  -1.609  0.00  0.00    +0.000 A 
ATOM     22  C11 UNL     1      12.085  17.151  -2.051  0.00  0.00    +0.000 A 
ATOM     23  C12 UNL     1      12.954  18.178  -2.420  0.00  0.00    +0.000 A 
ATOM     24  C13 UNL     1      14.334  17.984  -2.351  0.00  0.00    +0.000 A 
ENDBRANCH  16  19
ENDBRANCH  14  16
ENDBRANCH  13  14
ENDBRANCH   1  13
TORSDOF 5
ENDMDL
MODEL 6
REMARK VINA RESULT:    -5.417      6.272      8.666
REMARK INTER + INTRA:          -7.648
REMARK INTER:                  -6.973
REMARK INTRA:                  -0.675
REMARK UNBOUND:                -0.647
REMARK  Name = /home/anacleto/Desktop/manuscript_Mpro/naturecomm/supplementary_file_S2/6-chemical-library/molecular_docking/3D_ligand_structure/424.pdb
REMARK  5 active torsions:
REMARK  status: ('A' for Active; 'I' for Inactive)
REMARK    1  A    between atoms: N3_9  and  C6_10
REMARK    2  A    between atoms: C6_10  and  C7_11
REMARK    3  A    between atoms: C7_11  and  N4_12
REMARK    4  A    between atoms: N4_12  and  S1_13
REMARK    5  A    between atoms: S1_13  and  C8_16
REMARK                            x       y       z     vdW  Elec       q    Type
REMARK                         _______ _______ _______ _____ _____    ______ ____
ROOT
ATOM      1  C6  UNL     1      14.380  15.086  -2.564  0.00  0.00    +0.000 C 
ENDROOT
BRANCH   1  10
ATOM      2  C1  UNL     1      16.887  11.669  -2.979  0.00  0.00    +0.000 C 
ATOM      3  C2  UNL     1      17.241  10.179  -3.131  0.00  0.00    +0.000 C 
ATOM      4  N1  UNL     1      17.815   9.804  -4.432  0.00  0.00    +0.000 NA
ATOM      5  C3  UNL     1      17.338  10.666  -5.528  0.00  0.00    +0.000 C 
ATOM      6  C4  UNL     1      15.983  11.345  -5.271  0.00  0.00    +0.000 C 
ATOM      7  N2  UNL     1      16.004  12.149  -4.048  0.00  0.00    +0.000 N 
ATOM      8  C5  UNL     1      15.087  13.171  -3.918  0.00  0.00    +0.000 C 
ATOM      9  O1  UNL     1      14.205  13.388  -4.744  0.00  0.00    +0.000 OA
ATOM     10  N3  UNL     1      15.234  13.929  -2.783  0.00  0.00    +0.000 N 
ATOM     11  H5  UNL     1      18.833   9.855  -4.395  0.00  0.00    +0.000 HD
ATOM     12  H10 UNL     1      16.200  14.061  -2.527  0.00  0.00    +0.000 HD
ENDBRANCH   1  10
BRANCH   1  13
ATOM     13  C7  UNL     1      15.003  16.137  -1.634  0.00  0.00    +0.000 C 
BRANCH  13  14
ATOM     14  N4  UNL     1      16.430  15.889  -1.412  0.00  0.00    +0.000 NA
ATOM     15  H15 UNL     1      17.131  16.391  -1.949  0.00  0.00    +0.000 HD
BRANCH  14  16
ATOM     16  S1  UNL     1      16.979  15.138  -0.026  0.00  0.00    +0.000 S 
ATOM     17  O2  UNL     1      16.327  15.817   1.073  0.00  0.00    +0.000 OA
ATOM     18  O3  UNL     1      16.854  13.709  -0.200  0.00  0.00    +0.000 OA
BRANCH  16  19
ATOM     19  C8  UNL     1      18.697  15.572   0.003  0.00  0.00    +0.000 A 
ATOM     20  C9  UNL     1      19.635  14.644   0.461  0.00  0.00    +0.000 A 
ATOM     21  C10 UNL     1      20.989  14.982   0.462  0.00  0.00    +0.000 A 
ATOM     22  C11 UNL     1      21.399  16.233   0.001  0.00  0.00    +0.000 A 
ATOM     23  C12 UNL     1      20.459  17.152  -0.469  0.00  0.00    +0.000 A 
ATOM     24  C13 UNL     1      19.103  16.821  -0.477  0.00  0.00    +0.000 A 
ENDBRANCH  16  19
ENDBRANCH  14  16
ENDBRANCH  13  14
ENDBRANCH   1  13
TORSDOF 5
ENDMDL
MODEL 7
REMARK VINA RESULT:    -5.365      6.054      7.551
REMARK INTER + INTRA:          -7.580
REMARK INTER:                  -6.855
REMARK INTRA:                  -0.724
REMARK UNBOUND:                -0.647
REMARK  Name = /home/anacleto/Desktop/manuscript_Mpro/naturecomm/supplementary_file_S2/6-chemical-library/molecular_docking/3D_ligand_structure/424.pdb
REMARK  5 active torsions:
REMARK  status: ('A' for Active; 'I' for Inactive)
REMARK    1  A    between atoms: N3_9  and  C6_10
REMARK    2  A    between atoms: C6_10  and  C7_11
REMARK    3  A    between atoms: C7_11  and  N4_12
REMARK    4  A    between atoms: N4_12  and  S1_13
REMARK    5  A    between atoms: S1_13  and  C8_16
REMARK                            x       y       z     vdW  Elec       q    Type
REMARK                         _______ _______ _______ _____ _____    ______ ____
ROOT
ATOM      1  C6  UNL     1      14.508  15.500  -1.826  0.00  0.00    +0.000 C 
ENDROOT
BRANCH   1  10
ATOM      2  C1  UNL     1      18.224  14.101  -0.288  0.00  0.00    +0.000 C 
ATOM      3  C2  UNL     1      19.724  13.753  -0.298  0.00  0.00    +0.000 C 
ATOM      4  N1  UNL     1      20.567  14.602   0.556  0.00  0.00    +0.000 NA
ATOM      5  C3  UNL     1      20.026  15.966   0.705  0.00  0.00    +0.000 C 
ATOM      6  C4  UNL     1      19.104  16.421  -0.436  0.00  0.00    +0.000 C 
ATOM      7  N2  UNL     1      17.972  15.509  -0.614  0.00  0.00    +0.000 N 
ATOM      8  C5  UNL     1      16.834  15.987  -1.228  0.00  0.00    +0.000 C 
ATOM      9  O1  UNL     1      16.752  17.117  -1.702  0.00  0.00    +0.000 OA
ATOM     10  N3  UNL     1      15.792  15.094  -1.275  0.00  0.00    +0.000 N 
ATOM     11  H5  UNL     1      20.663  14.185   1.482  0.00  0.00    +0.000 HD
ATOM     12  H10 UNL     1      15.735  14.521  -0.448  0.00  0.00    +0.000 HD
ENDBRANCH   1  10
BRANCH   1  13
ATOM     13  C7  UNL     1      14.114  14.722  -3.090  0.00  0.00    +0.000 C 
BRANCH  13  14
ATOM     14  N4  UNL     1      15.171  14.757  -4.103  0.00  0.00    +0.000 NA
ATOM     15  H15 UNL     1      15.493  15.643  -4.484  0.00  0.00    +0.000 HD
BRANCH  14  16
ATOM     16  S1  UNL     1      16.178  13.450  -4.359  0.00  0.00    +0.000 S 
ATOM     17  O2  UNL     1      17.173  13.901  -5.306  0.00  0.00    +0.000 OA
ATOM     18  O3  UNL     1      16.559  12.909  -3.074  0.00  0.00    +0.000 OA
BRANCH  16  19
ATOM     19  C8  UNL     1      15.118  12.294  -5.185  0.00  0.00    +0.000 A 
ATOM     20  C9  UNL     1      14.408  11.351  -4.436  0.00  0.00    +0.000 A 
ATOM     21  C10 UNL     1      13.559  10.457  -5.088  0.00  0.00    +0.000 A 
ATOM     22  C11 UNL     1      13.415  10.513  -6.475  0.00  0.00    +0.000 A 
ATOM     23  C12 UNL     1      14.116  11.465  -7.217  0.00  0.00    +0.000 A 
ATOM     24  C13 UNL     1      14.965  12.365  -6.573  0.00  0.00    +0.000 A 
ENDBRANCH  16  19
ENDBRANCH  14  16
ENDBRANCH  13  14
ENDBRANCH   1  13
TORSDOF 5
ENDMDL
MODEL 8
REMARK VINA RESULT:    -5.360      5.941      8.487
REMARK INTER + INTRA:          -7.574
REMARK INTER:                  -6.316
REMARK INTRA:                  -1.258
REMARK UNBOUND:                -0.647
REMARK  Name = /home/anacleto/Desktop/manuscript_Mpro/naturecomm/supplementary_file_S2/6-chemical-library/molecular_docking/3D_ligand_structure/424.pdb
REMARK  5 active torsions:
REMARK  status: ('A' for Active; 'I' for Inactive)
REMARK    1  A    between atoms: N3_9  and  C6_10
REMARK    2  A    between atoms: C6_10  and  C7_11
REMARK    3  A    between atoms: C7_11  and  N4_12
REMARK    4  A    between atoms: N4_12  and  S1_13
REMARK    5  A    between atoms: S1_13  and  C8_16
REMARK                            x       y       z     vdW  Elec       q    Type
REMARK                         _______ _______ _______ _____ _____    ______ ____
ROOT
ATOM      1  C6  UNL     1      16.937  16.820  -3.562  0.00  0.00    +0.000 C 
ENDROOT
BRANCH   1  10
ATOM      2  C1  UNL     1      14.396  13.561  -4.592  0.00  0.00    +0.000 C 
ATOM      3  C2  UNL     1      13.847  12.405  -5.447  0.00  0.00    +0.000 C 
ATOM      4  N1  UNL     1      14.062  11.061  -4.891  0.00  0.00    +0.000 NA
ATOM      5  C3  UNL     1      15.278  10.983  -4.060  0.00  0.00    +0.000 C 
ATOM      6  C4  UNL     1      16.348  12.037  -4.383  0.00  0.00    +0.000 C 
ATOM      7  N2  UNL     1      15.818  13.397  -4.273  0.00  0.00    +0.000 N 
ATOM      8  C5  UNL     1      16.705  14.431  -4.056  0.00  0.00    +0.000 C 
ATOM      9  O1  UNL     1      17.923  14.276  -4.030  0.00  0.00    +0.000 OA
ATOM     10  N3  UNL     1      16.118  15.659  -3.877  0.00  0.00    +0.000 N 
ATOM     11  H5  UNL     1      13.261  10.782  -4.325  0.00  0.00    +0.000 HD
ATOM     12  H10 UNL     1      15.249  15.603  -3.367  0.00  0.00    +0.000 HD
ENDBRANCH   1  10
BRANCH   1  13
ATOM     13  C7  UNL     1      16.587  17.466  -2.214  0.00  0.00    +0.000 C 
BRANCH  13  14
ATOM     14  N4  UNL     1      17.148  16.714  -1.089  0.00  0.00    +0.000 NA
ATOM     15  H15 UNL     1      17.972  17.052  -0.600  0.00  0.00    +0.000 HD
BRANCH  14  16
ATOM     16  S1  UNL     1      16.258  15.549  -0.289  0.00  0.00    +0.000 S 
ATOM     17  O2  UNL     1      16.274  15.933   1.106  0.00  0.00    +0.000 OA
ATOM     18  O3  UNL     1      15.013  15.358  -0.998  0.00  0.00    +0.000 OA
BRANCH  16  19
ATOM     19  C8  UNL     1      17.258  14.097  -0.470  0.00  0.00    +0.000 A 
ATOM     20  C9  UNL     1      16.651  12.873  -0.761  0.00  0.00    +0.000 A 
ATOM     21  C10 UNL     1      17.443  11.736  -0.923  0.00  0.00    +0.000 A 
ATOM     22  C11 UNL     1      18.831  11.827  -0.804  0.00  0.00    +0.000 A 
ATOM     23  C12 UNL     1      19.434  13.055  -0.527  0.00  0.00    +0.000 A 
ATOM     24  C13 UNL     1      18.649  14.197  -0.367  0.00  0.00    +0.000 A 
ENDBRANCH  16  19
ENDBRANCH  14  16
ENDBRANCH  13  14
ENDBRANCH   1  13
TORSDOF 5
ENDMDL
MODEL 9
REMARK VINA RESULT:    -5.240      5.410      7.027
REMARK INTER + INTRA:          -7.419
REMARK INTER:                  -6.772
REMARK INTRA:                  -0.647
REMARK UNBOUND:                -0.647
REMARK  Name = /home/anacleto/Desktop/manuscript_Mpro/naturecomm/supplementary_file_S2/6-chemical-library/molecular_docking/3D_ligand_structure/424.pdb
REMARK  5 active torsions:
REMARK  status: ('A' for Active; 'I' for Inactive)
REMARK    1  A    between atoms: N3_9  and  C6_10
REMARK    2  A    between atoms: C6_10  and  C7_11
REMARK    3  A    between atoms: C7_11  and  N4_12
REMARK    4  A    between atoms: N4_12  and  S1_13
REMARK    5  A    between atoms: S1_13  and  C8_16
REMARK                            x       y       z     vdW  Elec       q    Type
REMARK                         _______ _______ _______ _____ _____    ______ ____
ROOT
ATOM      1  C6  UNL     1      18.119  11.398  -2.949  0.00  0.00    +0.000 C 
ENDROOT
BRANCH   1  10
ATOM      2  C1  UNL     1      19.590  13.991   0.091  0.00  0.00    +0.000 C 
ATOM      3  C2  UNL     1      20.317  15.210   0.687  0.00  0.00    +0.000 C 
ATOM      4  N1  UNL     1      19.446  16.200   1.337  0.00  0.00    +0.000 NA
ATOM      5  C3  UNL     1      18.097  16.240   0.743  0.00  0.00    +0.000 C 
ATOM      6  C4  UNL     1      18.018  15.742  -0.709  0.00  0.00    +0.000 C 
ATOM      7  N2  UNL     1      18.524  14.374  -0.840  0.00  0.00    +0.000 N 
ATOM      8  C5  UNL     1      18.102  13.619  -1.914  0.00  0.00    +0.000 C 
ATOM      9  O1  UNL     1      17.386  14.063  -2.807  0.00  0.00    +0.000 OA
ATOM     10  N3  UNL     1      18.554  12.322  -1.913  0.00  0.00    +0.000 N 
ATOM     11  H5  UNL     1      19.359  15.994   2.332  0.00  0.00    +0.000 HD
ATOM     12  H10 UNL     1      18.599  11.928  -0.986  0.00  0.00    +0.000 HD
ENDBRANCH   1  10
BRANCH   1  13
ATOM     13  C7  UNL     1      16.871  10.591  -2.561  0.00  0.00    +0.000 C 
BRANCH  13  14
ATOM     14  N4  UNL     1      16.033  10.292  -3.726  0.00  0.00    +0.000 NA
ATOM     15  H15 UNL     1      15.968   9.345  -4.086  0.00  0.00    +0.000 HD
BRANCH  14  16
ATOM     16  S1  UNL     1      14.843  11.346  -4.236  0.00  0.00    +0.000 S 
ATOM     17  O2  UNL     1      13.757  10.513  -4.706  0.00  0.00    +0.000 OA
ATOM     18  O3  UNL     1      14.633  12.335  -3.203  0.00  0.00    +0.000 OA
BRANCH  16  19
ATOM     19  C8  UNL     1      15.585  12.126  -5.644  0.00  0.00    +0.000 A 
ATOM     20  C9  UNL     1      15.465  13.508  -5.810  0.00  0.00    +0.000 A 
ATOM     21  C10 UNL     1      16.068  14.121  -6.908  0.00  0.00    +0.000 A 
ATOM     22  C11 UNL     1      16.793  13.358  -7.825  0.00  0.00    +0.000 A 
ATOM     23  C12 UNL     1      16.922  11.980  -7.647  0.00  0.00    +0.000 A 
ATOM     24  C13 UNL     1      16.324  11.359  -6.550  0.00  0.00    +0.000 A 
ENDBRANCH  16  19
ENDBRANCH  14  16
ENDBRANCH  13  14
ENDBRANCH   1  13
TORSDOF 5
ENDMDL
