MODEL 1
REMARK VINA RESULT:    -4.682      0.000      0.000
REMARK INTER + INTRA:          -4.682
REMARK INTER:                  -4.682
REMARK INTRA:                   0.000
REMARK UNBOUND:                 0.000
REMARK  Name = /home/anacleto/Desktop/manuscript_Mpro/naturecomm/supplementary_file_S2/6-chemical-library/molecular_docking/3D_ligand_structure/193.pdb
REMARK  0 active torsions:
REMARK  status: ('A' for Active; 'I' for Inactive)
REMARK                            x       y       z     vdW  Elec       q    Type
REMARK                         _______ _______ _______ _____ _____    ______ ____
ROOT
ATOM      1  C1  UNL     1     -35.969  12.564 -31.074  0.00  0.00    +0.000 A 
ATOM      2  C2  UNL     1     -36.874  11.523 -31.279  0.00  0.00    +0.000 A 
ATOM      3  C3  UNL     1     -36.608  10.544 -32.238  0.00  0.00    +0.000 A 
ATOM      4  C4  UNL     1     -35.436  10.600 -32.999  0.00  0.00    +0.000 A 
ATOM      5  C5  UNL     1     -34.521  11.639 -32.802  0.00  0.00    +0.000 A 
ATOM      6  C6  UNL     1     -34.797  12.620 -31.835  0.00  0.00    +0.000 A 
ATOM      7  C7  UNL     1     -33.286  11.720 -33.586  0.00  0.00    +0.000 A 
ATOM      8  C8  UNL     1     -32.436  12.730 -33.367  0.00  0.00    +0.000 A 
ATOM      9  N1  UNL     1     -32.695  13.692 -32.426  0.00  0.00    +0.000 N 
ATOM     10  C9  UNL     1     -33.821  13.720 -31.630  0.00  0.00    +0.000 A 
ATOM     11  O1  UNL     1     -34.004  14.606 -30.802  0.00  0.00    +0.000 OA
ATOM     12  H7  UNL     1     -32.038  14.448 -32.278  0.00  0.00    +0.000 HD
ENDROOT
TORSDOF 0
ENDMDL
MODEL 2
REMARK VINA RESULT:    -4.508      1.902      3.521
REMARK INTER + INTRA:          -4.508
REMARK INTER:                  -4.508
REMARK INTRA:                   0.000
REMARK UNBOUND:                 0.000
REMARK  Name = /home/anacleto/Desktop/manuscript_Mpro/naturecomm/supplementary_file_S2/6-chemical-library/molecular_docking/3D_ligand_structure/193.pdb
REMARK  0 active torsions:
REMARK  status: ('A' for Active; 'I' for Inactive)
REMARK                            x       y       z     vdW  Elec       q    Type
REMARK                         _______ _______ _______ _____ _____    ______ ____
ROOT
ATOM      1  C1  UNL     1     -34.670  12.626 -32.074  0.00  0.00    +0.000 A 
ATOM      2  C2  UNL     1     -34.599  11.623 -33.041  0.00  0.00    +0.000 A 
ATOM      3  C3  UNL     1     -35.555  10.606 -33.065  0.00  0.00    +0.000 A 
ATOM      4  C4  UNL     1     -36.588  10.585 -32.122  0.00  0.00    +0.000 A 
ATOM      5  C5  UNL     1     -36.669  11.585 -31.148  0.00  0.00    +0.000 A 
ATOM      6  C6  UNL     1     -35.703  12.604 -31.132  0.00  0.00    +0.000 A 
ATOM      7  C7  UNL     1     -37.742  11.584 -30.150  0.00  0.00    +0.000 A 
ATOM      8  C8  UNL     1     -37.785  12.560 -29.235  0.00  0.00    +0.000 A 
ATOM      9  N1  UNL     1     -36.849  13.559 -29.209  0.00  0.00    +0.000 N 
ATOM     10  C9  UNL     1     -35.796  13.663 -30.095  0.00  0.00    +0.000 A 
ATOM     11  O1  UNL     1     -34.984  14.579 -30.027  0.00  0.00    +0.000 OA
ATOM     12  H7  UNL     1     -36.900  14.286 -28.507  0.00  0.00    +0.000 HD
ENDROOT
TORSDOF 0
ENDMDL
MODEL 3
REMARK VINA RESULT:    -4.469     15.340     17.063
REMARK INTER + INTRA:          -4.469
REMARK INTER:                  -4.469
REMARK INTRA:                   0.000
REMARK UNBOUND:                 0.000
REMARK  Name = /home/anacleto/Desktop/manuscript_Mpro/naturecomm/supplementary_file_S2/6-chemical-library/molecular_docking/3D_ligand_structure/193.pdb
REMARK  0 active torsions:
REMARK  status: ('A' for Active; 'I' for Inactive)
REMARK                            x       y       z     vdW  Elec       q    Type
REMARK                         _______ _______ _______ _____ _____    ______ ____
ROOT
ATOM      1  C1  UNL     1     -21.020   6.752 -38.788  0.00  0.00    +0.000 A 
ATOM      2  C2  UNL     1     -22.038   7.196 -37.945  0.00  0.00    +0.000 A 
ATOM      3  C3  UNL     1     -21.923   8.428 -37.299  0.00  0.00    +0.000 A 
ATOM      4  C4  UNL     1     -20.788   9.224 -37.491  0.00  0.00    +0.000 A 
ATOM      5  C5  UNL     1     -19.761   8.789 -38.334  0.00  0.00    +0.000 A 
ATOM      6  C6  UNL     1     -19.886   7.548 -38.980  0.00  0.00    +0.000 A 
ATOM      7  C7  UNL     1     -18.563   9.604 -38.552  0.00  0.00    +0.000 A 
ATOM      8  C8  UNL     1     -17.603   9.152 -39.367  0.00  0.00    +0.000 A 
ATOM      9  N1  UNL     1     -17.714   7.944 -40.003  0.00  0.00    +0.000 N 
ATOM     10  C9  UNL     1     -18.791   7.092 -39.875  0.00  0.00    +0.000 A 
ATOM     11  O1  UNL     1     -18.840   6.019 -40.467  0.00  0.00    +0.000 OA
ATOM     12  H7  UNL     1     -16.974   7.621 -40.615  0.00  0.00    +0.000 HD
ENDROOT
TORSDOF 0
ENDMDL
MODEL 4
REMARK VINA RESULT:    -4.323     19.255     19.871
REMARK INTER + INTRA:          -4.323
REMARK INTER:                  -4.323
REMARK INTRA:                   0.000
REMARK UNBOUND:                 0.000
REMARK  Name = /home/anacleto/Desktop/manuscript_Mpro/naturecomm/supplementary_file_S2/6-chemical-library/molecular_docking/3D_ligand_structure/193.pdb
REMARK  0 active torsions:
REMARK  status: ('A' for Active; 'I' for Inactive)
REMARK                            x       y       z     vdW  Elec       q    Type
REMARK                         _______ _______ _______ _____ _____    ______ ____
ROOT
ATOM      1  C1  UNL     1     -26.350  -5.653 -25.171  0.00  0.00    +0.000 A 
ATOM      2  C2  UNL     1     -25.017  -5.543 -24.776  0.00  0.00    +0.000 A 
ATOM      3  C3  UNL     1     -24.140  -4.728 -25.494  0.00  0.00    +0.000 A 
ATOM      4  C4  UNL     1     -24.590  -4.019 -26.613  0.00  0.00    +0.000 A 
ATOM      5  C5  UNL     1     -25.924  -4.122 -27.018  0.00  0.00    +0.000 A 
ATOM      6  C6  UNL     1     -26.799  -4.944 -26.289  0.00  0.00    +0.000 A 
ATOM      7  C7  UNL     1     -26.420  -3.389 -28.186  0.00  0.00    +0.000 A 
ATOM      8  C8  UNL     1     -27.704  -3.514 -28.541  0.00  0.00    +0.000 A 
ATOM      9  N1  UNL     1     -28.567  -4.312 -27.838  0.00  0.00    +0.000 N 
ATOM     10  C9  UNL     1     -28.216  -5.048 -26.725  0.00  0.00    +0.000 A 
ATOM     11  O1  UNL     1     -29.028  -5.749 -26.131  0.00  0.00    +0.000 OA
ATOM     12  H7  UNL     1     -29.535  -4.393 -28.125  0.00  0.00    +0.000 HD
ENDROOT
TORSDOF 0
ENDMDL
MODEL 5
REMARK VINA RESULT:    -4.293     13.688     15.648
REMARK INTER + INTRA:          -4.293
REMARK INTER:                  -4.293
REMARK INTRA:                   0.000
REMARK UNBOUND:                 0.000
REMARK  Name = /home/anacleto/Desktop/manuscript_Mpro/naturecomm/supplementary_file_S2/6-chemical-library/molecular_docking/3D_ligand_structure/193.pdb
REMARK  0 active torsions:
REMARK  status: ('A' for Active; 'I' for Inactive)
REMARK                            x       y       z     vdW  Elec       q    Type
REMARK                         _______ _______ _______ _____ _____    ______ ____
ROOT
ATOM      1  C1  UNL     1     -20.347  10.098 -37.885  0.00  0.00    +0.000 A 
ATOM      2  C2  UNL     1     -19.004  10.056 -38.260  0.00  0.00    +0.000 A 
ATOM      3  C3  UNL     1     -18.454   8.875 -38.762  0.00  0.00    +0.000 A 
ATOM      4  C4  UNL     1     -19.244   7.728 -38.893  0.00  0.00    +0.000 A 
ATOM      5  C5  UNL     1     -20.592   7.758 -38.521  0.00  0.00    +0.000 A 
ATOM      6  C6  UNL     1     -21.136   8.951 -38.016  0.00  0.00    +0.000 A 
ATOM      7  C7  UNL     1     -21.440   6.570 -38.649  0.00  0.00    +0.000 A 
ATOM      8  C8  UNL     1     -22.725   6.640 -38.282  0.00  0.00    +0.000 A 
ATOM      9  N1  UNL     1     -23.266   7.797 -37.789  0.00  0.00    +0.000 N 
ATOM     10  C9  UNL     1     -22.568   8.976 -37.623  0.00  0.00    +0.000 A 
ATOM     11  O1  UNL     1     -23.102   9.985 -37.177  0.00  0.00    +0.000 OA
ATOM     12  H7  UNL     1     -24.241   7.827 -37.517  0.00  0.00    +0.000 HD
ENDROOT
TORSDOF 0
ENDMDL
MODEL 6
REMARK VINA RESULT:    -4.262     12.244     13.376
REMARK INTER + INTRA:          -4.262
REMARK INTER:                  -4.262
REMARK INTRA:                   0.000
REMARK UNBOUND:                 0.000
REMARK  Name = /home/anacleto/Desktop/manuscript_Mpro/naturecomm/supplementary_file_S2/6-chemical-library/molecular_docking/3D_ligand_structure/193.pdb
REMARK  0 active torsions:
REMARK  status: ('A' for Active; 'I' for Inactive)
REMARK                            x       y       z     vdW  Elec       q    Type
REMARK                         _______ _______ _______ _____ _____    ______ ____
ROOT
ATOM      1  C1  UNL     1     -27.133   6.102 -39.291  0.00  0.00    +0.000 A 
ATOM      2  C2  UNL     1     -25.902   6.731 -39.471  0.00  0.00    +0.000 A 
ATOM      3  C3  UNL     1     -24.718   6.033 -39.228  0.00  0.00    +0.000 A 
ATOM      4  C4  UNL     1     -24.757   4.700 -38.803  0.00  0.00    +0.000 A 
ATOM      5  C5  UNL     1     -25.986   4.059 -38.620  0.00  0.00    +0.000 A 
ATOM      6  C6  UNL     1     -27.172   4.770 -38.866  0.00  0.00    +0.000 A 
ATOM      7  C7  UNL     1     -26.055   2.664 -38.176  0.00  0.00    +0.000 A 
ATOM      8  C8  UNL     1     -27.251   2.087 -38.013  0.00  0.00    +0.000 A 
ATOM      9  N1  UNL     1     -28.413   2.770 -38.250  0.00  0.00    +0.000 N 
ATOM     10  C9  UNL     1     -28.475   4.083 -38.670  0.00  0.00    +0.000 A 
ATOM     11  O1  UNL     1     -29.544   4.649 -38.868  0.00  0.00    +0.000 OA
ATOM     12  H7  UNL     1     -29.308   2.313 -38.119  0.00  0.00    +0.000 HD
ENDROOT
TORSDOF 0
ENDMDL
MODEL 7
REMARK VINA RESULT:    -4.197     19.449     20.147
REMARK INTER + INTRA:          -4.197
REMARK INTER:                  -4.197
REMARK INTRA:                   0.000
REMARK UNBOUND:                 0.000
REMARK  Name = /home/anacleto/Desktop/manuscript_Mpro/naturecomm/supplementary_file_S2/6-chemical-library/molecular_docking/3D_ligand_structure/193.pdb
REMARK  0 active torsions:
REMARK  status: ('A' for Active; 'I' for Inactive)
REMARK                            x       y       z     vdW  Elec       q    Type
REMARK                         _______ _______ _______ _____ _____    ______ ____
ROOT
ATOM      1  C1  UNL     1     -25.530  -3.920 -26.837  0.00  0.00    +0.000 A 
ATOM      2  C2  UNL     1     -24.410  -4.147 -26.038  0.00  0.00    +0.000 A 
ATOM      3  C3  UNL     1     -24.493  -5.015 -24.948  0.00  0.00    +0.000 A 
ATOM      4  C4  UNL     1     -25.697  -5.663 -24.650  0.00  0.00    +0.000 A 
ATOM      5  C5  UNL     1     -26.826  -5.443 -25.446  0.00  0.00    +0.000 A 
ATOM      6  C6  UNL     1     -26.733  -4.567 -26.540  0.00  0.00    +0.000 A 
ATOM      7  C7  UNL     1     -28.098  -6.110 -25.155  0.00  0.00    +0.000 A 
ATOM      8  C8  UNL     1     -29.156  -5.873 -25.940  0.00  0.00    +0.000 A 
ATOM      9  N1  UNL     1     -29.076  -5.022 -27.010  0.00  0.00    +0.000 N 
ATOM     10  C9  UNL     1     -27.936  -4.339 -27.381  0.00  0.00    +0.000 A 
ATOM     11  O1  UNL     1     -27.919  -3.587 -28.349  0.00  0.00    +0.000 OA
ATOM     12  H7  UNL     1     -29.890  -4.857 -27.591  0.00  0.00    +0.000 HD
ENDROOT
TORSDOF 0
ENDMDL
MODEL 8
REMARK VINA RESULT:    -4.169     13.376     15.560
REMARK INTER + INTRA:          -4.169
REMARK INTER:                  -4.169
REMARK INTRA:                   0.000
REMARK UNBOUND:                 0.000
REMARK  Name = /home/anacleto/Desktop/manuscript_Mpro/naturecomm/supplementary_file_S2/6-chemical-library/molecular_docking/3D_ligand_structure/193.pdb
REMARK  0 active torsions:
REMARK  status: ('A' for Active; 'I' for Inactive)
REMARK                            x       y       z     vdW  Elec       q    Type
REMARK                         _______ _______ _______ _____ _____    ______ ____
ROOT
ATOM      1  C1  UNL     1     -20.435   7.201 -38.958  0.00  0.00    +0.000 A 
ATOM      2  C2  UNL     1     -19.105   7.581 -39.137  0.00  0.00    +0.000 A 
ATOM      3  C3  UNL     1     -18.666   8.826 -38.681  0.00  0.00    +0.000 A 
ATOM      4  C4  UNL     1     -19.554   9.698 -38.043  0.00  0.00    +0.000 A 
ATOM      5  C5  UNL     1     -20.890   9.328 -37.858  0.00  0.00    +0.000 A 
ATOM      6  C6  UNL     1     -21.322   8.074 -38.321  0.00  0.00    +0.000 A 
ATOM      7  C7  UNL     1     -21.839  10.224 -37.193  0.00  0.00    +0.000 A 
ATOM      8  C8  UNL     1     -23.109   9.832 -37.035  0.00  0.00    +0.000 A 
ATOM      9  N1  UNL     1     -23.542   8.611 -37.481  0.00  0.00    +0.000 N 
ATOM     10  C9  UNL     1     -22.742   7.686 -38.120  0.00  0.00    +0.000 A 
ATOM     11  O1  UNL     1     -23.181   6.607 -38.501  0.00  0.00    +0.000 OA
ATOM     12  H7  UNL     1     -24.508   8.335 -37.352  0.00  0.00    +0.000 HD
ENDROOT
TORSDOF 0
ENDMDL
MODEL 9
REMARK VINA RESULT:    -4.112     19.152     19.711
REMARK INTER + INTRA:          -4.112
REMARK INTER:                  -4.112
REMARK INTRA:                   0.000
REMARK UNBOUND:                 0.000
REMARK  Name = /home/anacleto/Desktop/manuscript_Mpro/naturecomm/supplementary_file_S2/6-chemical-library/molecular_docking/3D_ligand_structure/193.pdb
REMARK  0 active torsions:
REMARK  status: ('A' for Active; 'I' for Inactive)
REMARK                            x       y       z     vdW  Elec       q    Type
REMARK                         _______ _______ _______ _____ _____    ______ ____
ROOT
ATOM      1  C1  UNL     1     -26.158  -5.571 -25.102  0.00  0.00    +0.000 A 
ATOM      2  C2  UNL     1     -27.182  -6.316 -24.518  0.00  0.00    +0.000 A 
ATOM      3  C3  UNL     1     -28.460  -6.308 -25.079  0.00  0.00    +0.000 A 
ATOM      4  C4  UNL     1     -28.723  -5.553 -26.227  0.00  0.00    +0.000 A 
ATOM      5  C5  UNL     1     -27.704  -4.802 -26.821  0.00  0.00    +0.000 A 
ATOM      6  C6  UNL     1     -26.421  -4.817 -26.250  0.00  0.00    +0.000 A 
ATOM      7  C7  UNL     1     -27.955  -4.004 -28.025  0.00  0.00    +0.000 A 
ATOM      8  C8  UNL     1     -26.953  -3.299 -28.563  0.00  0.00    +0.000 A 
ATOM      9  N1  UNL     1     -25.698  -3.306 -28.015  0.00  0.00    +0.000 N 
ATOM     10  C9  UNL     1     -25.344  -4.017 -26.887  0.00  0.00    +0.000 A 
ATOM     11  O1  UNL     1     -24.204  -3.988 -26.437  0.00  0.00    +0.000 OA
ATOM     12  H7  UNL     1     -24.954  -2.764 -28.439  0.00  0.00    +0.000 HD
ENDROOT
TORSDOF 0
ENDMDL
