MODEL 1
REMARK VINA RESULT:    -4.082      0.000      0.000
REMARK INTER + INTRA:          -4.403
REMARK INTER:                  -4.335
REMARK INTRA:                  -0.069
REMARK UNBOUND:                -0.082
REMARK  Name = /home/anacleto/Desktop/manuscript_Mpro/naturecomm/supplementary_file_S2/6-chemical-library/molecular_docking/3D_ligand_structure/1373.pdb
REMARK  1 active torsions:
REMARK  status: ('A' for Active; 'I' for Inactive)
REMARK    1  A    between atoms: C3_5  and  C4_6
REMARK                            x       y       z     vdW  Elec       q    Type
REMARK                         _______ _______ _______ _____ _____    ______ ____
ROOT
ATOM      1  C1  UNL     1      15.216  11.336  -6.986  0.00  0.00    +0.000 A 
ATOM      2  N1  UNL     1      14.167  10.932  -7.758  0.00  0.00    +0.000 N 
ATOM      3  N2  UNL     1      13.117  10.495  -7.047  0.00  0.00    +0.000 NA
ATOM      4  C2  UNL     1      13.514  10.643  -5.781  0.00  0.00    +0.000 A 
ATOM      5  C3  UNL     1      14.828  11.161  -5.672  0.00  0.00    +0.000 A 
ATOM      6  H2  UNL     1      14.098  10.922  -8.770  0.00  0.00    +0.000 HD
ENDROOT
BRANCH   5   7
ATOM      7  C4  UNL     1      15.611  11.440  -4.440  0.00  0.00    +0.000 C 
ATOM      8  C5  UNL     1      17.079  11.012  -4.516  0.00  0.00    +0.000 C 
ATOM      9  C6  UNL     1      17.303  10.152  -3.278  0.00  0.00    +0.000 C 
ATOM     10  C7  UNL     1      16.136  10.495  -2.375  0.00  0.00    +0.000 C 
ATOM     11  N3  UNL     1      15.046  10.675  -3.325  0.00  0.00    +0.000 NA
ATOM     12  H11 UNL     1      14.263  11.176  -2.912  0.00  0.00    +0.000 HD
ENDBRANCH   5   7
TORSDOF 1
ENDMDL
MODEL 2
REMARK VINA RESULT:    -4.080      2.746      3.253
REMARK INTER + INTRA:          -4.401
REMARK INTER:                  -4.327
REMARK INTRA:                  -0.074
REMARK UNBOUND:                -0.082
REMARK  Name = /home/anacleto/Desktop/manuscript_Mpro/naturecomm/supplementary_file_S2/6-chemical-library/molecular_docking/3D_ligand_structure/1373.pdb
REMARK  1 active torsions:
REMARK  status: ('A' for Active; 'I' for Inactive)
REMARK    1  A    between atoms: C3_5  and  C4_6
REMARK                            x       y       z     vdW  Elec       q    Type
REMARK                         _______ _______ _______ _____ _____    ______ ____
ROOT
ATOM      1  C1  UNL     1      14.556  11.112  -4.172  0.00  0.00    +0.000 A 
ATOM      2  N1  UNL     1      13.778  10.289  -4.931  0.00  0.00    +0.000 N 
ATOM      3  N2  UNL     1      13.094  10.931  -5.889  0.00  0.00    +0.000 NA
ATOM      4  C2  UNL     1      13.467  12.204  -5.738  0.00  0.00    +0.000 A 
ATOM      5  C3  UNL     1      14.381  12.389  -4.671  0.00  0.00    +0.000 A 
ATOM      6  H2  UNL     1      13.661   9.284  -4.851  0.00  0.00    +0.000 HD
ENDROOT
BRANCH   5   7
ATOM      7  C4  UNL     1      14.996  13.653  -4.190  0.00  0.00    +0.000 C 
ATOM      8  C5  UNL     1      15.945  13.480  -3.002  0.00  0.00    +0.000 C 
ATOM      9  C6  UNL     1      15.456  14.477  -1.959  0.00  0.00    +0.000 C 
ATOM     10  C7  UNL     1      14.583  15.434  -2.744  0.00  0.00    +0.000 C 
ATOM     11  N3  UNL     1      13.942  14.551  -3.712  0.00  0.00    +0.000 NA
ATOM     12  H11 UNL     1      13.540  15.071  -4.488  0.00  0.00    +0.000 HD
ENDBRANCH   5   7
TORSDOF 1
ENDMDL
MODEL 3
REMARK VINA RESULT:    -3.993      1.652      1.913
REMARK INTER + INTRA:          -4.309
REMARK INTER:                  -4.232
REMARK INTRA:                  -0.077
REMARK UNBOUND:                -0.082
REMARK  Name = /home/anacleto/Desktop/manuscript_Mpro/naturecomm/supplementary_file_S2/6-chemical-library/molecular_docking/3D_ligand_structure/1373.pdb
REMARK  1 active torsions:
REMARK  status: ('A' for Active; 'I' for Inactive)
REMARK    1  A    between atoms: C3_5  and  C4_6
REMARK                            x       y       z     vdW  Elec       q    Type
REMARK                         _______ _______ _______ _____ _____    ______ ____
ROOT
ATOM      1  C1  UNL     1      14.204  12.562  -4.941  0.00  0.00    +0.000 A 
ATOM      2  N1  UNL     1      13.066  12.416  -5.678  0.00  0.00    +0.000 N 
ATOM      3  N2  UNL     1      12.624  11.151  -5.736  0.00  0.00    +0.000 NA
ATOM      4  C2  UNL     1      13.508  10.478  -4.996  0.00  0.00    +0.000 A 
ATOM      5  C3  UNL     1      14.533  11.305  -4.472  0.00  0.00    +0.000 A 
ATOM      6  H2  UNL     1      12.540  13.130  -6.171  0.00  0.00    +0.000 HD
ENDROOT
BRANCH   5   7
ATOM      7  C4  UNL     1      15.692  10.915  -3.628  0.00  0.00    +0.000 C 
ATOM      8  C5  UNL     1      16.449  12.095  -3.014  0.00  0.00    +0.000 C 
ATOM      9  C6  UNL     1      17.908  11.867  -3.393  0.00  0.00    +0.000 C 
ATOM     10  C7  UNL     1      17.961  10.406  -3.791  0.00  0.00    +0.000 C 
ATOM     11  N3  UNL     1      16.678  10.215  -4.456  0.00  0.00    +0.000 NA
ATOM     12  H11 UNL     1      16.438   9.230  -4.537  0.00  0.00    +0.000 HD
ENDBRANCH   5   7
TORSDOF 1
ENDMDL
MODEL 4
REMARK VINA RESULT:    -3.969     15.403     17.729
REMARK INTER + INTRA:          -4.284
REMARK INTER:                  -4.198
REMARK INTRA:                  -0.086
REMARK UNBOUND:                -0.082
REMARK  Name = /home/anacleto/Desktop/manuscript_Mpro/naturecomm/supplementary_file_S2/6-chemical-library/molecular_docking/3D_ligand_structure/1373.pdb
REMARK  1 active torsions:
REMARK  status: ('A' for Active; 'I' for Inactive)
REMARK    1  A    between atoms: C3_5  and  C4_6
REMARK                            x       y       z     vdW  Elec       q    Type
REMARK                         _______ _______ _______ _____ _____    ______ ____
ROOT
ATOM      1  C1  UNL     1      18.474   7.719  12.275  0.00  0.00    +0.000 A 
ATOM      2  N1  UNL     1      18.656   8.187  13.542  0.00  0.00    +0.000 N 
ATOM      3  N2  UNL     1      19.907   8.022  14.000  0.00  0.00    +0.000 NA
ATOM      4  C2  UNL     1      20.539   7.442  12.976  0.00  0.00    +0.000 A 
ATOM      5  C3  UNL     1      19.693   7.217  11.861  0.00  0.00    +0.000 A 
ATOM      6  H2  UNL     1      17.977   8.626  14.155  0.00  0.00    +0.000 HD
ENDROOT
BRANCH   5   7
ATOM      7  C4  UNL     1      20.029   6.581  10.561  0.00  0.00    +0.000 C 
ATOM      8  C5  UNL     1      20.050   7.548   9.374  0.00  0.00    +0.000 C 
ATOM      9  C6  UNL     1      19.144   6.908   8.329  0.00  0.00    +0.000 C 
ATOM     10  C7  UNL     1      19.026   5.465   8.777  0.00  0.00    +0.000 C 
ATOM     11  N3  UNL     1      19.003   5.589  10.230  0.00  0.00    +0.000 NA
ATOM     12  H11 UNL     1      19.205   4.703  10.687  0.00  0.00    +0.000 HD
ENDBRANCH   5   7
TORSDOF 1
ENDMDL
MODEL 5
REMARK VINA RESULT:    -3.889      1.999      4.655
REMARK INTER + INTRA:          -4.199
REMARK INTER:                  -4.130
REMARK INTRA:                  -0.069
REMARK UNBOUND:                -0.082
REMARK  Name = /home/anacleto/Desktop/manuscript_Mpro/naturecomm/supplementary_file_S2/6-chemical-library/molecular_docking/3D_ligand_structure/1373.pdb
REMARK  1 active torsions:
REMARK  status: ('A' for Active; 'I' for Inactive)
REMARK    1  A    between atoms: C3_5  and  C4_6
REMARK                            x       y       z     vdW  Elec       q    Type
REMARK                         _______ _______ _______ _____ _____    ______ ____
ROOT
ATOM      1  C1  UNL     1      16.027  10.951  -1.866  0.00  0.00    +0.000 A 
ATOM      2  N1  UNL     1      16.502  11.752  -0.869  0.00  0.00    +0.000 N 
ATOM      3  N2  UNL     1      16.618  13.040  -1.226  0.00  0.00    +0.000 NA
ATOM      4  C2  UNL     1      16.185  13.053  -2.489  0.00  0.00    +0.000 A 
ATOM      5  C3  UNL     1      15.804  11.770  -2.956  0.00  0.00    +0.000 A 
ATOM      6  H2  UNL     1      16.771  11.490   0.074  0.00  0.00    +0.000 HD
ENDROOT
BRANCH   5   7
ATOM      7  C4  UNL     1      15.298  11.390  -4.300  0.00  0.00    +0.000 C 
ATOM      8  C5  UNL     1      14.766  12.562  -5.128  0.00  0.00    +0.000 C 
ATOM      9  C6  UNL     1      13.371  12.133  -5.567  0.00  0.00    +0.000 C 
ATOM     10  C7  UNL     1      13.365  10.632  -5.359  0.00  0.00    +0.000 C 
ATOM     11  N3  UNL     1      14.159  10.480  -4.147  0.00  0.00    +0.000 NA
ATOM     12  H11 UNL     1      14.483   9.524  -4.025  0.00  0.00    +0.000 HD
ENDBRANCH   5   7
TORSDOF 1
ENDMDL
MODEL 6
REMARK VINA RESULT:    -3.765      1.892      3.646
REMARK INTER + INTRA:          -4.067
REMARK INTER:                  -3.984
REMARK INTRA:                  -0.083
REMARK UNBOUND:                -0.082
REMARK  Name = /home/anacleto/Desktop/manuscript_Mpro/naturecomm/supplementary_file_S2/6-chemical-library/molecular_docking/3D_ligand_structure/1373.pdb
REMARK  1 active torsions:
REMARK  status: ('A' for Active; 'I' for Inactive)
REMARK    1  A    between atoms: C3_5  and  C4_6
REMARK                            x       y       z     vdW  Elec       q    Type
REMARK                         _______ _______ _______ _____ _____    ______ ____
ROOT
ATOM      1  C1  UNL     1      15.270  11.172  -4.798  0.00  0.00    +0.000 A 
ATOM      2  N1  UNL     1      14.311  10.543  -4.060  0.00  0.00    +0.000 N 
ATOM      3  N2  UNL     1      13.200  10.260  -4.757  0.00  0.00    +0.000 NA
ATOM      4  C2  UNL     1      13.477  10.713  -5.982  0.00  0.00    +0.000 A 
ATOM      5  C3  UNL     1      14.761  11.306  -6.075  0.00  0.00    +0.000 A 
ATOM      6  H2  UNL     1      14.342  10.280  -3.081  0.00  0.00    +0.000 HD
ENDROOT
BRANCH   5   7
ATOM      7  C4  UNL     1      15.405  11.934  -7.258  0.00  0.00    +0.000 C 
ATOM      8  C5  UNL     1      16.915  11.702  -7.350  0.00  0.00    +0.000 C 
ATOM      9  C6  UNL     1      17.517  13.092  -7.519  0.00  0.00    +0.000 C 
ATOM     10  C7  UNL     1      16.346  13.951  -7.950  0.00  0.00    +0.000 C 
ATOM     11  N3  UNL     1      15.244  13.388  -7.180  0.00  0.00    +0.000 NA
ATOM     12  H11 UNL     1      14.340  13.666  -7.555  0.00  0.00    +0.000 HD
ENDBRANCH   5   7
TORSDOF 1
ENDMDL
MODEL 7
REMARK VINA RESULT:    -3.758     15.284     17.107
REMARK INTER + INTRA:          -4.060
REMARK INTER:                  -3.989
REMARK INTRA:                  -0.071
REMARK UNBOUND:                -0.082
REMARK  Name = /home/anacleto/Desktop/manuscript_Mpro/naturecomm/supplementary_file_S2/6-chemical-library/molecular_docking/3D_ligand_structure/1373.pdb
REMARK  1 active torsions:
REMARK  status: ('A' for Active; 'I' for Inactive)
REMARK    1  A    between atoms: C3_5  and  C4_6
REMARK                            x       y       z     vdW  Elec       q    Type
REMARK                         _______ _______ _______ _____ _____    ______ ____
ROOT
ATOM      1  C1  UNL     1      18.755   5.441   9.547  0.00  0.00    +0.000 A 
ATOM      2  N1  UNL     1      18.795   5.860   8.250  0.00  0.00    +0.000 N 
ATOM      3  N2  UNL     1      19.296   7.096   8.101  0.00  0.00    +0.000 NA
ATOM      4  C2  UNL     1      19.597   7.462   9.349  0.00  0.00    +0.000 A 
ATOM      5  C3  UNL     1      19.275   6.470  10.309  0.00  0.00    +0.000 A 
ATOM      6  H2  UNL     1      18.496   5.362   7.418  0.00  0.00    +0.000 HD
ENDROOT
BRANCH   5   7
ATOM      7  C4  UNL     1      19.444   6.523  11.784  0.00  0.00    +0.000 C 
ATOM      8  C5  UNL     1      18.149   6.315  12.574  0.00  0.00    +0.000 C 
ATOM      9  C6  UNL     1      18.076   7.500  13.529  0.00  0.00    +0.000 C 
ATOM     10  C7  UNL     1      19.489   8.047  13.548  0.00  0.00    +0.000 C 
ATOM     11  N3  UNL     1      19.917   7.856  12.168  0.00  0.00    +0.000 NA
ATOM     12  H11 UNL     1      20.928   7.914  12.075  0.00  0.00    +0.000 HD
ENDBRANCH   5   7
TORSDOF 1
ENDMDL
MODEL 8
REMARK VINA RESULT:    -3.701      5.847      6.664
REMARK INTER + INTRA:          -3.999
REMARK INTER:                  -3.917
REMARK INTRA:                  -0.082
REMARK UNBOUND:                -0.082
REMARK  Name = /home/anacleto/Desktop/manuscript_Mpro/naturecomm/supplementary_file_S2/6-chemical-library/molecular_docking/3D_ligand_structure/1373.pdb
REMARK  1 active torsions:
REMARK  status: ('A' for Active; 'I' for Inactive)
REMARK    1  A    between atoms: C3_5  and  C4_6
REMARK                            x       y       z     vdW  Elec       q    Type
REMARK                         _______ _______ _______ _____ _____    ______ ____
ROOT
ATOM      1  C1  UNL     1      13.473  17.779  -2.257  0.00  0.00    +0.000 A 
ATOM      2  N1  UNL     1      12.234  17.997  -1.732  0.00  0.00    +0.000 N 
ATOM      3  N2  UNL     1      11.810  17.007  -0.933  0.00  0.00    +0.000 NA
ATOM      4  C2  UNL     1      12.826  16.141  -0.942  0.00  0.00    +0.000 A 
ATOM      5  C3  UNL     1      13.903  16.563  -1.762  0.00  0.00    +0.000 A 
ATOM      6  H2  UNL     1      11.619  18.792  -1.878  0.00  0.00    +0.000 HD
ENDROOT
BRANCH   5   7
ATOM      7  C4  UNL     1      15.184  15.862  -2.035  0.00  0.00    +0.000 C 
ATOM      8  C5  UNL     1      15.038  14.583  -2.863  0.00  0.00    +0.000 C 
ATOM      9  C6  UNL     1      15.762  13.509  -2.060  0.00  0.00    +0.000 C 
ATOM     10  C7  UNL     1      16.627  14.292  -1.094  0.00  0.00    +0.000 C 
ATOM     11  N3  UNL     1      15.779  15.432  -0.767  0.00  0.00    +0.000 NA
ATOM     12  H11 UNL     1      16.312  16.192  -0.350  0.00  0.00    +0.000 HD
ENDBRANCH   5   7
TORSDOF 1
ENDMDL
MODEL 9
REMARK VINA RESULT:    -3.542     16.119     17.527
REMARK INTER + INTRA:          -3.832
REMARK INTER:                  -3.752
REMARK INTRA:                  -0.080
REMARK UNBOUND:                -0.082
REMARK  Name = /home/anacleto/Desktop/manuscript_Mpro/naturecomm/supplementary_file_S2/6-chemical-library/molecular_docking/3D_ligand_structure/1373.pdb
REMARK  1 active torsions:
REMARK  status: ('A' for Active; 'I' for Inactive)
REMARK    1  A    between atoms: C3_5  and  C4_6
REMARK                            x       y       z     vdW  Elec       q    Type
REMARK                         _______ _______ _______ _____ _____    ______ ____
ROOT
ATOM      1  C1  UNL     1      18.333   5.547  11.938  0.00  0.00    +0.000 A 
ATOM      2  N1  UNL     1      17.746   5.688  13.161  0.00  0.00    +0.000 N 
ATOM      3  N2  UNL     1      17.672   6.962  13.575  0.00  0.00    +0.000 NA
ATOM      4  C2  UNL     1      18.218   7.650  12.570  0.00  0.00    +0.000 A 
ATOM      5  C3  UNL     1      18.662   6.819  11.510  0.00  0.00    +0.000 A 
ATOM      6  H2  UNL     1      17.378   4.964  13.769  0.00  0.00    +0.000 HD
ENDROOT
BRANCH   5   7
ATOM      7  C4  UNL     1      19.333   7.216  10.245  0.00  0.00    +0.000 C 
ATOM      8  C5  UNL     1      19.168   6.211   9.103  0.00  0.00    +0.000 C 
ATOM      9  C6  UNL     1      20.585   5.936   8.613  0.00  0.00    +0.000 C 
ATOM     10  C7  UNL     1      21.398   7.086   9.172  0.00  0.00    +0.000 C 
ATOM     11  N3  UNL     1      20.777   7.306  10.473  0.00  0.00    +0.000 NA
ATOM     12  H11 UNL     1      21.020   8.215  10.858  0.00  0.00    +0.000 HD
ENDBRANCH   5   7
TORSDOF 1
ENDMDL
