MODEL 1
REMARK VINA RESULT:    -4.591      0.000      0.000
REMARK INTER + INTRA:          -4.991
REMARK INTER:                  -4.861
REMARK INTRA:                  -0.130
REMARK UNBOUND:                -0.131
REMARK  Name = /home/anacleto/Desktop/manuscript_Mpro/naturecomm/supplementary_file_S2/6-chemical-library/molecular_docking/3D_ligand_structure/942.pdb
REMARK  1 active torsions:
REMARK  status: ('A' for Active; 'I' for Inactive)
REMARK    1  A    between atoms: C5_7  and  C6_9
REMARK                            x       y       z     vdW  Elec       q    Type
REMARK                         _______ _______ _______ _____ _____    ______ ____
ROOT
ATOM      1  C1  UNL     1     -30.928   5.159 -40.943  0.00  0.00    +0.000 C 
ATOM      2  C2  UNL     1     -31.127   6.646 -41.282  0.00  0.00    +0.000 C 
ATOM      3  N1  UNL     1     -30.921   7.537 -40.124  0.00  0.00    +0.000 NA
ATOM      4  C3  UNL     1     -29.576   7.299 -39.574  0.00  0.00    +0.000 C 
ATOM      5  C4  UNL     1     -29.329   5.830 -39.185  0.00  0.00    +0.000 C 
ATOM      6  N2  UNL     1     -29.649   4.901 -40.278  0.00  0.00    +0.000 N 
ATOM      7  C5  UNL     1     -29.214   3.573 -40.270  0.00  0.00    +0.000 C 
ATOM      8  O1  UNL     1     -29.841   2.653 -40.788  0.00  0.00    +0.000 OA
ATOM      9  H5  UNL     1     -31.610   7.294 -39.410  0.00  0.00    +0.000 HD
ENDROOT
BRANCH   7  10
ATOM     10  C6  UNL     1     -27.921   3.250 -39.625  0.00  0.00    +0.000 A 
ATOM     11  C7  UNL     1     -26.712   3.513 -40.280  0.00  0.00    +0.000 A 
ATOM     12  C8  UNL     1     -25.506   3.176 -39.666  0.00  0.00    +0.000 A 
ATOM     13  C9  UNL     1     -25.509   2.564 -38.412  0.00  0.00    +0.000 A 
ATOM     14  C10 UNL     1     -26.717   2.279 -37.771  0.00  0.00    +0.000 A 
ATOM     15  C11 UNL     1     -27.926   2.614 -38.381  0.00  0.00    +0.000 A 
ENDBRANCH   7  10
TORSDOF 1
ENDMDL
MODEL 2
REMARK VINA RESULT:    -4.590      7.227      8.637
REMARK INTER + INTRA:          -4.989
REMARK INTER:                  -4.867
REMARK INTRA:                  -0.122
REMARK UNBOUND:                -0.131
REMARK  Name = /home/anacleto/Desktop/manuscript_Mpro/naturecomm/supplementary_file_S2/6-chemical-library/molecular_docking/3D_ligand_structure/942.pdb
REMARK  1 active torsions:
REMARK  status: ('A' for Active; 'I' for Inactive)
REMARK    1  A    between atoms: C5_7  and  C6_9
REMARK                            x       y       z     vdW  Elec       q    Type
REMARK                         _______ _______ _______ _____ _____    ______ ____
ROOT
ATOM      1  C1  UNL     1     -20.773   9.901 -37.643  0.00  0.00    +0.000 C 
ATOM      2  C2  UNL     1     -19.408  10.345 -38.197  0.00  0.00    +0.000 C 
ATOM      3  N1  UNL     1     -18.411   9.258 -38.219  0.00  0.00    +0.000 NA
ATOM      4  C3  UNL     1     -18.952   8.132 -38.998  0.00  0.00    +0.000 C 
ATOM      5  C4  UNL     1     -20.304   7.621 -38.469  0.00  0.00    +0.000 C 
ATOM      6  N2  UNL     1     -21.287   8.703 -38.311  0.00  0.00    +0.000 N 
ATOM      7  C5  UNL     1     -22.651   8.445 -38.152  0.00  0.00    +0.000 C 
ATOM      8  O1  UNL     1     -23.405   9.165 -37.503  0.00  0.00    +0.000 OA
ATOM      9  H5  UNL     1     -18.261   8.946 -37.258  0.00  0.00    +0.000 HD
ENDROOT
BRANCH   7  10
ATOM     10  C6  UNL     1     -23.234   7.256 -38.814  0.00  0.00    +0.000 A 
ATOM     11  C7  UNL     1     -23.375   7.212 -40.206  0.00  0.00    +0.000 A 
ATOM     12  C8  UNL     1     -23.952   6.094 -40.808  0.00  0.00    +0.000 A 
ATOM     13  C9  UNL     1     -24.399   5.031 -40.021  0.00  0.00    +0.000 A 
ATOM     14  C10 UNL     1     -24.280   5.087 -38.630  0.00  0.00    +0.000 A 
ATOM     15  C11 UNL     1     -23.705   6.203 -38.024  0.00  0.00    +0.000 A 
ENDBRANCH   7  10
TORSDOF 1
ENDMDL
MODEL 3
REMARK VINA RESULT:    -4.577     14.581     16.779
REMARK INTER + INTRA:          -4.975
REMARK INTER:                  -4.879
REMARK INTRA:                  -0.096
REMARK UNBOUND:                -0.131
REMARK  Name = /home/anacleto/Desktop/manuscript_Mpro/naturecomm/supplementary_file_S2/6-chemical-library/molecular_docking/3D_ligand_structure/942.pdb
REMARK  1 active torsions:
REMARK  status: ('A' for Active; 'I' for Inactive)
REMARK    1  A    between atoms: C5_7  and  C6_9
REMARK                            x       y       z     vdW  Elec       q    Type
REMARK                         _______ _______ _______ _____ _____    ______ ____
ROOT
ATOM      1  C1  UNL     1     -26.092  -3.903 -28.419  0.00  0.00    +0.000 C 
ATOM      2  C2  UNL     1     -27.610  -3.687 -28.551  0.00  0.00    +0.000 C 
ATOM      3  N1  UNL     1     -28.403  -4.663 -27.780  0.00  0.00    +0.000 NA
ATOM      4  C3  UNL     1     -27.985  -4.607 -26.369  0.00  0.00    +0.000 C 
ATOM      5  C4  UNL     1     -26.478  -4.848 -26.171  0.00  0.00    +0.000 C 
ATOM      6  N2  UNL     1     -25.656  -3.978 -27.024  0.00  0.00    +0.000 N 
ATOM      7  C5  UNL     1     -24.289  -3.796 -26.794  0.00  0.00    +0.000 C 
ATOM      8  O1  UNL     1     -23.476  -3.576 -27.688  0.00  0.00    +0.000 OA
ATOM      9  H5  UNL     1     -28.197  -5.596 -28.142  0.00  0.00    +0.000 HD
ENDROOT
BRANCH   7  10
ATOM     10  C6  UNL     1     -23.787  -3.847 -25.403  0.00  0.00    +0.000 A 
ATOM     11  C7  UNL     1     -24.165  -2.872 -24.472  0.00  0.00    +0.000 A 
ATOM     12  C8  UNL     1     -23.659  -2.923 -23.173  0.00  0.00    +0.000 A 
ATOM     13  C9  UNL     1     -22.767  -3.935 -22.812  0.00  0.00    +0.000 A 
ATOM     14  C10 UNL     1     -22.371  -4.892 -23.748  0.00  0.00    +0.000 A 
ATOM     15  C11 UNL     1     -22.875  -4.845 -25.048  0.00  0.00    +0.000 A 
ENDBRANCH   7  10
TORSDOF 1
ENDMDL
MODEL 4
REMARK VINA RESULT:    -4.532      4.908      6.258
REMARK INTER + INTRA:          -4.928
REMARK INTER:                  -4.796
REMARK INTRA:                  -0.131
REMARK UNBOUND:                -0.131
REMARK  Name = /home/anacleto/Desktop/manuscript_Mpro/naturecomm/supplementary_file_S2/6-chemical-library/molecular_docking/3D_ligand_structure/942.pdb
REMARK  1 active torsions:
REMARK  status: ('A' for Active; 'I' for Inactive)
REMARK    1  A    between atoms: C5_7  and  C6_9
REMARK                            x       y       z     vdW  Elec       q    Type
REMARK                         _______ _______ _______ _____ _____    ______ ____
ROOT
ATOM      1  C1  UNL     1     -23.476   8.347 -38.192  0.00  0.00    +0.000 C 
ATOM      2  C2  UNL     1     -22.054   8.931 -38.247  0.00  0.00    +0.000 C 
ATOM      3  N1  UNL     1     -21.051   8.076 -37.582  0.00  0.00    +0.000 NA
ATOM      4  C3  UNL     1     -21.092   6.735 -38.189  0.00  0.00    +0.000 C 
ATOM      5  C4  UNL     1     -22.487   6.085 -38.133  0.00  0.00    +0.000 C 
ATOM      6  N2  UNL     1     -23.535   6.964 -38.671  0.00  0.00    +0.000 N 
ATOM      7  C5  UNL     1     -24.802   6.482 -39.011  0.00  0.00    +0.000 C 
ATOM      8  O1  UNL     1     -25.826   7.155 -38.931  0.00  0.00    +0.000 OA
ATOM      9  H5  UNL     1     -21.307   7.995 -36.597  0.00  0.00    +0.000 HD
ENDROOT
BRANCH   7  10
ATOM     10  C6  UNL     1     -24.925   5.096 -39.515  0.00  0.00    +0.000 A 
ATOM     11  C7  UNL     1     -24.570   4.782 -40.832  0.00  0.00    +0.000 A 
ATOM     12  C8  UNL     1     -24.720   3.475 -41.296  0.00  0.00    +0.000 A 
ATOM     13  C9  UNL     1     -25.236   2.490 -40.451  0.00  0.00    +0.000 A 
ATOM     14  C10 UNL     1     -25.614   2.810 -39.146  0.00  0.00    +0.000 A 
ATOM     15  C11 UNL     1     -25.466   4.116 -38.678  0.00  0.00    +0.000 A 
ENDBRANCH   7  10
TORSDOF 1
ENDMDL
MODEL 5
REMARK VINA RESULT:    -4.500      7.870      9.608
REMARK INTER + INTRA:          -4.894
REMARK INTER:                  -4.772
REMARK INTRA:                  -0.122
REMARK UNBOUND:                -0.131
REMARK  Name = /home/anacleto/Desktop/manuscript_Mpro/naturecomm/supplementary_file_S2/6-chemical-library/molecular_docking/3D_ligand_structure/942.pdb
REMARK  1 active torsions:
REMARK  status: ('A' for Active; 'I' for Inactive)
REMARK    1  A    between atoms: C5_7  and  C6_9
REMARK                            x       y       z     vdW  Elec       q    Type
REMARK                         _______ _______ _______ _____ _____    ______ ____
ROOT
ATOM      1  C1  UNL     1     -18.510   8.769 -38.728  0.00  0.00    +0.000 C 
ATOM      2  C2  UNL     1     -17.599   9.078 -39.928  0.00  0.00    +0.000 C 
ATOM      3  N1  UNL     1     -17.241   7.878 -40.708  0.00  0.00    +0.000 NA
ATOM      4  C3  UNL     1     -18.477   7.209 -41.146  0.00  0.00    +0.000 C 
ATOM      5  C4  UNL     1     -19.416   6.844 -39.982  0.00  0.00    +0.000 C 
ATOM      6  N2  UNL     1     -19.692   7.992 -39.107  0.00  0.00    +0.000 N 
ATOM      7  C5  UNL     1     -20.746   7.984 -38.188  0.00  0.00    +0.000 C 
ATOM      8  O1  UNL     1     -20.717   8.590 -37.120  0.00  0.00    +0.000 OA
ATOM      9  H5  UNL     1     -16.728   7.242 -40.094  0.00  0.00    +0.000 HD
ENDROOT
BRANCH   7  10
ATOM     10  C6  UNL     1     -21.975   7.228 -38.519  0.00  0.00    +0.000 A 
ATOM     11  C7  UNL     1     -22.834   7.671 -39.532  0.00  0.00    +0.000 A 
ATOM     12  C8  UNL     1     -24.000   6.959 -39.810  0.00  0.00    +0.000 A 
ATOM     13  C9  UNL     1     -24.314   5.819 -39.068  0.00  0.00    +0.000 A 
ATOM     14  C10 UNL     1     -23.470   5.392 -38.041  0.00  0.00    +0.000 A 
ATOM     15  C11 UNL     1     -22.302   6.102 -37.759  0.00  0.00    +0.000 A 
ENDBRANCH   7  10
TORSDOF 1
ENDMDL
MODEL 6
REMARK VINA RESULT:    -4.391      3.889      5.471
REMARK INTER + INTRA:          -4.778
REMARK INTER:                  -4.718
REMARK INTRA:                  -0.060
REMARK UNBOUND:                -0.131
REMARK  Name = /home/anacleto/Desktop/manuscript_Mpro/naturecomm/supplementary_file_S2/6-chemical-library/molecular_docking/3D_ligand_structure/942.pdb
REMARK  1 active torsions:
REMARK  status: ('A' for Active; 'I' for Inactive)
REMARK    1  A    between atoms: C5_7  and  C6_9
REMARK                            x       y       z     vdW  Elec       q    Type
REMARK                         _______ _______ _______ _____ _____    ______ ____
ROOT
ATOM      1  C1  UNL     1     -27.437   4.933 -39.139  0.00  0.00    +0.000 C 
ATOM      2  C2  UNL     1     -28.058   3.769 -38.348  0.00  0.00    +0.000 C 
ATOM      3  N1  UNL     1     -27.432   2.467 -38.647  0.00  0.00    +0.000 NA
ATOM      4  C3  UNL     1     -25.985   2.564 -38.388  0.00  0.00    +0.000 C 
ATOM      5  C4  UNL     1     -25.301   3.694 -39.179  0.00  0.00    +0.000 C 
ATOM      6  N2  UNL     1     -25.979   4.987 -39.008  0.00  0.00    +0.000 N 
ATOM      7  C5  UNL     1     -25.371   6.194 -39.364  0.00  0.00    +0.000 C 
ATOM      8  O1  UNL     1     -25.995   7.174 -39.761  0.00  0.00    +0.000 OA
ATOM      9  H5  UNL     1     -27.571   2.268 -39.639  0.00  0.00    +0.000 HD
ENDROOT
BRANCH   7  10
ATOM     10  C6  UNL     1     -23.901   6.315 -39.240  0.00  0.00    +0.000 A 
ATOM     11  C7  UNL     1     -23.277   6.183 -37.994  0.00  0.00    +0.000 A 
ATOM     12  C8  UNL     1     -21.894   6.328 -37.895  0.00  0.00    +0.000 A 
ATOM     13  C9  UNL     1     -21.140   6.620 -39.033  0.00  0.00    +0.000 A 
ATOM     14  C10 UNL     1     -21.766   6.776 -40.271  0.00  0.00    +0.000 A 
ATOM     15  C11 UNL     1     -23.150   6.632 -40.375  0.00  0.00    +0.000 A 
ENDBRANCH   7  10
TORSDOF 1
ENDMDL
MODEL 7
REMARK VINA RESULT:    -4.374     15.022     17.499
REMARK INTER + INTRA:          -4.761
REMARK INTER:                  -4.665
REMARK INTRA:                  -0.096
REMARK UNBOUND:                -0.131
REMARK  Name = /home/anacleto/Desktop/manuscript_Mpro/naturecomm/supplementary_file_S2/6-chemical-library/molecular_docking/3D_ligand_structure/942.pdb
REMARK  1 active torsions:
REMARK  status: ('A' for Active; 'I' for Inactive)
REMARK    1  A    between atoms: C5_7  and  C6_9
REMARK                            x       y       z     vdW  Elec       q    Type
REMARK                         _______ _______ _______ _____ _____    ______ ____
ROOT
ATOM      1  C1  UNL     1     -22.861  -5.182 -24.350  0.00  0.00    +0.000 C 
ATOM      2  C2  UNL     1     -22.694  -4.710 -22.895  0.00  0.00    +0.000 C 
ATOM      3  N1  UNL     1     -22.718  -3.242 -22.757  0.00  0.00    +0.000 NA
ATOM      4  C3  UNL     1     -23.973  -2.730 -23.333  0.00  0.00    +0.000 C 
ATOM      5  C4  UNL     1     -24.180  -3.145 -24.802  0.00  0.00    +0.000 C 
ATOM      6  N2  UNL     1     -24.033  -4.593 -25.000  0.00  0.00    +0.000 N 
ATOM      7  C5  UNL     1     -24.480  -5.229 -26.162  0.00  0.00    +0.000 C 
ATOM      8  O1  UNL     1     -23.947  -6.231 -26.632  0.00  0.00    +0.000 OA
ATOM      9  H5  UNL     1     -21.936  -2.859 -23.291  0.00  0.00    +0.000 HD
ENDROOT
BRANCH   7  10
ATOM     10  C6  UNL     1     -25.670  -4.690 -26.857  0.00  0.00    +0.000 A 
ATOM     11  C7  UNL     1     -26.959  -5.065 -26.462  0.00  0.00    +0.000 A 
ATOM     12  C8  UNL     1     -28.066  -4.567 -27.148  0.00  0.00    +0.000 A 
ATOM     13  C9  UNL     1     -27.884  -3.709 -28.235  0.00  0.00    +0.000 A 
ATOM     14  C10 UNL     1     -26.597  -3.356 -28.645  0.00  0.00    +0.000 A 
ATOM     15  C11 UNL     1     -25.487  -3.852 -27.961  0.00  0.00    +0.000 A 
ENDBRANCH   7  10
TORSDOF 1
ENDMDL
MODEL 8
REMARK VINA RESULT:    -4.316      3.741      5.174
REMARK INTER + INTRA:          -4.699
REMARK INTER:                  -4.567
REMARK INTRA:                  -0.132
REMARK UNBOUND:                -0.131
REMARK  Name = /home/anacleto/Desktop/manuscript_Mpro/naturecomm/supplementary_file_S2/6-chemical-library/molecular_docking/3D_ligand_structure/942.pdb
REMARK  1 active torsions:
REMARK  status: ('A' for Active; 'I' for Inactive)
REMARK    1  A    between atoms: C5_7  and  C6_9
REMARK                            x       y       z     vdW  Elec       q    Type
REMARK                         _______ _______ _______ _____ _____    ______ ____
ROOT
ATOM      1  C1  UNL     1     -23.121   6.104 -40.740  0.00  0.00    +0.000 C 
ATOM      2  C2  UNL     1     -22.194   7.033 -39.937  0.00  0.00    +0.000 C 
ATOM      3  N1  UNL     1     -22.926   8.043 -39.150  0.00  0.00    +0.000 NA
ATOM      4  C3  UNL     1     -23.877   7.355 -38.260  0.00  0.00    +0.000 C 
ATOM      5  C4  UNL     1     -24.854   6.433 -39.012  0.00  0.00    +0.000 C 
ATOM      6  N2  UNL     1     -24.162   5.496 -39.909  0.00  0.00    +0.000 N 
ATOM      7  C5  UNL     1     -24.803   4.375 -40.443  0.00  0.00    +0.000 C 
ATOM      8  O1  UNL     1     -24.527   3.897 -41.541  0.00  0.00    +0.000 OA
ATOM      9  H5  UNL     1     -23.455   8.629 -39.798  0.00  0.00    +0.000 HD
ENDROOT
BRANCH   7  10
ATOM     10  C6  UNL     1     -25.856   3.707 -39.645  0.00  0.00    +0.000 A 
ATOM     11  C7  UNL     1     -25.517   2.885 -38.564  0.00  0.00    +0.000 A 
ATOM     12  C8  UNL     1     -26.523   2.243 -37.843  0.00  0.00    +0.000 A 
ATOM     13  C9  UNL     1     -27.860   2.410 -38.210  0.00  0.00    +0.000 A 
ATOM     14  C10 UNL     1     -28.194   3.210 -39.304  0.00  0.00    +0.000 A 
ATOM     15  C11 UNL     1     -27.192   3.854 -40.029  0.00  0.00    +0.000 A 
ENDBRANCH   7  10
TORSDOF 1
ENDMDL
MODEL 9
REMARK VINA RESULT:    -4.162      5.871      7.099
REMARK INTER + INTRA:          -4.536
REMARK INTER:                  -4.406
REMARK INTRA:                  -0.131
REMARK UNBOUND:                -0.131
REMARK  Name = /home/anacleto/Desktop/manuscript_Mpro/naturecomm/supplementary_file_S2/6-chemical-library/molecular_docking/3D_ligand_structure/942.pdb
REMARK  1 active torsions:
REMARK  status: ('A' for Active; 'I' for Inactive)
REMARK    1  A    between atoms: C5_7  and  C6_9
REMARK                            x       y       z     vdW  Elec       q    Type
REMARK                         _______ _______ _______ _____ _____    ______ ____
ROOT
ATOM      1  C1  UNL     1     -24.823   5.034 -38.801  0.00  0.00    +0.000 C 
ATOM      2  C2  UNL     1     -25.681   4.786 -40.054  0.00  0.00    +0.000 C 
ATOM      3  N1  UNL     1     -26.200   6.028 -40.656  0.00  0.00    +0.000 NA
ATOM      4  C3  UNL     1     -25.068   6.918 -40.963  0.00  0.00    +0.000 C 
ATOM      5  C4  UNL     1     -24.190   7.230 -39.738  0.00  0.00    +0.000 C 
ATOM      6  N2  UNL     1     -23.759   6.014 -39.035  0.00  0.00    +0.000 N 
ATOM      7  C5  UNL     1     -22.718   6.028 -38.102  0.00  0.00    +0.000 C 
ATOM      8  O1  UNL     1     -22.665   5.272 -37.136  0.00  0.00    +0.000 OA
ATOM      9  H5  UNL     1     -26.797   6.489 -39.967  0.00  0.00    +0.000 HD
ENDROOT
BRANCH   7  10
ATOM     10  C6  UNL     1     -21.606   6.986 -38.291  0.00  0.00    +0.000 A 
ATOM     11  C7  UNL     1     -20.603   6.738 -39.236  0.00  0.00    +0.000 A 
ATOM     12  C8  UNL     1     -19.549   7.640 -39.378  0.00  0.00    +0.000 A 
ATOM     13  C9  UNL     1     -19.489   8.775 -38.569  0.00  0.00    +0.000 A 
ATOM     14  C10 UNL     1     -20.475   9.009 -37.609  0.00  0.00    +0.000 A 
ATOM     15  C11 UNL     1     -21.532   8.109 -37.462  0.00  0.00    +0.000 A 
ENDBRANCH   7  10
TORSDOF 1
ENDMDL
