MODEL 1
REMARK VINA RESULT:    -4.325      0.000      0.000
REMARK INTER + INTRA:          -4.718
REMARK INTER:                  -4.849
REMARK INTRA:                   0.131
REMARK UNBOUND:                -0.140
REMARK  Name = /home/anacleto/Desktop/manuscript_Mpro/naturecomm/supplementary_file_S2/6-chemical-library/molecular_docking/3D_ligand_structure/1234.pdb
REMARK  1 active torsions:
REMARK  status: ('A' for Active; 'I' for Inactive)
REMARK    1  A    between atoms: C3_5  and  N3_6
REMARK                            x       y       z     vdW  Elec       q    Type
REMARK                         _______ _______ _______ _____ _____    ______ ____
ROOT
ATOM      1  N3  UNL     1     -38.796   7.303 -13.654  0.00  0.00    +0.000 N 
ATOM      2  C4  UNL     1     -38.408   5.963 -13.647  0.00  0.00    +0.000 A 
ATOM      3  N4  UNL     1     -38.711   5.284 -12.527  0.00  0.00    +0.000 NA
ATOM      4  C5  UNL     1     -38.354   3.986 -12.478  0.00  0.00    +0.000 A 
ATOM      5  C6  UNL     1     -37.708   3.338 -13.501  0.00  0.00    +0.000 A 
ATOM      6  C7  UNL     1     -37.442   4.110 -14.602  0.00  0.00    +0.000 A 
ATOM      7  N5  UNL     1     -37.779   5.411 -14.697  0.00  0.00    +0.000 NA
ATOM      8  H4  UNL     1     -39.247   7.493 -12.768  0.00  0.00    +0.000 HD
ENDROOT
BRANCH   1  13
ATOM      9  C1  UNL     1     -37.498   8.502 -15.288  0.00  0.00    +0.000 A 
ATOM     10  N1  UNL     1     -37.780   9.538 -16.131  0.00  0.00    +0.000 N 
ATOM     11  N2  UNL     1     -39.043   9.985 -16.033  0.00  0.00    +0.000 NA
ATOM     12  C2  UNL     1     -39.579   9.200 -15.090  0.00  0.00    +0.000 A 
ATOM     13  C3  UNL     1     -38.656   8.257 -14.592  0.00  0.00    +0.000 A 
ATOM     14  H2  UNL     1     -37.163   9.988 -16.798  0.00  0.00    +0.000 HD
ENDBRANCH   1  13
TORSDOF 1
ENDMDL
MODEL 2
REMARK VINA RESULT:    -4.293     25.457     26.640
REMARK INTER + INTRA:          -4.684
REMARK INTER:                  -4.535
REMARK INTRA:                  -0.149
REMARK UNBOUND:                -0.140
REMARK  Name = /home/anacleto/Desktop/manuscript_Mpro/naturecomm/supplementary_file_S2/6-chemical-library/molecular_docking/3D_ligand_structure/1234.pdb
REMARK  1 active torsions:
REMARK  status: ('A' for Active; 'I' for Inactive)
REMARK    1  A    between atoms: C3_5  and  N3_6
REMARK                            x       y       z     vdW  Elec       q    Type
REMARK                         _______ _______ _______ _____ _____    ______ ____
ROOT
ATOM      1  N3  UNL     1     -28.499   5.195 -39.319  0.00  0.00    +0.000 N 
ATOM      2  C4  UNL     1     -27.533   4.271 -38.922  0.00  0.00    +0.000 A 
ATOM      3  N4  UNL     1     -26.262   4.621 -39.185  0.00  0.00    +0.000 NA
ATOM      4  C5  UNL     1     -25.297   3.756 -38.817  0.00  0.00    +0.000 A 
ATOM      5  C6  UNL     1     -25.548   2.557 -38.199  0.00  0.00    +0.000 A 
ATOM      6  C7  UNL     1     -26.873   2.286 -37.972  0.00  0.00    +0.000 A 
ATOM      7  N5  UNL     1     -27.872   3.119 -38.321  0.00  0.00    +0.000 NA
ATOM      8  H4  UNL     1     -28.016   5.976 -39.744  0.00  0.00    +0.000 HD
ENDROOT
BRANCH   1  13
ATOM      9  C1  UNL     1     -30.547   5.653 -38.141  0.00  0.00    +0.000 A 
ATOM     10  N1  UNL     1     -31.864   5.437 -38.432  0.00  0.00    +0.000 N 
ATOM     11  N2  UNL     1     -32.063   4.846 -39.623  0.00  0.00    +0.000 NA
ATOM     12  C2  UNL     1     -30.823   4.683 -40.100  0.00  0.00    +0.000 A 
ATOM     13  C3  UNL     1     -29.840   5.170 -39.214  0.00  0.00    +0.000 A 
ATOM     14  H2  UNL     1     -32.676   5.666 -37.870  0.00  0.00    +0.000 HD
ENDBRANCH   1  13
TORSDOF 1
ENDMDL
MODEL 3
REMARK VINA RESULT:    -4.237     19.837     20.687
REMARK INTER + INTRA:          -4.624
REMARK INTER:                  -4.475
REMARK INTRA:                  -0.149
REMARK UNBOUND:                -0.140
REMARK  Name = /home/anacleto/Desktop/manuscript_Mpro/naturecomm/supplementary_file_S2/6-chemical-library/molecular_docking/3D_ligand_structure/1234.pdb
REMARK  1 active torsions:
REMARK  status: ('A' for Active; 'I' for Inactive)
REMARK    1  A    between atoms: C3_5  and  N3_6
REMARK                            x       y       z     vdW  Elec       q    Type
REMARK                         _______ _______ _______ _____ _____    ______ ____
ROOT
ATOM      1  N3  UNL     1     -25.230  -4.992 -26.227  0.00  0.00    +0.000 N 
ATOM      2  C4  UNL     1     -24.482  -4.450 -25.183  0.00  0.00    +0.000 A 
ATOM      3  N4  UNL     1     -23.529  -5.256 -24.682  0.00  0.00    +0.000 NA
ATOM      4  C5  UNL     1     -22.783  -4.771 -23.671  0.00  0.00    +0.000 A 
ATOM      5  C6  UNL     1     -22.948  -3.517 -23.139  0.00  0.00    +0.000 A 
ATOM      6  C7  UNL     1     -23.942  -2.768 -23.714  0.00  0.00    +0.000 A 
ATOM      7  N5  UNL     1     -24.714  -3.209 -24.726  0.00  0.00    +0.000 NA
ATOM      8  H4  UNL     1     -24.881  -5.927 -26.398  0.00  0.00    +0.000 HD
ENDROOT
BRANCH   1  13
ATOM      9  C1  UNL     1     -27.573  -4.697 -26.694  0.00  0.00    +0.000 A 
ATOM     10  N1  UNL     1     -28.257  -3.999 -27.647  0.00  0.00    +0.000 N 
ATOM     11  N2  UNL     1     -27.464  -3.337 -28.505  0.00  0.00    +0.000 NA
ATOM     12  C2  UNL     1     -26.229  -3.630 -28.076  0.00  0.00    +0.000 A 
ATOM     13  C3  UNL     1     -26.242  -4.476 -26.948  0.00  0.00    +0.000 A 
ATOM     14  H2  UNL     1     -29.261  -3.928 -27.771  0.00  0.00    +0.000 HD
ENDBRANCH   1  13
TORSDOF 1
ENDMDL
MODEL 4
REMARK VINA RESULT:    -4.068     20.730     22.440
REMARK INTER + INTRA:          -4.445
REMARK INTER:                  -4.303
REMARK INTRA:                  -0.143
REMARK UNBOUND:                -0.140
REMARK  Name = /home/anacleto/Desktop/manuscript_Mpro/naturecomm/supplementary_file_S2/6-chemical-library/molecular_docking/3D_ligand_structure/1234.pdb
REMARK  1 active torsions:
REMARK  status: ('A' for Active; 'I' for Inactive)
REMARK    1  A    between atoms: C3_5  and  N3_6
REMARK                            x       y       z     vdW  Elec       q    Type
REMARK                         _______ _______ _______ _____ _____    ______ ____
ROOT
ATOM      1  N3  UNL     1     -24.968  -3.557 -27.432  0.00  0.00    +0.000 N 
ATOM      2  C4  UNL     1     -23.857  -4.099 -28.077  0.00  0.00    +0.000 A 
ATOM      3  N4  UNL     1     -22.678  -3.538 -27.756  0.00  0.00    +0.000 NA
ATOM      4  C5  UNL     1     -21.578  -4.032 -28.357  0.00  0.00    +0.000 A 
ATOM      5  C6  UNL     1     -21.606  -5.060 -29.265  0.00  0.00    +0.000 A 
ATOM      6  C7  UNL     1     -22.852  -5.568 -29.530  0.00  0.00    +0.000 A 
ATOM      7  N5  UNL     1     -23.979  -5.108 -28.954  0.00  0.00    +0.000 NA
ATOM      8  H4  UNL     1     -24.637  -2.818 -26.825  0.00  0.00    +0.000 HD
ENDROOT
BRANCH   1  13
ATOM      9  C1  UNL     1     -27.135  -3.381 -28.465  0.00  0.00    +0.000 A 
ATOM     10  N1  UNL     1     -28.350  -3.940 -28.193  0.00  0.00    +0.000 N 
ATOM     11  N2  UNL     1     -28.341  -4.761 -27.129  0.00  0.00    +0.000 NA
ATOM     12  C2  UNL     1     -27.069  -4.716 -26.713  0.00  0.00    +0.000 A 
ATOM     13  C3  UNL     1     -26.275  -3.869 -27.513  0.00  0.00    +0.000 A 
ATOM     14  H2  UNL     1     -29.225  -3.809 -28.689  0.00  0.00    +0.000 HD
ENDBRANCH   1  13
TORSDOF 1
ENDMDL
MODEL 5
REMARK VINA RESULT:    -4.039     19.248     20.657
REMARK INTER + INTRA:          -4.414
REMARK INTER:                  -4.270
REMARK INTRA:                  -0.144
REMARK UNBOUND:                -0.140
REMARK  Name = /home/anacleto/Desktop/manuscript_Mpro/naturecomm/supplementary_file_S2/6-chemical-library/molecular_docking/3D_ligand_structure/1234.pdb
REMARK  1 active torsions:
REMARK  status: ('A' for Active; 'I' for Inactive)
REMARK    1  A    between atoms: C3_5  and  N3_6
REMARK                            x       y       z     vdW  Elec       q    Type
REMARK                         _______ _______ _______ _____ _____    ______ ____
ROOT
ATOM      1  N3  UNL     1     -28.907  -5.215 -26.316  0.00  0.00    +0.000 N 
ATOM      2  C4  UNL     1     -27.799  -4.785 -27.045  0.00  0.00    +0.000 A 
ATOM      3  N4  UNL     1     -27.975  -3.647 -27.739  0.00  0.00    +0.000 NA
ATOM      4  C5  UNL     1     -26.929  -3.197 -28.457  0.00  0.00    +0.000 A 
ATOM      5  C6  UNL     1     -25.715  -3.834 -28.511  0.00  0.00    +0.000 A 
ATOM      6  C7  UNL     1     -25.628  -4.985 -27.772  0.00  0.00    +0.000 A 
ATOM      7  N5  UNL     1     -26.646  -5.475 -27.039  0.00  0.00    +0.000 NA
ATOM      8  H4  UNL     1     -29.651  -4.546 -26.470  0.00  0.00    +0.000 HD
ENDROOT
BRANCH   1  13
ATOM      9  C1  UNL     1     -28.741  -6.341 -24.195  0.00  0.00    +0.000 A 
ATOM     10  N1  UNL     1     -29.078  -7.595 -23.772  0.00  0.00    +0.000 N 
ATOM     11  N2  UNL     1     -29.615  -8.364 -24.734  0.00  0.00    +0.000 NA
ATOM     12  C2  UNL     1     -29.616  -7.563 -25.807  0.00  0.00    +0.000 A 
ATOM     13  C3  UNL     1     -29.080  -6.290 -25.524  0.00  0.00    +0.000 A 
ATOM     14  H2  UNL     1     -28.972  -7.993 -22.845  0.00  0.00    +0.000 HD
ENDBRANCH   1  13
TORSDOF 1
ENDMDL
MODEL 6
REMARK VINA RESULT:    -4.000     22.594     24.318
REMARK INTER + INTRA:          -4.374
REMARK INTER:                  -4.226
REMARK INTRA:                  -0.148
REMARK UNBOUND:                -0.140
REMARK  Name = /home/anacleto/Desktop/manuscript_Mpro/naturecomm/supplementary_file_S2/6-chemical-library/molecular_docking/3D_ligand_structure/1234.pdb
REMARK  1 active torsions:
REMARK  status: ('A' for Active; 'I' for Inactive)
REMARK    1  A    between atoms: C3_5  and  N3_6
REMARK                            x       y       z     vdW  Elec       q    Type
REMARK                         _______ _______ _______ _____ _____    ______ ____
ROOT
ATOM      1  N3  UNL     1     -20.527  -5.560 -26.838  0.00  0.00    +0.000 N 
ATOM      2  C4  UNL     1     -21.905  -5.358 -26.764  0.00  0.00    +0.000 A 
ATOM      3  N4  UNL     1     -22.659  -6.410 -27.130  0.00  0.00    +0.000 NA
ATOM      4  C5  UNL     1     -23.996  -6.257 -27.073  0.00  0.00    +0.000 A 
ATOM      5  C6  UNL     1     -24.612  -5.101 -26.666  0.00  0.00    +0.000 A 
ATOM      6  C7  UNL     1     -23.763  -4.084 -26.312  0.00  0.00    +0.000 A 
ATOM      7  N5  UNL     1     -22.421  -4.189 -26.352  0.00  0.00    +0.000 NA
ATOM      8  H4  UNL     1     -20.375  -6.504 -27.170  0.00  0.00    +0.000 HD
ENDROOT
BRANCH   1  13
ATOM      9  C1  UNL     1     -18.931  -3.863 -27.443  0.00  0.00    +0.000 A 
ATOM     10  N1  UNL     1     -17.932  -3.231 -26.760  0.00  0.00    +0.000 N 
ATOM     11  N2  UNL     1     -17.811  -3.634 -25.484  0.00  0.00    +0.000 NA
ATOM     12  C2  UNL     1     -18.771  -4.559 -25.359  0.00  0.00    +0.000 A 
ATOM     13  C3  UNL     1     -19.499  -4.740 -26.553  0.00  0.00    +0.000 A 
ATOM     14  H2  UNL     1     -17.297  -2.516 -27.098  0.00  0.00    +0.000 HD
ENDBRANCH   1  13
TORSDOF 1
ENDMDL
MODEL 7
REMARK VINA RESULT:    -3.912     23.802     25.218
REMARK INTER + INTRA:          -4.281
REMARK INTER:                  -4.169
REMARK INTRA:                  -0.112
REMARK UNBOUND:                -0.140
REMARK  Name = /home/anacleto/Desktop/manuscript_Mpro/naturecomm/supplementary_file_S2/6-chemical-library/molecular_docking/3D_ligand_structure/1234.pdb
REMARK  1 active torsions:
REMARK  status: ('A' for Active; 'I' for Inactive)
REMARK    1  A    between atoms: C3_5  and  N3_6
REMARK                            x       y       z     vdW  Elec       q    Type
REMARK                         _______ _______ _______ _____ _____    ______ ____
ROOT
ATOM      1  N3  UNL     1     -34.708  -3.413 -36.331  0.00  0.00    +0.000 N 
ATOM      2  C4  UNL     1     -35.706  -2.450 -36.480  0.00  0.00    +0.000 A 
ATOM      3  N4  UNL     1     -35.401  -1.231 -36.002  0.00  0.00    +0.000 NA
ATOM      4  C5  UNL     1     -36.338  -0.270 -36.126  0.00  0.00    +0.000 A 
ATOM      5  C6  UNL     1     -37.564  -0.476 -36.705  0.00  0.00    +0.000 A 
ATOM      6  C7  UNL     1     -37.785  -1.750 -37.162  0.00  0.00    +0.000 A 
ATOM      7  N5  UNL     1     -36.880  -2.742 -37.062  0.00  0.00    +0.000 NA
ATOM      8  H4  UNL     1     -33.924  -2.970 -35.871  0.00  0.00    +0.000 HD
ENDROOT
BRANCH   1  13
ATOM      9  C1  UNL     1     -33.865  -5.228 -37.668  0.00  0.00    +0.000 A 
ATOM     10  N1  UNL     1     -34.137  -6.566 -37.711  0.00  0.00    +0.000 N 
ATOM     11  N2  UNL     1     -35.068  -6.955 -36.824  0.00  0.00    +0.000 NA
ATOM     12  C2  UNL     1     -35.396  -5.818 -36.198  0.00  0.00    +0.000 A 
ATOM     13  C3  UNL     1     -34.674  -4.710 -36.687  0.00  0.00    +0.000 A 
ATOM     14  H2  UNL     1     -33.727  -7.269 -38.315  0.00  0.00    +0.000 HD
ENDBRANCH   1  13
TORSDOF 1
ENDMDL
MODEL 8
REMARK VINA RESULT:    -3.900     28.036     29.321
REMARK INTER + INTRA:          -4.267
REMARK INTER:                  -4.137
REMARK INTRA:                  -0.131
REMARK UNBOUND:                -0.140
REMARK  Name = /home/anacleto/Desktop/manuscript_Mpro/naturecomm/supplementary_file_S2/6-chemical-library/molecular_docking/3D_ligand_structure/1234.pdb
REMARK  1 active torsions:
REMARK  status: ('A' for Active; 'I' for Inactive)
REMARK    1  A    between atoms: C3_5  and  N3_6
REMARK                            x       y       z     vdW  Elec       q    Type
REMARK                         _______ _______ _______ _____ _____    ______ ____
ROOT
ATOM      1  N3  UNL     1     -21.870   6.746 -37.665  0.00  0.00    +0.000 N 
ATOM      2  C4  UNL     1     -22.876   6.248 -38.494  0.00  0.00    +0.000 A 
ATOM      3  N4  UNL     1     -23.660   5.307 -37.941  0.00  0.00    +0.000 NA
ATOM      4  C5  UNL     1     -24.645   4.800 -38.707  0.00  0.00    +0.000 A 
ATOM      5  C6  UNL     1     -24.880   5.193 -40.001  0.00  0.00    +0.000 A 
ATOM      6  C7  UNL     1     -24.030   6.158 -40.478  0.00  0.00    +0.000 A 
ATOM      7  N5  UNL     1     -23.032   6.694 -39.751  0.00  0.00    +0.000 NA
ATOM      8  H4  UNL     1     -21.945   6.268 -36.776  0.00  0.00    +0.000 HD
ENDROOT
BRANCH   1  13
ATOM      9  C1  UNL     1     -20.935   8.941 -37.354  0.00  0.00    +0.000 A 
ATOM     10  N1  UNL     1     -19.809   9.555 -37.823  0.00  0.00    +0.000 N 
ATOM     11  N2  UNL     1     -19.064   8.776 -38.625  0.00  0.00    +0.000 NA
ATOM     12  C2  UNL     1     -19.748   7.626 -38.664  0.00  0.00    +0.000 A 
ATOM     13  C3  UNL     1     -20.924   7.676 -37.887  0.00  0.00    +0.000 A 
ATOM     14  H2  UNL     1     -19.486  10.498 -37.637  0.00  0.00    +0.000 HD
ENDBRANCH   1  13
TORSDOF 1
ENDMDL
MODEL 9
REMARK VINA RESULT:    -3.830     28.554     30.006
REMARK INTER + INTRA:          -4.193
REMARK INTER:                  -4.054
REMARK INTRA:                  -0.140
REMARK UNBOUND:                -0.140
REMARK  Name = /home/anacleto/Desktop/manuscript_Mpro/naturecomm/supplementary_file_S2/6-chemical-library/molecular_docking/3D_ligand_structure/1234.pdb
REMARK  1 active torsions:
REMARK  status: ('A' for Active; 'I' for Inactive)
REMARK    1  A    between atoms: C3_5  and  N3_6
REMARK                            x       y       z     vdW  Elec       q    Type
REMARK                         _______ _______ _______ _____ _____    ______ ____
ROOT
ATOM      1  N3  UNL     1     -21.079   8.090 -39.686  0.00  0.00    +0.000 N 
ATOM      2  C4  UNL     1     -21.969   7.142 -39.182  0.00  0.00    +0.000 A 
ATOM      3  N4  UNL     1     -22.907   6.720 -40.047  0.00  0.00    +0.000 NA
ATOM      4  C5  UNL     1     -23.787   5.803 -39.601  0.00  0.00    +0.000 A 
ATOM      5  C6  UNL     1     -23.769   5.290 -38.328  0.00  0.00    +0.000 A 
ATOM      6  C7  UNL     1     -22.777   5.779 -37.518  0.00  0.00    +0.000 A 
ATOM      7  N5  UNL     1     -21.875   6.695 -37.919  0.00  0.00    +0.000 NA
ATOM      8  H4  UNL     1     -21.340   8.272 -40.647  0.00  0.00    +0.000 HD
ENDROOT
BRANCH   1  13
ATOM      9  C1  UNL     1     -18.773   8.192 -39.004  0.00  0.00    +0.000 A 
ATOM     10  N1  UNL     1     -18.027   9.138 -38.361  0.00  0.00    +0.000 N 
ATOM     11  N2  UNL     1     -18.719  10.245 -38.041  0.00  0.00    +0.000 NA
ATOM     12  C2  UNL     1     -19.950   9.986 -38.500  0.00  0.00    +0.000 A 
ATOM     13  C3  UNL     1     -20.037   8.717 -39.109  0.00  0.00    +0.000 A 
ATOM     14  H2  UNL     1     -17.046   9.098 -38.110  0.00  0.00    +0.000 HD
ENDBRANCH   1  13
TORSDOF 1
ENDMDL
