MODEL 1
REMARK VINA RESULT:    -5.613      0.000      0.000
REMARK INTER + INTRA:          -6.876
REMARK INTER:                  -6.370
REMARK INTRA:                  -0.506
REMARK UNBOUND:                -0.279
REMARK  Name = /home/anacleto/Desktop/manuscript_Mpro/naturecomm/supplementary_file_S2/6-chemical-library/molecular_docking/3D_ligand_structure/589.pdb
REMARK  3 active torsions:
REMARK  status: ('A' for Active; 'I' for Inactive)
REMARK    1  A    between atoms: C4_5  and  N1_6
REMARK    2  A    between atoms: N2_9  and  C6_10
REMARK    3  A    between atoms: C6_10  and  C7_11
REMARK                            x       y       z     vdW  Elec       q    Type
REMARK                         _______ _______ _______ _____ _____    ______ ____
ROOT
ATOM      1  N1  UNL     1     -15.069   9.429 -39.155  0.00  0.00    +0.000 N 
ATOM      2  C5  UNL     1     -16.248   9.169 -39.810  0.00  0.00    +0.000 C 
ATOM      3  O2  UNL     1     -16.430   9.374 -41.000  0.00  0.00    +0.000 OA
ATOM      4  N2  UNL     1     -17.188   8.673 -38.944  0.00  0.00    +0.000 N 
ATOM      5  H8  UNL     1     -15.190   9.694 -38.188  0.00  0.00    +0.000 HD
ATOM      6  H9  UNL     1     -16.799   8.131 -38.188  0.00  0.00    +0.000 HD
ENDROOT
BRANCH   1  11
ATOM      7  C1  UNL     1     -14.081  11.586 -39.962  0.00  0.00    +0.000 C 
ATOM      8  O1  UNL     1     -12.750  12.117 -39.822  0.00  0.00    +0.000 OA
ATOM      9  C2  UNL     1     -11.840  11.015 -39.747  0.00  0.00    +0.000 C 
ATOM     10  C3  UNL     1     -12.640   9.855 -39.205  0.00  0.00    +0.000 C 
ATOM     11  C4  UNL     1     -13.980  10.062 -39.877  0.00  0.00    +0.000 C 
ENDBRANCH   1  11
BRANCH   4  12
ATOM     12  C6  UNL     1     -18.476   8.216 -39.442  0.00  0.00    +0.000 C 
BRANCH  12  13
ATOM     13  C7  UNL     1     -19.615   8.631 -38.559  0.00  0.00    +0.000 A 
ATOM     14  C8  UNL     1     -19.816  10.116 -38.474  0.00  0.00    +0.000 A 
ATOM     15  O3  UNL     1     -19.110  10.903 -39.097  0.00  0.00    +0.000 OA
ATOM     16  N3  UNL     1     -20.843  10.550 -37.669  0.00  0.00    +0.000 N 
ATOM     17  C9  UNL     1     -21.671   9.716 -36.964  0.00  0.00    +0.000 A 
ATOM     18  C10 UNL     1     -21.506   8.391 -37.038  0.00  0.00    +0.000 A 
ATOM     19  C11 UNL     1     -20.451   7.842 -37.858  0.00  0.00    +0.000 A 
ATOM     20  H12 UNL     1     -20.965  11.553 -37.614  0.00  0.00    +0.000 HD
ENDBRANCH  12  13
ENDBRANCH   4  12
TORSDOF 3
ENDMDL
MODEL 2
REMARK VINA RESULT:    -5.396      5.896     10.139
REMARK INTER + INTRA:          -6.621
REMARK INTER:                  -6.326
REMARK INTRA:                  -0.296
REMARK UNBOUND:                -0.279
REMARK  Name = /home/anacleto/Desktop/manuscript_Mpro/naturecomm/supplementary_file_S2/6-chemical-library/molecular_docking/3D_ligand_structure/589.pdb
REMARK  3 active torsions:
REMARK  status: ('A' for Active; 'I' for Inactive)
REMARK    1  A    between atoms: C4_5  and  N1_6
REMARK    2  A    between atoms: N2_9  and  C6_10
REMARK    3  A    between atoms: C6_10  and  C7_11
REMARK                            x       y       z     vdW  Elec       q    Type
REMARK                         _______ _______ _______ _____ _____    ______ ____
ROOT
ATOM      1  N1  UNL     1     -25.076   4.328 -38.130  0.00  0.00    +0.000 N 
ATOM      2  C5  UNL     1     -24.232   5.109 -38.881  0.00  0.00    +0.000 C 
ATOM      3  O2  UNL     1     -24.414   5.379 -40.058  0.00  0.00    +0.000 OA
ATOM      4  N2  UNL     1     -23.155   5.519 -38.137  0.00  0.00    +0.000 N 
ATOM      5  H8  UNL     1     -24.607   3.794 -37.413  0.00  0.00    +0.000 HD
ATOM      6  H9  UNL     1     -23.361   5.641 -37.157  0.00  0.00    +0.000 HD
ENDROOT
BRANCH   1  11
ATOM      7  C1  UNL     1     -26.696   2.416 -38.094  0.00  0.00    +0.000 C 
ATOM      8  O1  UNL     1     -28.135   2.407 -38.141  0.00  0.00    +0.000 OA
ATOM      9  C2  UNL     1     -28.561   3.558 -38.875  0.00  0.00    +0.000 C 
ATOM     10  C3  UNL     1     -27.457   4.577 -38.722  0.00  0.00    +0.000 C 
ATOM     11  C4  UNL     1     -26.222   3.705 -38.767  0.00  0.00    +0.000 C 
ENDBRANCH   1  11
BRANCH   4  12
ATOM     12  C6  UNL     1     -22.191   6.453 -38.694  0.00  0.00    +0.000 C 
BRANCH  12  13
ATOM     13  C7  UNL     1     -22.253   7.802 -38.044  0.00  0.00    +0.000 A 
ATOM     14  C8  UNL     1     -20.910   8.400 -37.740  0.00  0.00    +0.000 A 
ATOM     15  O3  UNL     1     -19.864   7.825 -38.025  0.00  0.00    +0.000 OA
ATOM     16  N3  UNL     1     -20.913   9.635 -37.133  0.00  0.00    +0.000 N 
ATOM     17  C9  UNL     1     -22.048  10.327 -36.808  0.00  0.00    +0.000 A 
ATOM     18  C10 UNL     1     -23.250   9.809 -37.080  0.00  0.00    +0.000 A 
ATOM     19  C11 UNL     1     -23.347   8.515 -37.716  0.00  0.00    +0.000 A 
ATOM     20  H12 UNL     1     -20.001  10.024 -36.927  0.00  0.00    +0.000 HD
ENDBRANCH  12  13
ENDBRANCH   4  12
TORSDOF 3
ENDMDL
MODEL 3
REMARK VINA RESULT:    -5.390      7.951     10.525
REMARK INTER + INTRA:          -6.614
REMARK INTER:                  -6.334
REMARK INTRA:                  -0.280
REMARK UNBOUND:                -0.279
REMARK  Name = /home/anacleto/Desktop/manuscript_Mpro/naturecomm/supplementary_file_S2/6-chemical-library/molecular_docking/3D_ligand_structure/589.pdb
REMARK  3 active torsions:
REMARK  status: ('A' for Active; 'I' for Inactive)
REMARK    1  A    between atoms: C4_5  and  N1_6
REMARK    2  A    between atoms: N2_9  and  C6_10
REMARK    3  A    between atoms: C6_10  and  C7_11
REMARK                            x       y       z     vdW  Elec       q    Type
REMARK                         _______ _______ _______ _____ _____    ______ ____
ROOT
ATOM      1  N1  UNL     1     -24.124   5.026 -37.883  0.00  0.00    +0.000 N 
ATOM      2  C5  UNL     1     -25.034   4.372 -38.678  0.00  0.00    +0.000 C 
ATOM      3  O2  UNL     1     -25.119   4.523 -39.887  0.00  0.00    +0.000 OA
ATOM      4  N2  UNL     1     -25.838   3.553 -37.929  0.00  0.00    +0.000 N 
ATOM      5  H8  UNL     1     -24.459   5.209 -36.948  0.00  0.00    +0.000 HD
ATOM      6  H9  UNL     1     -25.383   3.172 -37.113  0.00  0.00    +0.000 HD
ENDROOT
BRANCH   1  11
ATOM      7  C1  UNL     1     -23.744   7.463 -38.322  0.00  0.00    +0.000 C 
ATOM      8  O1  UNL     1     -22.593   8.291 -38.074  0.00  0.00    +0.000 OA
ATOM      9  C2  UNL     1     -21.428   7.464 -38.153  0.00  0.00    +0.000 C 
ATOM     10  C3  UNL     1     -21.890   6.067 -37.815  0.00  0.00    +0.000 C 
ATOM     11  C4  UNL     1     -23.251   6.023 -38.474  0.00  0.00    +0.000 C 
ENDBRANCH   1  11
BRANCH   4  12
ATOM     12  C6  UNL     1     -26.798   2.673 -38.576  0.00  0.00    +0.000 C 
BRANCH  12  13
ATOM     13  C7  UNL     1     -28.093   3.363 -38.887  0.00  0.00    +0.000 A 
ATOM     14  C8  UNL     1     -28.879   2.721 -39.992  0.00  0.00    +0.000 A 
ATOM     15  O3  UNL     1     -28.488   1.709 -40.565  0.00  0.00    +0.000 OA
ATOM     16  N3  UNL     1     -30.072   3.322 -40.323  0.00  0.00    +0.000 N 
ATOM     17  C9  UNL     1     -30.564   4.441 -39.707  0.00  0.00    +0.000 A 
ATOM     18  C10 UNL     1     -29.876   5.018 -38.716  0.00  0.00    +0.000 A 
ATOM     19  C11 UNL     1     -28.611   4.458 -38.300  0.00  0.00    +0.000 A 
ATOM     20  H12 UNL     1     -30.590   2.884 -41.074  0.00  0.00    +0.000 HD
ENDBRANCH  12  13
ENDBRANCH   4  12
TORSDOF 3
ENDMDL
MODEL 4
REMARK VINA RESULT:    -5.279     18.439     19.465
REMARK INTER + INTRA:          -6.483
REMARK INTER:                  -5.983
REMARK INTRA:                  -0.500
REMARK UNBOUND:                -0.279
REMARK  Name = /home/anacleto/Desktop/manuscript_Mpro/naturecomm/supplementary_file_S2/6-chemical-library/molecular_docking/3D_ligand_structure/589.pdb
REMARK  3 active torsions:
REMARK  status: ('A' for Active; 'I' for Inactive)
REMARK    1  A    between atoms: C4_5  and  N1_6
REMARK    2  A    between atoms: N2_9  and  C6_10
REMARK    3  A    between atoms: C6_10  and  C7_11
REMARK                            x       y       z     vdW  Elec       q    Type
REMARK                         _______ _______ _______ _____ _____    ______ ____
ROOT
ATOM      1  N1  UNL     1     -21.093  -4.734 -26.130  0.00  0.00    +0.000 N 
ATOM      2  C5  UNL     1     -21.878  -5.441 -27.008  0.00  0.00    +0.000 C 
ATOM      3  O2  UNL     1     -21.443  -6.230 -27.833  0.00  0.00    +0.000 OA
ATOM      4  N2  UNL     1     -23.202  -5.123 -26.845  0.00  0.00    +0.000 N 
ATOM      5  H8  UNL     1     -21.464  -3.825 -25.893  0.00  0.00    +0.000 HD
ATOM      6  H9  UNL     1     -23.446  -4.875 -25.898  0.00  0.00    +0.000 HD
ENDROOT
BRANCH   1  11
ATOM      7  C1  UNL     1     -19.000  -3.900 -27.226  0.00  0.00    +0.000 C 
ATOM      8  O1  UNL     1     -17.762  -3.438 -26.653  0.00  0.00    +0.000 OA
ATOM      9  C2  UNL     1     -17.575  -4.112 -25.405  0.00  0.00    +0.000 C 
ATOM     10  C3  UNL     1     -18.957  -4.480 -24.923  0.00  0.00    +0.000 C 
ATOM     11  C4  UNL     1     -19.649  -4.849 -26.218  0.00  0.00    +0.000 C 
ENDBRANCH   1  11
BRANCH   4  12
ATOM     12  C6  UNL     1     -24.226  -5.838 -27.588  0.00  0.00    +0.000 C 
BRANCH  12  13
ATOM     13  C7  UNL     1     -25.505  -5.064 -27.698  0.00  0.00    +0.000 A 
ATOM     14  C8  UNL     1     -25.383  -3.781 -28.466  0.00  0.00    +0.000 A 
ATOM     15  O3  UNL     1     -24.322  -3.424 -28.970  0.00  0.00    +0.000 OA
ATOM     16  N3  UNL     1     -26.528  -3.027 -28.587  0.00  0.00    +0.000 N 
ATOM     17  C9  UNL     1     -27.740  -3.384 -28.060  0.00  0.00    +0.000 A 
ATOM     18  C10 UNL     1     -27.864  -4.528 -27.379  0.00  0.00    +0.000 A 
ATOM     19  C11 UNL     1     -26.714  -5.385 -27.199  0.00  0.00    +0.000 A 
ATOM     20  H12 UNL     1     -26.430  -2.161 -29.102  0.00  0.00    +0.000 HD
ENDBRANCH  12  13
ENDBRANCH   4  12
TORSDOF 3
ENDMDL
MODEL 5
REMARK VINA RESULT:    -5.224     18.353     20.218
REMARK INTER + INTRA:          -6.419
REMARK INTER:                  -5.878
REMARK INTRA:                  -0.540
REMARK UNBOUND:                -0.279
REMARK  Name = /home/anacleto/Desktop/manuscript_Mpro/naturecomm/supplementary_file_S2/6-chemical-library/molecular_docking/3D_ligand_structure/589.pdb
REMARK  3 active torsions:
REMARK  status: ('A' for Active; 'I' for Inactive)
REMARK    1  A    between atoms: C4_5  and  N1_6
REMARK    2  A    between atoms: N2_9  and  C6_10
REMARK    3  A    between atoms: C6_10  and  C7_11
REMARK                            x       y       z     vdW  Elec       q    Type
REMARK                         _______ _______ _______ _____ _____    ______ ____
ROOT
ATOM      1  N1  UNL     1     -23.423  -4.846 -27.771  0.00  0.00    +0.000 N 
ATOM      2  C5  UNL     1     -22.217  -4.271 -28.090  0.00  0.00    +0.000 C 
ATOM      3  O2  UNL     1     -22.016  -3.066 -28.105  0.00  0.00    +0.000 OA
ATOM      4  N2  UNL     1     -21.288  -5.228 -28.408  0.00  0.00    +0.000 N 
ATOM      5  H8  UNL     1     -23.601  -5.714 -28.255  0.00  0.00    +0.000 HD
ATOM      6  H9  UNL     1     -21.418  -6.099 -27.916  0.00  0.00    +0.000 HD
ENDROOT
BRANCH   1  11
ATOM      7  C1  UNL     1     -25.348  -3.582 -28.759  0.00  0.00    +0.000 C 
ATOM      8  O1  UNL     1     -26.747  -3.592 -28.420  0.00  0.00    +0.000 OA
ATOM      9  C2  UNL     1     -26.863  -3.895 -27.027  0.00  0.00    +0.000 C 
ATOM     10  C3  UNL     1     -25.625  -4.683 -26.672  0.00  0.00    +0.000 C 
ATOM     11  C4  UNL     1     -24.569  -3.995 -27.509  0.00  0.00    +0.000 C 
ENDBRANCH   1  11
BRANCH   4  12
ATOM     12  C6  UNL     1     -19.907  -4.854 -28.665  0.00  0.00    +0.000 C 
BRANCH  12  13
ATOM     13  C7  UNL     1     -19.049  -4.941 -27.439  0.00  0.00    +0.000 A 
ATOM     14  C8  UNL     1     -18.630  -6.337 -27.080  0.00  0.00    +0.000 A 
ATOM     15  O3  UNL     1     -18.958  -7.307 -27.756  0.00  0.00    +0.000 OA
ATOM     16  N3  UNL     1     -17.849  -6.472 -25.956  0.00  0.00    +0.000 N 
ATOM     17  C9  UNL     1     -17.442  -5.424 -25.174  0.00  0.00    +0.000 A 
ATOM     18  C10 UNL     1     -17.802  -4.175 -25.487  0.00  0.00    +0.000 A 
ATOM     19  C11 UNL     1     -18.624  -3.935 -26.651  0.00  0.00    +0.000 A 
ATOM     20  H12 UNL     1     -17.579  -7.418 -25.720  0.00  0.00    +0.000 HD
ENDBRANCH  12  13
ENDBRANCH   4  12
TORSDOF 3
ENDMDL
MODEL 6
REMARK VINA RESULT:    -5.222      5.489      9.714
REMARK INTER + INTRA:          -6.417
REMARK INTER:                  -6.143
REMARK INTRA:                  -0.274
REMARK UNBOUND:                -0.279
REMARK  Name = /home/anacleto/Desktop/manuscript_Mpro/naturecomm/supplementary_file_S2/6-chemical-library/molecular_docking/3D_ligand_structure/589.pdb
REMARK  3 active torsions:
REMARK  status: ('A' for Active; 'I' for Inactive)
REMARK    1  A    between atoms: C4_5  and  N1_6
REMARK    2  A    between atoms: N2_9  and  C6_10
REMARK    3  A    between atoms: C6_10  and  C7_11
REMARK                            x       y       z     vdW  Elec       q    Type
REMARK                         _______ _______ _______ _____ _____    ______ ____
ROOT
ATOM      1  N1  UNL     1     -24.535   4.633 -38.344  0.00  0.00    +0.000 N 
ATOM      2  C5  UNL     1     -24.294   5.984 -38.385  0.00  0.00    +0.000 C 
ATOM      3  O2  UNL     1     -25.131   6.820 -38.691  0.00  0.00    +0.000 OA
ATOM      4  N2  UNL     1     -22.991   6.259 -38.061  0.00  0.00    +0.000 N 
ATOM      5  H8  UNL     1     -23.730   4.069 -38.576  0.00  0.00    +0.000 HD
ATOM      6  H9  UNL     1     -22.589   5.605 -37.406  0.00  0.00    +0.000 HD
ENDROOT
BRANCH   1  11
ATOM      7  C1  UNL     1     -25.880   3.641 -40.211  0.00  0.00    +0.000 C 
ATOM      8  O1  UNL     1     -26.713   2.466 -40.244  0.00  0.00    +0.000 OA
ATOM      9  C2  UNL     1     -27.241   2.262 -38.930  0.00  0.00    +0.000 C 
ATOM     10  C3  UNL     1     -26.254   2.902 -37.984  0.00  0.00    +0.000 C 
ATOM     11  C4  UNL     1     -25.830   4.129 -38.762  0.00  0.00    +0.000 C 
ENDBRANCH   1  11
BRANCH   4  12
ATOM     12  C6  UNL     1     -22.542   7.635 -37.926  0.00  0.00    +0.000 C 
BRANCH  12  13
ATOM     13  C7  UNL     1     -21.104   7.813 -38.313  0.00  0.00    +0.000 A 
ATOM     14  C8  UNL     1     -20.478   9.072 -37.789  0.00  0.00    +0.000 A 
ATOM     15  O3  UNL     1     -21.101   9.864 -37.089  0.00  0.00    +0.000 OA
ATOM     16  N3  UNL     1     -19.162   9.288 -38.126  0.00  0.00    +0.000 N 
ATOM     17  C9  UNL     1     -18.415   8.431 -38.890  0.00  0.00    +0.000 A 
ATOM     18  C10 UNL     1     -18.959   7.303 -39.357  0.00  0.00    +0.000 A 
ATOM     19  C11 UNL     1     -20.338   6.991 -39.056  0.00  0.00    +0.000 A 
ATOM     20  H12 UNL     1     -18.753  10.143 -37.772  0.00  0.00    +0.000 HD
ENDBRANCH  12  13
ENDBRANCH   4  12
TORSDOF 3
ENDMDL
MODEL 7
REMARK VINA RESULT:    -5.072      1.828      2.298
REMARK INTER + INTRA:          -6.240
REMARK INTER:                  -5.922
REMARK INTRA:                  -0.318
REMARK UNBOUND:                -0.279
REMARK  Name = /home/anacleto/Desktop/manuscript_Mpro/naturecomm/supplementary_file_S2/6-chemical-library/molecular_docking/3D_ligand_structure/589.pdb
REMARK  3 active torsions:
REMARK  status: ('A' for Active; 'I' for Inactive)
REMARK    1  A    between atoms: C4_5  and  N1_6
REMARK    2  A    between atoms: N2_9  and  C6_10
REMARK    3  A    between atoms: C6_10  and  C7_11
REMARK                            x       y       z     vdW  Elec       q    Type
REMARK                         _______ _______ _______ _____ _____    ______ ____
ROOT
ATOM      1  N1  UNL     1     -15.700   9.323 -39.168  0.00  0.00    +0.000 N 
ATOM      2  C5  UNL     1     -16.944   9.889 -39.307  0.00  0.00    +0.000 C 
ATOM      3  O2  UNL     1     -17.249  10.660 -40.204  0.00  0.00    +0.000 OA
ATOM      4  N2  UNL     1     -17.779   9.487 -38.296  0.00  0.00    +0.000 N 
ATOM      5  H8  UNL     1     -15.436   9.149 -38.208  0.00  0.00    +0.000 HD
ATOM      6  H9  UNL     1     -17.585   8.559 -37.954  0.00  0.00    +0.000 HD
ENDROOT
BRANCH   1  11
ATOM      7  C1  UNL     1     -13.256   9.810 -39.432  0.00  0.00    +0.000 C 
ATOM      8  O1  UNL     1     -12.297   9.301 -40.377  0.00  0.00    +0.000 OA
ATOM      9  C2  UNL     1     -12.993   8.982 -41.585  0.00  0.00    +0.000 C 
ATOM     10  C3  UNL     1     -14.417   8.691 -41.176  0.00  0.00    +0.000 C 
ATOM     11  C4  UNL     1     -14.638   9.709 -40.079  0.00  0.00    +0.000 C 
ENDBRANCH   1  11
BRANCH   4  12
ATOM     12  C6  UNL     1     -19.181   9.870 -38.307  0.00  0.00    +0.000 C 
BRANCH  12  13
ATOM     13  C7  UNL     1     -20.101   8.687 -38.383  0.00  0.00    +0.000 A 
ATOM     14  C8  UNL     1     -21.318   8.799 -37.513  0.00  0.00    +0.000 A 
ATOM     15  O3  UNL     1     -21.533   9.790 -36.822  0.00  0.00    +0.000 OA
ATOM     16  N3  UNL     1     -22.190   7.735 -37.539  0.00  0.00    +0.000 N 
ATOM     17  C9  UNL     1     -22.007   6.613 -38.302  0.00  0.00    +0.000 A 
ATOM     18  C10 UNL     1     -20.931   6.504 -39.087  0.00  0.00    +0.000 A 
ATOM     19  C11 UNL     1     -19.958   7.572 -39.125  0.00  0.00    +0.000 A 
ATOM     20  H12 UNL     1     -23.003   7.820 -36.943  0.00  0.00    +0.000 HD
ENDBRANCH  12  13
ENDBRANCH   4  12
TORSDOF 3
ENDMDL
MODEL 8
REMARK VINA RESULT:    -4.874     19.175     20.228
REMARK INTER + INTRA:          -6.008
REMARK INTER:                  -5.729
REMARK INTRA:                  -0.279
REMARK UNBOUND:                -0.279
REMARK  Name = /home/anacleto/Desktop/manuscript_Mpro/naturecomm/supplementary_file_S2/6-chemical-library/molecular_docking/3D_ligand_structure/589.pdb
REMARK  3 active torsions:
REMARK  status: ('A' for Active; 'I' for Inactive)
REMARK    1  A    between atoms: C4_5  and  N1_6
REMARK    2  A    between atoms: N2_9  and  C6_10
REMARK    3  A    between atoms: C6_10  and  C7_11
REMARK                            x       y       z     vdW  Elec       q    Type
REMARK                         _______ _______ _______ _____ _____    ______ ____
ROOT
ATOM      1  N1  UNL     1     -22.036  -4.945 -26.960  0.00  0.00    +0.000 N 
ATOM      2  C5  UNL     1     -23.087  -4.469 -27.705  0.00  0.00    +0.000 C 
ATOM      3  O2  UNL     1     -23.037  -4.266 -28.909  0.00  0.00    +0.000 OA
ATOM      4  N2  UNL     1     -24.181  -4.234 -26.913  0.00  0.00    +0.000 N 
ATOM      5  H8  UNL     1     -22.024  -4.604 -26.009  0.00  0.00    +0.000 HD
ATOM      6  H9  UNL     1     -24.250  -4.854 -26.121  0.00  0.00    +0.000 HD
ENDROOT
BRANCH   1  11
ATOM      7  C1  UNL     1     -19.547  -4.771 -26.734  0.00  0.00    +0.000 C 
ATOM      8  O1  UNL     1     -18.515  -5.746 -26.973  0.00  0.00    +0.000 OA
ATOM      9  C2  UNL     1     -18.978  -6.640 -27.990  0.00  0.00    +0.000 C 
ATOM     10  C3  UNL     1     -20.485  -6.610 -27.910  0.00  0.00    +0.000 C 
ATOM     11  C4  UNL     1     -20.750  -5.153 -27.598  0.00  0.00    +0.000 C 
ENDBRANCH   1  11
BRANCH   4  12
ATOM     12  C6  UNL     1     -25.447  -3.837 -27.508  0.00  0.00    +0.000 C 
BRANCH  12  13
ATOM     13  C7  UNL     1     -26.617  -4.559 -26.909  0.00  0.00    +0.000 A 
ATOM     14  C8  UNL     1     -27.926  -4.272 -27.582  0.00  0.00    +0.000 A 
ATOM     15  O3  UNL     1     -28.007  -3.523 -28.551  0.00  0.00    +0.000 OA
ATOM     16  N3  UNL     1     -29.034  -4.902 -27.064  0.00  0.00    +0.000 N 
ATOM     17  C9  UNL     1     -28.999  -5.759 -25.996  0.00  0.00    +0.000 A 
ATOM     18  C10 UNL     1     -27.837  -6.029 -25.391  0.00  0.00    +0.000 A 
ATOM     19  C11 UNL     1     -26.620  -5.411 -25.866  0.00  0.00    +0.000 A 
ATOM     20  H12 UNL     1     -29.911  -4.695 -27.523  0.00  0.00    +0.000 HD
ENDBRANCH  12  13
ENDBRANCH   4  12
TORSDOF 3
ENDMDL
MODEL 9
REMARK VINA RESULT:    -4.819     21.057     23.778
REMARK INTER + INTRA:          -5.943
REMARK INTER:                  -5.442
REMARK INTRA:                  -0.500
REMARK UNBOUND:                -0.279
REMARK  Name = /home/anacleto/Desktop/manuscript_Mpro/naturecomm/supplementary_file_S2/6-chemical-library/molecular_docking/3D_ligand_structure/589.pdb
REMARK  3 active torsions:
REMARK  status: ('A' for Active; 'I' for Inactive)
REMARK    1  A    between atoms: C4_5  and  N1_6
REMARK    2  A    between atoms: N2_9  and  C6_10
REMARK    3  A    between atoms: C6_10  and  C7_11
REMARK                            x       y       z     vdW  Elec       q    Type
REMARK                         _______ _______ _______ _____ _____    ______ ____
ROOT
ATOM      1  N1  UNL     1     -25.521  -5.170 -21.793  0.00  0.00    +0.000 N 
ATOM      2  C5  UNL     1     -25.373  -5.945 -22.918  0.00  0.00    +0.000 C 
ATOM      3  O2  UNL     1     -25.175  -7.150 -22.897  0.00  0.00    +0.000 OA
ATOM      4  N2  UNL     1     -25.454  -5.180 -24.053  0.00  0.00    +0.000 N 
ATOM      5  H8  UNL     1     -25.182  -4.224 -21.903  0.00  0.00    +0.000 HD
ATOM      6  H9  UNL     1     -26.061  -4.379 -23.961  0.00  0.00    +0.000 HD
ENDROOT
BRANCH   1  11
ATOM      7  C1  UNL     1     -24.210  -5.195 -19.658  0.00  0.00    +0.000 C 
ATOM      8  O1  UNL     1     -24.650  -5.136 -18.288  0.00  0.00    +0.000 OA
ATOM      9  C2  UNL     1     -25.952  -5.726 -18.217  0.00  0.00    +0.000 C 
ATOM     10  C3  UNL     1     -26.556  -5.558 -19.590  0.00  0.00    +0.000 C 
ATOM     11  C4  UNL     1     -25.357  -5.777 -20.486  0.00  0.00    +0.000 C 
ENDBRANCH   1  11
BRANCH   4  12
ATOM     12  C6  UNL     1     -25.443  -5.808 -25.364  0.00  0.00    +0.000 C 
BRANCH  12  13
ATOM     13  C7  UNL     1     -26.175  -5.002 -26.395  0.00  0.00    +0.000 A 
ATOM     14  C8  UNL     1     -27.668  -5.140 -26.336  0.00  0.00    +0.000 A 
ATOM     15  O3  UNL     1     -28.222  -5.841 -25.496  0.00  0.00    +0.000 OA
ATOM     16  N3  UNL     1     -28.386  -4.428 -27.269  0.00  0.00    +0.000 N 
ATOM     17  C9  UNL     1     -27.821  -3.619 -28.218  0.00  0.00    +0.000 A 
ATOM     18  C10 UNL     1     -26.492  -3.481 -28.276  0.00  0.00    +0.000 A 
ATOM     19  C11 UNL     1     -25.655  -4.192 -27.338  0.00  0.00    +0.000 A 
ATOM     20  H12 UNL     1     -29.391  -4.534 -27.223  0.00  0.00    +0.000 HD
ENDBRANCH  12  13
ENDBRANCH   4  12
TORSDOF 3
ENDMDL
