MODEL 1
REMARK VINA RESULT:    -3.536      0.000      0.000
REMARK INTER + INTRA:          -3.536
REMARK INTER:                  -3.536
REMARK INTRA:                   0.000
REMARK UNBOUND:                 0.000
REMARK  Name = /home/anacleto/Desktop/manuscript_Mpro/naturecomm/supplementary_file_S2/6-chemical-library/molecular_docking/3D_ligand_structure/289.pdb
REMARK  0 active torsions:
REMARK  status: ('A' for Active; 'I' for Inactive)
REMARK                            x       y       z     vdW  Elec       q    Type
REMARK                         _______ _______ _______ _____ _____    ______ ____
ROOT
ATOM      1  N1  UNL     1      16.981  11.445  -4.511  0.00  0.00    +0.000 NA
ATOM      2  C1  UNL     1      16.461  11.149  -3.280  0.00  0.00    +0.000 A 
ATOM      3  N2  UNL     1      15.160  10.844  -3.264  0.00  0.00    +0.000 NA
ATOM      4  N3  UNL     1      14.858  10.949  -4.566  0.00  0.00    +0.000 N 
ATOM      5  C2  UNL     1      15.944  11.318  -5.308  0.00  0.00    +0.000 A 
ATOM      6  C3  UNL     1      13.513  10.773  -5.064  0.00  0.00    +0.000 C 
ATOM      7  C4  UNL     1      13.487  10.645  -6.590  0.00  0.00    +0.000 C 
ATOM      8  C5  UNL     1      14.416  11.672  -7.248  0.00  0.00    +0.000 C 
ATOM      9  C6  UNL     1      15.865  11.488  -6.782  0.00  0.00    +0.000 C 
ENDROOT
TORSDOF 0
ENDMDL
MODEL 2
REMARK VINA RESULT:    -3.475     15.788     16.977
REMARK INTER + INTRA:          -3.475
REMARK INTER:                  -3.475
REMARK INTRA:                   0.000
REMARK UNBOUND:                 0.000
REMARK  Name = /home/anacleto/Desktop/manuscript_Mpro/naturecomm/supplementary_file_S2/6-chemical-library/molecular_docking/3D_ligand_structure/289.pdb
REMARK  0 active torsions:
REMARK  status: ('A' for Active; 'I' for Inactive)
REMARK                            x       y       z     vdW  Elec       q    Type
REMARK                         _______ _______ _______ _____ _____    ______ ____
ROOT
ATOM      1  N1  UNL     1      19.013   7.479  11.513  0.00  0.00    +0.000 NA
ATOM      2  C1  UNL     1      19.652   6.770  12.493  0.00  0.00    +0.000 A 
ATOM      3  N2  UNL     1      20.439   5.779  12.065  0.00  0.00    +0.000 NA
ATOM      4  N3  UNL     1      20.285   5.886  10.738  0.00  0.00    +0.000 N 
ATOM      5  C2  UNL     1      19.425   6.895  10.410  0.00  0.00    +0.000 A 
ATOM      6  C3  UNL     1      20.902   4.965   9.810  0.00  0.00    +0.000 C 
ATOM      7  C4  UNL     1      20.823   5.476   8.369  0.00  0.00    +0.000 C 
ATOM      8  C5  UNL     1      19.436   6.053   8.062  0.00  0.00    +0.000 C 
ATOM      9  C6  UNL     1      19.102   7.221   8.996  0.00  0.00    +0.000 C 
ENDROOT
TORSDOF 0
ENDMDL
MODEL 3
REMARK VINA RESULT:    -3.451      0.654      2.027
REMARK INTER + INTRA:          -3.451
REMARK INTER:                  -3.451
REMARK INTRA:                   0.000
REMARK UNBOUND:                 0.000
REMARK  Name = /home/anacleto/Desktop/manuscript_Mpro/naturecomm/supplementary_file_S2/6-chemical-library/molecular_docking/3D_ligand_structure/289.pdb
REMARK  0 active torsions:
REMARK  status: ('A' for Active; 'I' for Inactive)
REMARK                            x       y       z     vdW  Elec       q    Type
REMARK                         _______ _______ _______ _____ _____    ______ ____
ROOT
ATOM      1  N1  UNL     1      15.294  10.928  -3.253  0.00  0.00    +0.000 NA
ATOM      2  C1  UNL     1      16.633  11.197  -3.348  0.00  0.00    +0.000 A 
ATOM      3  N2  UNL     1      17.078  11.469  -4.578  0.00  0.00    +0.000 NA
ATOM      4  N3  UNL     1      15.945  11.369  -5.287  0.00  0.00    +0.000 N 
ATOM      5  C2  UNL     1      14.882  11.037  -4.496  0.00  0.00    +0.000 A 
ATOM      6  C3  UNL     1      15.917  11.516  -6.725  0.00  0.00    +0.000 C 
ATOM      7  C4  UNL     1      14.486  11.661  -7.250  0.00  0.00    +0.000 C 
ATOM      8  C5  UNL     1      13.542  10.665  -6.567  0.00  0.00    +0.000 C 
ATOM      9  C6  UNL     1      13.512  10.881  -5.049  0.00  0.00    +0.000 C 
ENDROOT
TORSDOF 0
ENDMDL
MODEL 4
REMARK VINA RESULT:    -3.351     16.190     17.212
REMARK INTER + INTRA:          -3.351
REMARK INTER:                  -3.351
REMARK INTRA:                   0.000
REMARK UNBOUND:                 0.000
REMARK  Name = /home/anacleto/Desktop/manuscript_Mpro/naturecomm/supplementary_file_S2/6-chemical-library/molecular_docking/3D_ligand_structure/289.pdb
REMARK  0 active torsions:
REMARK  status: ('A' for Active; 'I' for Inactive)
REMARK                            x       y       z     vdW  Elec       q    Type
REMARK                         _______ _______ _______ _____ _____    ______ ____
ROOT
ATOM      1  N1  UNL     1      15.010   3.434  11.145  0.00  0.00    +0.000 NA
ATOM      2  C1  UNL     1      13.856   2.783  11.488  0.00  0.00    +0.000 A 
ATOM      3  N2  UNL     1      13.417   1.886  10.600  0.00  0.00    +0.000 NA
ATOM      4  N3  UNL     1      14.362   1.981   9.653  0.00  0.00    +0.000 N 
ATOM      5  C2  UNL     1      15.307   2.913   9.975  0.00  0.00    +0.000 A 
ATOM      6  C3  UNL     1      14.297   1.233   8.418  0.00  0.00    +0.000 C 
ATOM      7  C4  UNL     1      15.623   1.285   7.655  0.00  0.00    +0.000 C 
ATOM      8  C5  UNL     1      16.209   2.702   7.659  0.00  0.00    +0.000 C 
ATOM      9  C6  UNL     1      16.466   3.192   9.089  0.00  0.00    +0.000 C 
ENDROOT
TORSDOF 0
ENDMDL
MODEL 5
REMARK VINA RESULT:    -3.340      1.382      3.036
REMARK INTER + INTRA:          -3.340
REMARK INTER:                  -3.340
REMARK INTRA:                   0.000
REMARK UNBOUND:                 0.000
REMARK  Name = /home/anacleto/Desktop/manuscript_Mpro/naturecomm/supplementary_file_S2/6-chemical-library/molecular_docking/3D_ligand_structure/289.pdb
REMARK  0 active torsions:
REMARK  status: ('A' for Active; 'I' for Inactive)
REMARK                            x       y       z     vdW  Elec       q    Type
REMARK                         _______ _______ _______ _____ _____    ______ ____
ROOT
ATOM      1  N1  UNL     1      14.222  11.240  -7.250  0.00  0.00    +0.000 NA
ATOM      2  C1  UNL     1      13.126  10.907  -6.501  0.00  0.00    +0.000 A 
ATOM      3  N2  UNL     1      13.344  10.779  -5.189  0.00  0.00    +0.000 NA
ATOM      4  N3  UNL     1      14.653  11.058  -5.120  0.00  0.00    +0.000 N 
ATOM      5  C2  UNL     1      15.179  11.323  -6.352  0.00  0.00    +0.000 A 
ATOM      6  C3  UNL     1      15.395  10.985  -3.881  0.00  0.00    +0.000 C 
ATOM      7  C4  UNL     1      16.776  11.635  -4.011  0.00  0.00    +0.000 C 
ATOM      8  C5  UNL     1      17.452  11.240  -5.329  0.00  0.00    +0.000 C 
ATOM      9  C6  UNL     1      16.611  11.673  -6.535  0.00  0.00    +0.000 C 
ENDROOT
TORSDOF 0
ENDMDL
MODEL 6
REMARK VINA RESULT:    -3.331     15.555     17.009
REMARK INTER + INTRA:          -3.331
REMARK INTER:                  -3.331
REMARK INTRA:                   0.000
REMARK UNBOUND:                 0.000
REMARK  Name = /home/anacleto/Desktop/manuscript_Mpro/naturecomm/supplementary_file_S2/6-chemical-library/molecular_docking/3D_ligand_structure/289.pdb
REMARK  0 active torsions:
REMARK  status: ('A' for Active; 'I' for Inactive)
REMARK                            x       y       z     vdW  Elec       q    Type
REMARK                         _______ _______ _______ _____ _____    ______ ____
ROOT
ATOM      1  N1  UNL     1      20.381   5.662  12.102  0.00  0.00    +0.000 NA
ATOM      2  C1  UNL     1      19.669   6.748  12.533  0.00  0.00    +0.000 A 
ATOM      3  N2  UNL     1      19.092   7.474  11.571  0.00  0.00    +0.000 NA
ATOM      4  N3  UNL     1      19.463   6.792  10.478  0.00  0.00    +0.000 N 
ATOM      5  C2  UNL     1      20.241   5.715  10.796  0.00  0.00    +0.000 A 
ATOM      6  C3  UNL     1      19.131   7.231   9.142  0.00  0.00    +0.000 C 
ATOM      7  C4  UNL     1      19.400   6.138   8.104  0.00  0.00    +0.000 C 
ATOM      8  C5  UNL     1      20.741   5.443   8.368  0.00  0.00    +0.000 C 
ATOM      9  C6  UNL     1      20.766   4.794   9.756  0.00  0.00    +0.000 C 
ENDROOT
TORSDOF 0
ENDMDL
MODEL 7
REMARK VINA RESULT:    -3.201     16.427     17.510
REMARK INTER + INTRA:          -3.201
REMARK INTER:                  -3.201
REMARK INTRA:                   0.000
REMARK UNBOUND:                 0.000
REMARK  Name = /home/anacleto/Desktop/manuscript_Mpro/naturecomm/supplementary_file_S2/6-chemical-library/molecular_docking/3D_ligand_structure/289.pdb
REMARK  0 active torsions:
REMARK  status: ('A' for Active; 'I' for Inactive)
REMARK                            x       y       z     vdW  Elec       q    Type
REMARK                         _______ _______ _______ _____ _____    ______ ____
ROOT
ATOM      1  N1  UNL     1      13.125  -0.770   8.792  0.00  0.00    +0.000 NA
ATOM      2  C1  UNL     1      12.435   0.152   9.532  0.00  0.00    +0.000 A 
ATOM      3  N2  UNL     1      13.005   1.358   9.623  0.00  0.00    +0.000 NA
ATOM      4  N3  UNL     1      14.111   1.174   8.889  0.00  0.00    +0.000 N 
ATOM      5  C2  UNL     1      14.186  -0.100   8.401  0.00  0.00    +0.000 A 
ATOM      6  C3  UNL     1      15.117   2.200   8.735  0.00  0.00    +0.000 C 
ATOM      7  C4  UNL     1      16.109   1.856   7.621  0.00  0.00    +0.000 C 
ATOM      8  C5  UNL     1      16.528   0.383   7.688  0.00  0.00    +0.000 C 
ATOM      9  C6  UNL     1      15.316  -0.545   7.545  0.00  0.00    +0.000 C 
ENDROOT
TORSDOF 0
ENDMDL
MODEL 8
REMARK VINA RESULT:    -3.120      1.800      2.437
REMARK INTER + INTRA:          -3.120
REMARK INTER:                  -3.120
REMARK INTRA:                   0.000
REMARK UNBOUND:                 0.000
REMARK  Name = /home/anacleto/Desktop/manuscript_Mpro/naturecomm/supplementary_file_S2/6-chemical-library/molecular_docking/3D_ligand_structure/289.pdb
REMARK  0 active torsions:
REMARK  status: ('A' for Active; 'I' for Inactive)
REMARK                            x       y       z     vdW  Elec       q    Type
REMARK                         _______ _______ _______ _____ _____    ______ ____
ROOT
ATOM      1  N1  UNL     1      16.189  13.178  -7.189  0.00  0.00    +0.000 NA
ATOM      2  C1  UNL     1      16.772  13.780  -6.107  0.00  0.00    +0.000 A 
ATOM      3  N2  UNL     1      16.308  13.394  -4.915  0.00  0.00    +0.000 NA
ATOM      4  N3  UNL     1      15.387  12.491  -5.280  0.00  0.00    +0.000 N 
ATOM      5  C2  UNL     1      15.310  12.370  -6.638  0.00  0.00    +0.000 A 
ATOM      6  C3  UNL     1      14.540  11.819  -4.321  0.00  0.00    +0.000 C 
ATOM      7  C4  UNL     1      13.801  10.636  -4.951  0.00  0.00    +0.000 C 
ATOM      8  C5  UNL     1      13.246  11.002  -6.333  0.00  0.00    +0.000 C 
ATOM      9  C6  UNL     1      14.370  11.420  -7.288  0.00  0.00    +0.000 C 
ENDROOT
TORSDOF 0
ENDMDL
MODEL 9
REMARK VINA RESULT:    -3.100     18.480     19.766
REMARK INTER + INTRA:          -3.100
REMARK INTER:                  -3.100
REMARK INTRA:                   0.000
REMARK UNBOUND:                 0.000
REMARK  Name = /home/anacleto/Desktop/manuscript_Mpro/naturecomm/supplementary_file_S2/6-chemical-library/molecular_docking/3D_ligand_structure/289.pdb
REMARK  0 active torsions:
REMARK  status: ('A' for Active; 'I' for Inactive)
REMARK                            x       y       z     vdW  Elec       q    Type
REMARK                         _______ _______ _______ _____ _____    ______ ____
ROOT
ATOM      1  N1  UNL     1      24.727  17.006   9.576  0.00  0.00    +0.000 NA
ATOM      2  C1  UNL     1      26.023  17.215   9.962  0.00  0.00    +0.000 A 
ATOM      3  N2  UNL     1      26.348  16.735  11.165  0.00  0.00    +0.000 NA
ATOM      4  N3  UNL     1      25.185  16.187  11.544  0.00  0.00    +0.000 N 
ATOM      5  C2  UNL     1      24.215  16.358  10.599  0.00  0.00    +0.000 A 
ATOM      6  C3  UNL     1      25.003  15.580  12.844  0.00  0.00    +0.000 C 
ATOM      7  C4  UNL     1      23.704  14.773  12.913  0.00  0.00    +0.000 C 
ATOM      8  C5  UNL     1      22.545  15.531  12.257  0.00  0.00    +0.000 C 
ATOM      9  C6  UNL     1      22.840  15.827  10.782  0.00  0.00    +0.000 C 
ENDROOT
TORSDOF 0
ENDMDL
