MODEL 1
REMARK VINA RESULT:    -5.116      0.000      0.000
REMARK INTER + INTRA:          -5.987
REMARK INTER:                  -5.718
REMARK INTRA:                  -0.269
REMARK UNBOUND:                -0.273
REMARK  Name = /home/anacleto/Desktop/manuscript_Mpro/naturecomm/supplementary_file_S2/6-chemical-library/molecular_docking/3D_ligand_structure/980.pdb
REMARK  2 active torsions:
REMARK  status: ('A' for Active; 'I' for Inactive)
REMARK    1  A    between atoms: C3_5  and  C4_6
REMARK    2  A    between atoms: N3_8  and  C5_9
REMARK                            x       y       z     vdW  Elec       q    Type
REMARK                         _______ _______ _______ _____ _____    ______ ____
ROOT
ATOM      1  C4  UNL     1      17.421   3.850   9.506  0.00  0.00    +0.000 C 
ATOM      2  O1  UNL     1      17.597   3.948  10.716  0.00  0.00    +0.000 OA
ATOM      3  N3  UNL     1      18.095   4.568   8.535  0.00  0.00    +0.000 N 
ATOM      4  H4  UNL     1      17.849   4.387   7.573  0.00  0.00    +0.000 HD
ENDROOT
BRANCH   1   9
ATOM      5  C1  UNL     1      16.444   2.373   7.709  0.00  0.00    +0.000 A 
ATOM      6  N1  UNL     1      15.362   1.554   7.610  0.00  0.00    +0.000 N 
ATOM      7  N2  UNL     1      14.628   1.512   8.733  0.00  0.00    +0.000 NA
ATOM      8  C2  UNL     1      15.275   2.335   9.562  0.00  0.00    +0.000 A 
ATOM      9  C3  UNL     1      16.429   2.913   8.983  0.00  0.00    +0.000 A 
ATOM     10  H2  UNL     1      15.064   0.997   6.816  0.00  0.00    +0.000 HD
ENDBRANCH   1   9
BRANCH   3  11
ATOM     11  C5  UNL     1      19.102   5.540   8.722  0.00  0.00    +0.000 A 
ATOM     12  C6  UNL     1      18.874   6.918   8.730  0.00  0.00    +0.000 A 
ATOM     13  C7  UNL     1      19.934   7.811   8.922  0.00  0.00    +0.000 A 
ATOM     14  C8  UNL     1      21.229   7.336   9.107  0.00  0.00    +0.000 A 
ATOM     15  C9  UNL     1      21.469   5.965   9.100  0.00  0.00    +0.000 A 
ATOM     16  C10 UNL     1      20.411   5.072   8.909  0.00  0.00    +0.000 A 
ENDBRANCH   3  11
TORSDOF 2
ENDMDL
MODEL 2
REMARK VINA RESULT:    -4.972     16.241     17.111
REMARK INTER + INTRA:          -5.826
REMARK INTER:                  -5.575
REMARK INTRA:                  -0.251
REMARK UNBOUND:                -0.273
REMARK  Name = /home/anacleto/Desktop/manuscript_Mpro/naturecomm/supplementary_file_S2/6-chemical-library/molecular_docking/3D_ligand_structure/980.pdb
REMARK  2 active torsions:
REMARK  status: ('A' for Active; 'I' for Inactive)
REMARK    1  A    between atoms: C3_5  and  C4_6
REMARK    2  A    between atoms: N3_8  and  C5_9
REMARK                            x       y       z     vdW  Elec       q    Type
REMARK                         _______ _______ _______ _____ _____    ______ ____
ROOT
ATOM      1  C4  UNL     1      14.358  14.976  -2.693  0.00  0.00    +0.000 C 
ATOM      2  O1  UNL     1      15.398  14.700  -2.105  0.00  0.00    +0.000 OA
ATOM      3  N3  UNL     1      13.952  14.442  -3.903  0.00  0.00    +0.000 N 
ATOM      4  H4  UNL     1      13.070  14.759  -4.275  0.00  0.00    +0.000 HD
ENDROOT
BRANCH   1   9
ATOM      5  C1  UNL     1      13.440  17.304  -2.371  0.00  0.00    +0.000 A 
ATOM      6  N1  UNL     1      12.422  17.853  -1.654  0.00  0.00    +0.000 N 
ATOM      7  N2  UNL     1      11.731  16.950  -0.942  0.00  0.00    +0.000 NA
ATOM      8  C2  UNL     1      12.340  15.795  -1.224  0.00  0.00    +0.000 A 
ATOM      9  C3  UNL     1      13.426  15.943  -2.118  0.00  0.00    +0.000 A 
ATOM     10  H2  UNL     1      12.142  18.827  -1.603  0.00  0.00    +0.000 HD
ENDBRANCH   1   9
BRANCH   3  11
ATOM     11  C5  UNL     1      14.629  13.492  -4.698  0.00  0.00    +0.000 A 
ATOM     12  C6  UNL     1      15.430  13.811  -5.796  0.00  0.00    +0.000 A 
ATOM     13  C7  UNL     1      16.064  12.803  -6.530  0.00  0.00    +0.000 A 
ATOM     14  C8  UNL     1      15.903  11.467  -6.173  0.00  0.00    +0.000 A 
ATOM     15  C9  UNL     1      15.106  11.136  -5.081  0.00  0.00    +0.000 A 
ATOM     16  C10 UNL     1      14.473  12.142  -4.348  0.00  0.00    +0.000 A 
ENDBRANCH   3  11
TORSDOF 2
ENDMDL
MODEL 3
REMARK VINA RESULT:    -4.881     14.257     15.629
REMARK INTER + INTRA:          -5.725
REMARK INTER:                  -5.457
REMARK INTRA:                  -0.268
REMARK UNBOUND:                -0.273
REMARK  Name = /home/anacleto/Desktop/manuscript_Mpro/naturecomm/supplementary_file_S2/6-chemical-library/molecular_docking/3D_ligand_structure/980.pdb
REMARK  2 active torsions:
REMARK  status: ('A' for Active; 'I' for Inactive)
REMARK    1  A    between atoms: C3_5  and  C4_6
REMARK    2  A    between atoms: N3_8  and  C5_9
REMARK                            x       y       z     vdW  Elec       q    Type
REMARK                         _______ _______ _______ _____ _____    ______ ____
ROOT
ATOM      1  C4  UNL     1      15.411  16.209  -1.712  0.00  0.00    +0.000 C 
ATOM      2  O1  UNL     1      16.077  16.427  -2.718  0.00  0.00    +0.000 OA
ATOM      3  N3  UNL     1      15.850  15.533  -0.588  0.00  0.00    +0.000 N 
ATOM      4  H4  UNL     1      15.194  15.424   0.171  0.00  0.00    +0.000 HD
ENDROOT
BRANCH   1   9
ATOM      5  C1  UNL     1      13.553  17.843  -2.205  0.00  0.00    +0.000 A 
ATOM      6  N1  UNL     1      12.227  17.921  -1.907  0.00  0.00    +0.000 N 
ATOM      7  N2  UNL     1      11.789  16.886  -1.175  0.00  0.00    +0.000 NA
ATOM      8  C2  UNL     1      12.880  16.134  -1.009  0.00  0.00    +0.000 A 
ATOM      9  C3  UNL     1      14.029  16.677  -1.632  0.00  0.00    +0.000 A 
ATOM     10  H2  UNL     1      11.565  18.645  -2.167  0.00  0.00    +0.000 HD
ENDBRANCH   1   9
BRANCH   3  11
ATOM     11  C5  UNL     1      17.123  14.966  -0.363  0.00  0.00    +0.000 A 
ATOM     12  C6  UNL     1      17.457  13.642  -0.655  0.00  0.00    +0.000 A 
ATOM     13  C7  UNL     1      18.747  13.162  -0.398  0.00  0.00    +0.000 A 
ATOM     14  C8  UNL     1      19.712  14.001   0.151  0.00  0.00    +0.000 A 
ATOM     15  C9  UNL     1      19.391  15.323   0.447  0.00  0.00    +0.000 A 
ATOM     16  C10 UNL     1      18.104  15.802   0.191  0.00  0.00    +0.000 A 
ENDBRANCH   3  11
TORSDOF 2
ENDMDL
MODEL 4
REMARK VINA RESULT:    -4.873      1.771      5.969
REMARK INTER + INTRA:          -5.716
REMARK INTER:                  -5.437
REMARK INTRA:                  -0.279
REMARK UNBOUND:                -0.273
REMARK  Name = /home/anacleto/Desktop/manuscript_Mpro/naturecomm/supplementary_file_S2/6-chemical-library/molecular_docking/3D_ligand_structure/980.pdb
REMARK  2 active torsions:
REMARK  status: ('A' for Active; 'I' for Inactive)
REMARK    1  A    between atoms: C3_5  and  C4_6
REMARK    2  A    between atoms: N3_8  and  C5_9
REMARK                            x       y       z     vdW  Elec       q    Type
REMARK                         _______ _______ _______ _____ _____    ______ ____
ROOT
ATOM      1  C4  UNL     1      18.848   4.310   9.099  0.00  0.00    +0.000 C 
ATOM      2  O1  UNL     1      19.468   3.325   9.481  0.00  0.00    +0.000 OA
ATOM      3  N3  UNL     1      17.515   4.328   8.731  0.00  0.00    +0.000 N 
ATOM      4  H4  UNL     1      17.129   5.212   8.435  0.00  0.00    +0.000 HD
ENDROOT
BRANCH   1   9
ATOM      5  C1  UNL     1      18.912   6.781   8.592  0.00  0.00    +0.000 A 
ATOM      6  N1  UNL     1      19.861   7.755   8.638  0.00  0.00    +0.000 N 
ATOM      7  N2  UNL     1      21.056   7.308   9.052  0.00  0.00    +0.000 NA
ATOM      8  C2  UNL     1      20.846   6.007   9.271  0.00  0.00    +0.000 A 
ATOM      9  C3  UNL     1      19.516   5.606   9.002  0.00  0.00    +0.000 A 
ATOM     10  H2  UNL     1      19.766   8.738   8.405  0.00  0.00    +0.000 HD
ENDBRANCH   1   9
BRANCH   3  11
ATOM     11  C5  UNL     1      16.607   3.246   8.717  0.00  0.00    +0.000 A 
ATOM     12  C6  UNL     1      16.444   2.370   7.642  0.00  0.00    +0.000 A 
ATOM     13  C7  UNL     1      15.519   1.323   7.714  0.00  0.00    +0.000 A 
ATOM     14  C8  UNL     1      14.750   1.142   8.861  0.00  0.00    +0.000 A 
ATOM     15  C9  UNL     1      14.904   2.009   9.938  0.00  0.00    +0.000 A 
ATOM     16  C10 UNL     1      15.827   3.055   9.867  0.00  0.00    +0.000 A 
ENDBRANCH   3  11
TORSDOF 2
ENDMDL
MODEL 5
REMARK VINA RESULT:    -4.492     15.341     16.175
REMARK INTER + INTRA:          -5.291
REMARK INTER:                  -5.091
REMARK INTRA:                  -0.199
REMARK UNBOUND:                -0.273
REMARK  Name = /home/anacleto/Desktop/manuscript_Mpro/naturecomm/supplementary_file_S2/6-chemical-library/molecular_docking/3D_ligand_structure/980.pdb
REMARK  2 active torsions:
REMARK  status: ('A' for Active; 'I' for Inactive)
REMARK    1  A    between atoms: C3_5  and  C4_6
REMARK    2  A    between atoms: N3_8  and  C5_9
REMARK                            x       y       z     vdW  Elec       q    Type
REMARK                         _______ _______ _______ _____ _____    ______ ____
ROOT
ATOM      1  C4  UNL     1      14.623  12.018  -4.236  0.00  0.00    +0.000 C 
ATOM      2  O1  UNL     1      14.932  11.253  -3.329  0.00  0.00    +0.000 OA
ATOM      3  N3  UNL     1      14.582  13.397  -4.146  0.00  0.00    +0.000 N 
ATOM      4  H4  UNL     1      14.309  13.906  -4.973  0.00  0.00    +0.000 HD
ENDROOT
BRANCH   1   9
ATOM      5  C1  UNL     1      15.040  11.573  -6.684  0.00  0.00    +0.000 A 
ATOM      6  N1  UNL     1      14.352  10.967  -7.690  0.00  0.00    +0.000 N 
ATOM      7  N2  UNL     1      13.162  10.485  -7.299  0.00  0.00    +0.000 NA
ATOM      8  C2  UNL     1      13.105  10.802  -6.003  0.00  0.00    +0.000 A 
ATOM      9  C3  UNL     1      14.255  11.489  -5.547  0.00  0.00    +0.000 A 
ATOM     10  H2  UNL     1      14.629  10.846  -8.658  0.00  0.00    +0.000 HD
ENDBRANCH   1   9
BRANCH   3  11
ATOM     11  C5  UNL     1      14.880  14.199  -3.023  0.00  0.00    +0.000 A 
ATOM     12  C6  UNL     1      16.134  14.261  -2.410  0.00  0.00    +0.000 A 
ATOM     13  C7  UNL     1      16.341  15.084  -1.298  0.00  0.00    +0.000 A 
ATOM     14  C8  UNL     1      15.298  15.852  -0.788  0.00  0.00    +0.000 A 
ATOM     15  C9  UNL     1      14.044  15.799  -1.390  0.00  0.00    +0.000 A 
ATOM     16  C10 UNL     1      13.836  14.977  -2.500  0.00  0.00    +0.000 A 
ENDBRANCH   3  11
TORSDOF 2
ENDMDL
MODEL 6
REMARK VINA RESULT:    -4.492     13.720     14.414
REMARK INTER + INTRA:          -5.290
REMARK INTER:                  -5.020
REMARK INTRA:                  -0.270
REMARK UNBOUND:                -0.273
REMARK  Name = /home/anacleto/Desktop/manuscript_Mpro/naturecomm/supplementary_file_S2/6-chemical-library/molecular_docking/3D_ligand_structure/980.pdb
REMARK  2 active torsions:
REMARK  status: ('A' for Active; 'I' for Inactive)
REMARK    1  A    between atoms: C3_5  and  C4_6
REMARK    2  A    between atoms: N3_8  and  C5_9
REMARK                            x       y       z     vdW  Elec       q    Type
REMARK                         _______ _______ _______ _____ _____    ______ ____
ROOT
ATOM      1  C4  UNL     1      16.452  13.501  -2.967  0.00  0.00    +0.000 C 
ATOM      2  O1  UNL     1      16.886  14.416  -3.656  0.00  0.00    +0.000 OA
ATOM      3  N3  UNL     1      16.743  13.292  -1.630  0.00  0.00    +0.000 N 
ATOM      4  H4  UNL     1      16.316  12.496  -1.183  0.00  0.00    +0.000 HD
ENDROOT
BRANCH   1   9
ATOM      5  C1  UNL     1      15.485  11.179  -3.177  0.00  0.00    +0.000 A 
ATOM      6  N1  UNL     1      14.523  10.597  -3.942  0.00  0.00    +0.000 N 
ATOM      7  N2  UNL     1      13.939  11.451  -4.796  0.00  0.00    +0.000 NA
ATOM      8  C2  UNL     1      14.559  12.609  -4.555  0.00  0.00    +0.000 A 
ATOM      9  C3  UNL     1      15.546  12.512  -3.546  0.00  0.00    +0.000 A 
ATOM     10  H2  UNL     1      14.214   9.630  -3.937  0.00  0.00    +0.000 HD
ENDBRANCH   1   9
BRANCH   3  11
ATOM     11  C5  UNL     1      17.579  14.069  -0.797  0.00  0.00    +0.000 A 
ATOM     12  C6  UNL     1      17.199  15.276  -0.208  0.00  0.00    +0.000 A 
ATOM     13  C7  UNL     1      18.094  15.981   0.605  0.00  0.00    +0.000 A 
ATOM     14  C8  UNL     1      19.374  15.486   0.836  0.00  0.00    +0.000 A 
ATOM     15  C9  UNL     1      19.764  14.283   0.253  0.00  0.00    +0.000 A 
ATOM     16  C10 UNL     1      18.872  13.579  -0.558  0.00  0.00    +0.000 A 
ENDBRANCH   3  11
TORSDOF 2
ENDMDL
MODEL 7
REMARK VINA RESULT:    -4.229      4.787      6.118
REMARK INTER + INTRA:          -4.997
REMARK INTER:                  -4.804
REMARK INTRA:                  -0.193
REMARK UNBOUND:                -0.273
REMARK  Name = /home/anacleto/Desktop/manuscript_Mpro/naturecomm/supplementary_file_S2/6-chemical-library/molecular_docking/3D_ligand_structure/980.pdb
REMARK  2 active torsions:
REMARK  status: ('A' for Active; 'I' for Inactive)
REMARK    1  A    between atoms: C3_5  and  C4_6
REMARK    2  A    between atoms: N3_8  and  C5_9
REMARK                            x       y       z     vdW  Elec       q    Type
REMARK                         _______ _______ _______ _____ _____    ______ ____
ROOT
ATOM      1  C4  UNL     1      18.528   6.842  13.139  0.00  0.00    +0.000 C 
ATOM      2  O1  UNL     1      17.576   7.550  12.830  0.00  0.00    +0.000 OA
ATOM      3  N3  UNL     1      19.373   6.198  12.253  0.00  0.00    +0.000 N 
ATOM      4  H4  UNL     1      20.119   5.644  12.646  0.00  0.00    +0.000 HD
ENDROOT
BRANCH   1   9
ATOM      5  C1  UNL     1      19.620   7.465  15.327  0.00  0.00    +0.000 A 
ATOM      6  N1  UNL     1      19.686   6.912  16.569  0.00  0.00    +0.000 N 
ATOM      7  N2  UNL     1      19.012   5.757  16.669  0.00  0.00    +0.000 NA
ATOM      8  C2  UNL     1      18.507   5.581  15.445  0.00  0.00    +0.000 A 
ATOM      9  C3  UNL     1      18.850   6.620  14.547  0.00  0.00    +0.000 A 
ATOM     10  H2  UNL     1      20.168   7.264  17.390  0.00  0.00    +0.000 HD
ENDBRANCH   1   9
BRANCH   3  11
ATOM     11  C5  UNL     1      19.322   6.218  10.842  0.00  0.00    +0.000 A 
ATOM     12  C6  UNL     1      18.950   5.128  10.053  0.00  0.00    +0.000 A 
ATOM     13  C7  UNL     1      18.929   5.236   8.658  0.00  0.00    +0.000 A 
ATOM     14  C8  UNL     1      19.278   6.434   8.040  0.00  0.00    +0.000 A 
ATOM     15  C9  UNL     1      19.651   7.527   8.817  0.00  0.00    +0.000 A 
ATOM     16  C10 UNL     1      19.673   7.420  10.209  0.00  0.00    +0.000 A 
ENDBRANCH   3  11
TORSDOF 2
ENDMDL
MODEL 8
REMARK VINA RESULT:    -4.161     23.641     24.882
REMARK INTER + INTRA:          -4.921
REMARK INTER:                  -4.648
REMARK INTRA:                  -0.273
REMARK UNBOUND:                -0.273
REMARK  Name = /home/anacleto/Desktop/manuscript_Mpro/naturecomm/supplementary_file_S2/6-chemical-library/molecular_docking/3D_ligand_structure/980.pdb
REMARK  2 active torsions:
REMARK  status: ('A' for Active; 'I' for Inactive)
REMARK    1  A    between atoms: C3_5  and  C4_6
REMARK    2  A    between atoms: N3_8  and  C5_9
REMARK                            x       y       z     vdW  Elec       q    Type
REMARK                         _______ _______ _______ _____ _____    ______ ____
ROOT
ATOM      1  C4  UNL     1      10.080  21.055  -7.104  0.00  0.00    +0.000 C 
ATOM      2  O1  UNL     1      10.231  22.070  -7.773  0.00  0.00    +0.000 OA
ATOM      3  N3  UNL     1       9.505  19.877  -7.547  0.00  0.00    +0.000 N 
ATOM      4  H4  UNL     1       9.444  19.116  -6.888  0.00  0.00    +0.000 HD
ENDROOT
BRANCH   1   9
ATOM      5  C1  UNL     1      10.958  19.887  -5.046  0.00  0.00    +0.000 A 
ATOM      6  N1  UNL     1      11.280  20.268  -3.780  0.00  0.00    +0.000 N 
ATOM      7  N2  UNL     1      11.091  21.577  -3.558  0.00  0.00    +0.000 NA
ATOM      8  C2  UNL     1      10.633  22.031  -4.728  0.00  0.00    +0.000 A 
ATOM      9  C3  UNL     1      10.524  21.020  -5.712  0.00  0.00    +0.000 A 
ATOM     10  H2  UNL     1      11.633  19.694  -3.021  0.00  0.00    +0.000 HD
ENDBRANCH   1   9
BRANCH   3  11
ATOM     11  C5  UNL     1       8.984  19.600  -8.830  0.00  0.00    +0.000 A 
ATOM     12  C6  UNL     1       7.707  19.968  -9.257  0.00  0.00    +0.000 A 
ATOM     13  C7  UNL     1       7.271  19.651 -10.548  0.00  0.00    +0.000 A 
ATOM     14  C8  UNL     1       8.108  18.965 -11.424  0.00  0.00    +0.000 A 
ATOM     15  C9  UNL     1       9.383  18.593 -11.010  0.00  0.00    +0.000 A 
ATOM     16  C10 UNL     1       9.819  18.908  -9.720  0.00  0.00    +0.000 A 
ENDBRANCH   3  11
TORSDOF 2
ENDMDL
MODEL 9
REMARK VINA RESULT:    -4.134      4.413      5.249
REMARK INTER + INTRA:          -4.890
REMARK INTER:                  -4.614
REMARK INTRA:                  -0.276
REMARK UNBOUND:                -0.273
REMARK  Name = /home/anacleto/Desktop/manuscript_Mpro/naturecomm/supplementary_file_S2/6-chemical-library/molecular_docking/3D_ligand_structure/980.pdb
REMARK  2 active torsions:
REMARK  status: ('A' for Active; 'I' for Inactive)
REMARK    1  A    between atoms: C3_5  and  C4_6
REMARK    2  A    between atoms: N3_8  and  C5_9
REMARK                            x       y       z     vdW  Elec       q    Type
REMARK                         _______ _______ _______ _____ _____    ______ ____
ROOT
ATOM      1  C4  UNL     1      17.756   6.176  12.679  0.00  0.00    +0.000 C 
ATOM      2  O1  UNL     1      17.641   5.029  12.260  0.00  0.00    +0.000 OA
ATOM      3  N3  UNL     1      18.667   7.111  12.224  0.00  0.00    +0.000 N 
ATOM      4  H4  UNL     1      18.653   8.021  12.659  0.00  0.00    +0.000 HD
ENDROOT
BRANCH   1   9
ATOM      5  C1  UNL     1      16.935   7.923  14.305  0.00  0.00    +0.000 A 
ATOM      6  N1  UNL     1      15.970   7.977  15.263  0.00  0.00    +0.000 N 
ATOM      7  N2  UNL     1      15.280   6.833  15.383  0.00  0.00    +0.000 NA
ATOM      8  C2  UNL     1      15.835   6.035  14.467  0.00  0.00    +0.000 A 
ATOM      9  C3  UNL     1      16.885   6.656  13.749  0.00  0.00    +0.000 A 
ATOM     10  H2  UNL     1      15.727   8.755  15.868  0.00  0.00    +0.000 HD
ENDBRANCH   1   9
BRANCH   3  11
ATOM     11  C5  UNL     1      19.634   6.951  11.207  0.00  0.00    +0.000 A 
ATOM     12  C6  UNL     1      19.439   7.309   9.872  0.00  0.00    +0.000 A 
ATOM     13  C7  UNL     1      20.453   7.113   8.929  0.00  0.00    +0.000 A 
ATOM     14  C8  UNL     1      21.672   6.559   9.312  0.00  0.00    +0.000 A 
ATOM     15  C9  UNL     1      21.879   6.198  10.640  0.00  0.00    +0.000 A 
ATOM     16  C10 UNL     1      20.866   6.392  11.582  0.00  0.00    +0.000 A 
ENDBRANCH   3  11
TORSDOF 2
ENDMDL
