MODEL 1
REMARK VINA RESULT:    -5.699      0.000      0.000
REMARK INTER + INTRA:          -6.440
REMARK INTER:                  -6.244
REMARK INTRA:                  -0.196
REMARK UNBOUND:                -0.075
REMARK  Name = /home/anacleto/Desktop/manuscript_Mpro/naturecomm/supplementary_file_S2/6-chemical-library/molecular_docking/3D_ligand_structure/832.pdb
REMARK  2 active torsions:
REMARK  status: ('A' for Active; 'I' for Inactive)
REMARK    1  A    between atoms: C3_6  and  C4_7
REMARK    2  A    between atoms: N3_9  and  C5_10
REMARK                            x       y       z     vdW  Elec       q    Type
REMARK                         _______ _______ _______ _____ _____    ______ ____
ROOT
ATOM      1  C4  UNL     1      14.572  13.162  -5.163  0.00  0.00    +0.000 C 
ATOM      2  O2  UNL     1      15.544  13.687  -5.691  0.00  0.00    +0.000 OA
ATOM      3  N3  UNL     1      14.094  13.359  -3.883  0.00  0.00    +0.000 N 
ATOM      4  H4  UNL     1      13.210  12.911  -3.669  0.00  0.00    +0.000 HD
ENDROOT
BRANCH   1  10
ATOM      5  N1  UNL     1      12.355  12.063  -5.741  0.00  0.00    +0.000 N 
ATOM      6  N2  UNL     1      11.990  10.939  -6.502  0.00  0.00    +0.000 N 
ATOM      7  C1  UNL     1      13.081  10.546  -7.266  0.00  0.00    +0.000 A 
ATOM      8  O1  UNL     1      13.089   9.749  -8.184  0.00  0.00    +0.000 OA
ATOM      9  C2  UNL     1      14.248  11.310  -6.792  0.00  0.00    +0.000 A 
ATOM     10  C3  UNL     1      13.735  12.181  -5.917  0.00  0.00    +0.000 A 
ATOM     11  H1  UNL     1      12.138  11.944  -4.746  0.00  0.00    +0.000 HD
ATOM     12  H2  UNL     1      11.059  10.857  -6.895  0.00  0.00    +0.000 HD
ENDBRANCH   1  10
BRANCH   3  13
ATOM     13  C5  UNL     1      14.642  14.177  -2.876  0.00  0.00    +0.000 A 
ATOM     14  C6  UNL     1      15.906  13.983  -2.317  0.00  0.00    +0.000 A 
ATOM     15  C7  UNL     1      16.376  14.838  -1.314  0.00  0.00    +0.000 A 
ATOM     16  C8  UNL     1      15.584  15.891  -0.862  0.00  0.00    +0.000 A 
ATOM     17  C9  UNL     1      14.322  16.092  -1.412  0.00  0.00    +0.000 A 
ATOM     18  C10 UNL     1      13.853  15.239  -2.414  0.00  0.00    +0.000 A 
ENDBRANCH   3  13
TORSDOF 2
ENDMDL
MODEL 2
REMARK VINA RESULT:    -5.514     16.048     17.394
REMARK INTER + INTRA:          -6.234
REMARK INTER:                  -5.981
REMARK INTRA:                  -0.252
REMARK UNBOUND:                -0.075
REMARK  Name = /home/anacleto/Desktop/manuscript_Mpro/naturecomm/supplementary_file_S2/6-chemical-library/molecular_docking/3D_ligand_structure/832.pdb
REMARK  2 active torsions:
REMARK  status: ('A' for Active; 'I' for Inactive)
REMARK    1  A    between atoms: C3_6  and  C4_7
REMARK    2  A    between atoms: N3_9  and  C5_10
REMARK                            x       y       z     vdW  Elec       q    Type
REMARK                         _______ _______ _______ _____ _____    ______ ____
ROOT
ATOM      1  C4  UNL     1      18.407   3.926   9.084  0.00  0.00    +0.000 C 
ATOM      2  O2  UNL     1      19.014   3.020   9.640  0.00  0.00    +0.000 OA
ATOM      3  N3  UNL     1      17.119   3.902   8.588  0.00  0.00    +0.000 N 
ATOM      4  H4  UNL     1      16.757   4.790   8.259  0.00  0.00    +0.000 HD
ENDROOT
BRANCH   1  10
ATOM      5  N1  UNL     1      18.474   6.273   8.111  0.00  0.00    +0.000 N 
ATOM      6  N2  UNL     1      19.458   7.273   8.040  0.00  0.00    +0.000 N 
ATOM      7  C1  UNL     1      20.488   6.947   8.911  0.00  0.00    +0.000 A 
ATOM      8  O1  UNL     1      21.405   7.661   9.268  0.00  0.00    +0.000 OA
ATOM      9  C2  UNL     1      20.252   5.569   9.375  0.00  0.00    +0.000 A 
ATOM     10  C3  UNL     1      19.051   5.258   8.876  0.00  0.00    +0.000 A 
ATOM     11  H1  UNL     1      18.221   5.911   7.186  0.00  0.00    +0.000 HD
ATOM     12  H2  UNL     1      19.201   8.248   7.924  0.00  0.00    +0.000 HD
ENDBRANCH   1  10
BRANCH   3  13
ATOM     13  C5  UNL     1      16.224   2.816   8.570  0.00  0.00    +0.000 A 
ATOM     14  C6  UNL     1      16.178   1.861   7.554  0.00  0.00    +0.000 A 
ATOM     15  C7  UNL     1      15.252   0.813   7.606  0.00  0.00    +0.000 A 
ATOM     16  C8  UNL     1      14.365   0.714   8.676  0.00  0.00    +0.000 A 
ATOM     17  C9  UNL     1      14.401   1.662   9.694  0.00  0.00    +0.000 A 
ATOM     18  C10 UNL     1      15.325   2.708   9.641  0.00  0.00    +0.000 A 
ENDBRANCH   3  13
TORSDOF 2
ENDMDL
MODEL 3
REMARK VINA RESULT:    -5.509      6.443      8.232
REMARK INTER + INTRA:          -6.228
REMARK INTER:                  -5.986
REMARK INTRA:                  -0.242
REMARK UNBOUND:                -0.075
REMARK  Name = /home/anacleto/Desktop/manuscript_Mpro/naturecomm/supplementary_file_S2/6-chemical-library/molecular_docking/3D_ligand_structure/832.pdb
REMARK  2 active torsions:
REMARK  status: ('A' for Active; 'I' for Inactive)
REMARK    1  A    between atoms: C3_6  and  C4_7
REMARK    2  A    between atoms: N3_9  and  C5_10
REMARK                            x       y       z     vdW  Elec       q    Type
REMARK                         _______ _______ _______ _____ _____    ______ ____
ROOT
ATOM      1  C4  UNL     1      12.773  19.704  -3.223  0.00  0.00    +0.000 C 
ATOM      2  O2  UNL     1      13.947  19.927  -3.482  0.00  0.00    +0.000 OA
ATOM      3  N3  UNL     1      11.727  20.605  -3.188  0.00  0.00    +0.000 N 
ATOM      4  H4  UNL     1      10.805  20.205  -3.059  0.00  0.00    +0.000 HD
ENDROOT
BRANCH   1  10
ATOM      5  N1  UNL     1      11.396  17.617  -3.681  0.00  0.00    +0.000 N 
ATOM      6  N2  UNL     1      11.122  16.447  -2.951  0.00  0.00    +0.000 N 
ATOM      7  C1  UNL     1      12.011  16.368  -1.888  0.00  0.00    +0.000 A 
ATOM      8  O1  UNL     1      12.212  15.411  -1.165  0.00  0.00    +0.000 OA
ATOM      9  C2  UNL     1      12.719  17.657  -1.809  0.00  0.00    +0.000 A 
ATOM     10  C3  UNL     1      12.314  18.319  -2.899  0.00  0.00    +0.000 A 
ATOM     11  H1  UNL     1      10.556  18.187  -3.829  0.00  0.00    +0.000 HD
ATOM     12  H2  UNL     1      10.841  15.594  -3.423  0.00  0.00    +0.000 HD
ENDBRANCH   1  10
BRANCH   3  13
ATOM     13  C5  UNL     1      11.783  21.995  -3.400  0.00  0.00    +0.000 A 
ATOM     14  C6  UNL     1      11.909  22.936  -2.377  0.00  0.00    +0.000 A 
ATOM     15  C7  UNL     1      11.950  24.303  -2.671  0.00  0.00    +0.000 A 
ATOM     16  C8  UNL     1      11.865  24.739  -3.992  0.00  0.00    +0.000 A 
ATOM     17  C9  UNL     1      11.737  23.810  -5.020  0.00  0.00    +0.000 A 
ATOM     18  C10 UNL     1      11.696  22.445  -4.726  0.00  0.00    +0.000 A 
ENDBRANCH   3  13
TORSDOF 2
ENDMDL
MODEL 4
REMARK VINA RESULT:    -5.497     15.901     16.644
REMARK INTER + INTRA:          -6.215
REMARK INTER:                  -5.982
REMARK INTRA:                  -0.233
REMARK UNBOUND:                -0.075
REMARK  Name = /home/anacleto/Desktop/manuscript_Mpro/naturecomm/supplementary_file_S2/6-chemical-library/molecular_docking/3D_ligand_structure/832.pdb
REMARK  2 active torsions:
REMARK  status: ('A' for Active; 'I' for Inactive)
REMARK    1  A    between atoms: C3_6  and  C4_7
REMARK    2  A    between atoms: N3_9  and  C5_10
REMARK                            x       y       z     vdW  Elec       q    Type
REMARK                         _______ _______ _______ _____ _____    ______ ____
ROOT
ATOM      1  C4  UNL     1      17.527   3.655   9.368  0.00  0.00    +0.000 C 
ATOM      2  O2  UNL     1      17.699   3.652  10.579  0.00  0.00    +0.000 OA
ATOM      3  N3  UNL     1      18.154   4.447   8.426  0.00  0.00    +0.000 N 
ATOM      4  H4  UNL     1      17.953   4.223   7.458  0.00  0.00    +0.000 HD
ENDROOT
BRANCH   1  10
ATOM      5  N1  UNL     1      16.838   1.968   7.596  0.00  0.00    +0.000 N 
ATOM      6  N2  UNL     1      15.619   1.363   7.245  0.00  0.00    +0.000 N 
ATOM      7  C1  UNL     1      14.704   1.581   8.265  0.00  0.00    +0.000 A 
ATOM      8  O1  UNL     1      13.622   1.047   8.410  0.00  0.00    +0.000 OA
ATOM      9  C2  UNL     1      15.300   2.562   9.189  0.00  0.00    +0.000 A 
ATOM     10  C3  UNL     1      16.548   2.721   8.735  0.00  0.00    +0.000 A 
ATOM     11  H1  UNL     1      17.195   2.580   6.854  0.00  0.00    +0.000 HD
ATOM     12  H2  UNL     1      15.603   0.477   6.749  0.00  0.00    +0.000 HD
ENDBRANCH   1  10
BRANCH   3  13
ATOM     13  C5  UNL     1      19.102   5.463   8.650  0.00  0.00    +0.000 A 
ATOM     14  C6  UNL     1      18.799   6.825   8.654  0.00  0.00    +0.000 A 
ATOM     15  C7  UNL     1      19.802   7.774   8.879  0.00  0.00    +0.000 A 
ATOM     16  C8  UNL     1      21.116   7.368   9.099  0.00  0.00    +0.000 A 
ATOM     17  C9  UNL     1      21.430   6.012   9.095  0.00  0.00    +0.000 A 
ATOM     18  C10 UNL     1      20.428   5.064   8.871  0.00  0.00    +0.000 A 
ENDBRANCH   3  13
TORSDOF 2
ENDMDL
MODEL 5
REMARK VINA RESULT:    -5.443      4.422      6.149
REMARK INTER + INTRA:          -6.154
REMARK INTER:                  -5.895
REMARK INTRA:                  -0.259
REMARK UNBOUND:                -0.075
REMARK  Name = /home/anacleto/Desktop/manuscript_Mpro/naturecomm/supplementary_file_S2/6-chemical-library/molecular_docking/3D_ligand_structure/832.pdb
REMARK  2 active torsions:
REMARK  status: ('A' for Active; 'I' for Inactive)
REMARK    1  A    between atoms: C3_6  and  C4_7
REMARK    2  A    between atoms: N3_9  and  C5_10
REMARK                            x       y       z     vdW  Elec       q    Type
REMARK                         _______ _______ _______ _____ _____    ______ ____
ROOT
ATOM      1  C4  UNL     1      13.158  16.316  -1.935  0.00  0.00    +0.000 C 
ATOM      2  O2  UNL     1      12.537  15.838  -0.995  0.00  0.00    +0.000 OA
ATOM      3  N3  UNL     1      14.339  15.864  -2.488  0.00  0.00    +0.000 N 
ATOM      4  H4  UNL     1      14.639  16.335  -3.334  0.00  0.00    +0.000 HD
ENDROOT
BRANCH   1  10
ATOM      5  N1  UNL     1      11.593  17.502  -3.549  0.00  0.00    +0.000 N 
ATOM      6  N2  UNL     1      11.548  18.797  -4.092  0.00  0.00    +0.000 N 
ATOM      7  C1  UNL     1      12.408  19.612  -3.370  0.00  0.00    +0.000 A 
ATOM      8  O1  UNL     1      12.485  20.825  -3.415  0.00  0.00    +0.000 OA
ATOM      9  C2  UNL     1      13.202  18.741  -2.487  0.00  0.00    +0.000 A 
ATOM     10  C3  UNL     1      12.652  17.532  -2.641  0.00  0.00    +0.000 A 
ATOM     11  H1  UNL     1      11.766  16.787  -4.264  0.00  0.00    +0.000 HD
ATOM     12  H2  UNL     1      10.677  19.185  -4.439  0.00  0.00    +0.000 HD
ENDBRANCH   1  10
BRANCH   3  13
ATOM     13  C5  UNL     1      15.124  14.773  -2.066  0.00  0.00    +0.000 A 
ATOM     14  C6  UNL     1      14.999  13.480  -2.574  0.00  0.00    +0.000 A 
ATOM     15  C7  UNL     1      15.814  12.448  -2.096  0.00  0.00    +0.000 A 
ATOM     16  C8  UNL     1      16.759  12.703  -1.105  0.00  0.00    +0.000 A 
ATOM     17  C9  UNL     1      16.891  13.988  -0.590  0.00  0.00    +0.000 A 
ATOM     18  C10 UNL     1      16.078  15.019  -1.068  0.00  0.00    +0.000 A 
ENDBRANCH   3  13
TORSDOF 2
ENDMDL
MODEL 6
REMARK VINA RESULT:    -5.424      2.314      3.157
REMARK INTER + INTRA:          -6.133
REMARK INTER:                  -5.895
REMARK INTRA:                  -0.238
REMARK UNBOUND:                -0.075
REMARK  Name = /home/anacleto/Desktop/manuscript_Mpro/naturecomm/supplementary_file_S2/6-chemical-library/molecular_docking/3D_ligand_structure/832.pdb
REMARK  2 active torsions:
REMARK  status: ('A' for Active; 'I' for Inactive)
REMARK    1  A    between atoms: C3_6  and  C4_7
REMARK    2  A    between atoms: N3_9  and  C5_10
REMARK                            x       y       z     vdW  Elec       q    Type
REMARK                         _______ _______ _______ _____ _____    ______ ____
ROOT
ATOM      1  C4  UNL     1      16.062  12.676  -3.748  0.00  0.00    +0.000 C 
ATOM      2  O2  UNL     1      16.827  13.211  -4.538  0.00  0.00    +0.000 OA
ATOM      3  N3  UNL     1      16.133  12.675  -2.369  0.00  0.00    +0.000 N 
ATOM      4  H4  UNL     1      15.341  12.265  -1.887  0.00  0.00    +0.000 HD
ENDROOT
BRANCH   1  10
ATOM      5  N1  UNL     1      14.581  10.612  -3.825  0.00  0.00    +0.000 N 
ATOM      6  N2  UNL     1      13.498  10.216  -4.629  0.00  0.00    +0.000 N 
ATOM      7  C1  UNL     1      13.037  11.321  -5.331  0.00  0.00    +0.000 A 
ATOM      8  O1  UNL     1      12.003  11.413  -5.963  0.00  0.00    +0.000 OA
ATOM      9  C2  UNL     1      14.017  12.404  -5.139  0.00  0.00    +0.000 A 
ATOM     10  C3  UNL     1      14.874  11.913  -4.237  0.00  0.00    +0.000 A 
ATOM     11  H1  UNL     1      15.402  10.011  -3.957  0.00  0.00    +0.000 HD
ATOM     12  H2  UNL     1      12.829   9.529  -4.297  0.00  0.00    +0.000 HD
ENDBRANCH   1  10
BRANCH   3  13
ATOM     13  C5  UNL     1      17.128  13.254  -1.559  0.00  0.00    +0.000 A 
ATOM     14  C6  UNL     1      17.009  14.504  -0.951  0.00  0.00    +0.000 A 
ATOM     15  C7  UNL     1      18.048  15.012  -0.164  0.00  0.00    +0.000 A 
ATOM     16  C8  UNL     1      19.215  14.274   0.018  0.00  0.00    +0.000 A 
ATOM     17  C9  UNL     1      19.346  13.027  -0.585  0.00  0.00    +0.000 A 
ATOM     18  C10 UNL     1      18.307  12.519  -1.370  0.00  0.00    +0.000 A 
ENDBRANCH   3  13
TORSDOF 2
ENDMDL
MODEL 7
REMARK VINA RESULT:    -5.416      2.941      3.890
REMARK INTER + INTRA:          -6.124
REMARK INTER:                  -5.857
REMARK INTRA:                  -0.267
REMARK UNBOUND:                -0.075
REMARK  Name = /home/anacleto/Desktop/manuscript_Mpro/naturecomm/supplementary_file_S2/6-chemical-library/molecular_docking/3D_ligand_structure/832.pdb
REMARK  2 active torsions:
REMARK  status: ('A' for Active; 'I' for Inactive)
REMARK    1  A    between atoms: C3_6  and  C4_7
REMARK    2  A    between atoms: N3_9  and  C5_10
REMARK                            x       y       z     vdW  Elec       q    Type
REMARK                         _______ _______ _______ _____ _____    ______ ____
ROOT
ATOM      1  C4  UNL     1      16.268  12.203  -1.661  0.00  0.00    +0.000 C 
ATOM      2  O2  UNL     1      16.310  11.493  -0.666  0.00  0.00    +0.000 OA
ATOM      3  N3  UNL     1      16.951  13.381  -1.891  0.00  0.00    +0.000 N 
ATOM      4  H4  UNL     1      16.865  13.766  -2.825  0.00  0.00    +0.000 HD
ENDROOT
BRANCH   1  10
ATOM      5  N1  UNL     1      14.998  10.523  -3.084  0.00  0.00    +0.000 N 
ATOM      6  N2  UNL     1      14.357  10.587  -4.333  0.00  0.00    +0.000 N 
ATOM      7  C1  UNL     1      14.207  11.921  -4.688  0.00  0.00    +0.000 A 
ATOM      8  O1  UNL     1      13.528  12.371  -5.591  0.00  0.00    +0.000 OA
ATOM      9  C2  UNL     1      14.995  12.721  -3.735  0.00  0.00    +0.000 A 
ATOM     10  C3  UNL     1      15.408  11.832  -2.825  0.00  0.00    +0.000 A 
ATOM     11  H1  UNL     1      15.812   9.899  -3.098  0.00  0.00    +0.000 HD
ATOM     12  H2  UNL     1      13.625   9.928  -4.576  0.00  0.00    +0.000 HD
ENDBRANCH   1  10
BRANCH   3  13
ATOM     13  C5  UNL     1      17.820  14.057  -1.013  0.00  0.00    +0.000 A 
ATOM     14  C6  UNL     1      19.101  13.611  -0.687  0.00  0.00    +0.000 A 
ATOM     15  C7  UNL     1      19.900  14.338   0.202  0.00  0.00    +0.000 A 
ATOM     16  C8  UNL     1      19.423  15.516   0.772  0.00  0.00    +0.000 A 
ATOM     17  C9  UNL     1      18.145  15.969   0.456  0.00  0.00    +0.000 A 
ATOM     18  C10 UNL     1      17.347  15.243  -0.432  0.00  0.00    +0.000 A 
ENDBRANCH   3  13
TORSDOF 2
ENDMDL
MODEL 8
REMARK VINA RESULT:    -5.192      3.833      5.828
REMARK INTER + INTRA:          -5.873
REMARK INTER:                  -5.625
REMARK INTRA:                  -0.248
REMARK UNBOUND:                -0.075
REMARK  Name = /home/anacleto/Desktop/manuscript_Mpro/naturecomm/supplementary_file_S2/6-chemical-library/molecular_docking/3D_ligand_structure/832.pdb
REMARK  2 active torsions:
REMARK  status: ('A' for Active; 'I' for Inactive)
REMARK    1  A    between atoms: C3_6  and  C4_7
REMARK    2  A    between atoms: N3_9  and  C5_10
REMARK                            x       y       z     vdW  Elec       q    Type
REMARK                         _______ _______ _______ _____ _____    ______ ____
ROOT
ATOM      1  C4  UNL     1      15.338  14.240  -2.044  0.00  0.00    +0.000 C 
ATOM      2  O2  UNL     1      16.259  14.463  -1.271  0.00  0.00    +0.000 OA
ATOM      3  N3  UNL     1      15.225  13.203  -2.949  0.00  0.00    +0.000 N 
ATOM      4  H4  UNL     1      14.333  13.129  -3.425  0.00  0.00    +0.000 HD
ENDROOT
BRANCH   1  10
ATOM      5  N1  UNL     1      13.395  15.357  -3.242  0.00  0.00    +0.000 N 
ATOM      6  N2  UNL     1      12.483  16.367  -2.894  0.00  0.00    +0.000 N 
ATOM      7  C1  UNL     1      12.553  16.576  -1.523  0.00  0.00    +0.000 A 
ATOM      8  O1  UNL     1      11.783  17.219  -0.836  0.00  0.00    +0.000 OA
ATOM      9  C2  UNL     1      13.722  15.832  -1.024  0.00  0.00    +0.000 A 
ATOM     10  C3  UNL     1      14.144  15.137  -2.085  0.00  0.00    +0.000 A 
ATOM     11  H1  UNL     1      14.013  15.641  -4.010  0.00  0.00    +0.000 HD
ATOM     12  H2  UNL     1      11.583  16.438  -3.357  0.00  0.00    +0.000 HD
ENDBRANCH   1  10
BRANCH   3  13
ATOM     13  C5  UNL     1      16.164  12.190  -3.218  0.00  0.00    +0.000 A 
ATOM     14  C6  UNL     1      16.260  11.002  -2.493  0.00  0.00    +0.000 A 
ATOM     15  C7  UNL     1      17.228  10.046  -2.820  0.00  0.00    +0.000 A 
ATOM     16  C8  UNL     1      18.109  10.273  -3.875  0.00  0.00    +0.000 A 
ATOM     17  C9  UNL     1      18.024  11.455  -4.605  0.00  0.00    +0.000 A 
ATOM     18  C10 UNL     1      17.057  12.409  -4.278  0.00  0.00    +0.000 A 
ENDBRANCH   3  13
TORSDOF 2
ENDMDL
MODEL 9
REMARK VINA RESULT:    -5.144      7.889      9.832
REMARK INTER + INTRA:          -5.821
REMARK INTER:                  -5.746
REMARK INTRA:                  -0.075
REMARK UNBOUND:                -0.075
REMARK  Name = /home/anacleto/Desktop/manuscript_Mpro/naturecomm/supplementary_file_S2/6-chemical-library/molecular_docking/3D_ligand_structure/832.pdb
REMARK  2 active torsions:
REMARK  status: ('A' for Active; 'I' for Inactive)
REMARK    1  A    between atoms: C3_6  and  C4_7
REMARK    2  A    between atoms: N3_9  and  C5_10
REMARK                            x       y       z     vdW  Elec       q    Type
REMARK                         _______ _______ _______ _____ _____    ______ ____
ROOT
ATOM      1  C4  UNL     1      10.634  20.263  -6.387  0.00  0.00    +0.000 C 
ATOM      2  O2  UNL     1      10.214  21.406  -6.501  0.00  0.00    +0.000 OA
ATOM      3  N3  UNL     1      10.518  19.224  -7.289  0.00  0.00    +0.000 N 
ATOM      4  H4  UNL     1      11.030  18.380  -7.058  0.00  0.00    +0.000 HD
ENDROOT
BRANCH   1  10
ATOM      5  N1  UNL     1      11.242  18.588  -4.574  0.00  0.00    +0.000 N 
ATOM      6  N2  UNL     1      11.981  18.665  -3.381  0.00  0.00    +0.000 N 
ATOM      7  C1  UNL     1      12.705  19.849  -3.382  0.00  0.00    +0.000 A 
ATOM      8  O1  UNL     1      13.600  20.165  -2.623  0.00  0.00    +0.000 OA
ATOM      9  C2  UNL     1      12.221  20.660  -4.512  0.00  0.00    +0.000 A 
ATOM     10  C3  UNL     1      11.383  19.846  -5.163  0.00  0.00    +0.000 A 
ATOM     11  H1  UNL     1      10.249  18.393  -4.403  0.00  0.00    +0.000 HD
ATOM     12  H2  UNL     1      12.397  17.834  -2.974  0.00  0.00    +0.000 HD
ENDBRANCH   1  10
BRANCH   3  13
ATOM     13  C5  UNL     1       9.849  19.231  -8.528  0.00  0.00    +0.000 A 
ATOM     14  C6  UNL     1      10.445  18.875  -9.738  0.00  0.00    +0.000 A 
ATOM     15  C7  UNL     1       9.712  18.916 -10.929  0.00  0.00    +0.000 A 
ATOM     16  C8  UNL     1       8.377  19.314 -10.918  0.00  0.00    +0.000 A 
ATOM     17  C9  UNL     1       7.773  19.673  -9.717  0.00  0.00    +0.000 A 
ATOM     18  C10 UNL     1       8.505  19.632  -8.527  0.00  0.00    +0.000 A 
ENDBRANCH   3  13
TORSDOF 2
ENDMDL
