MODEL 1
REMARK VINA RESULT:    -1.549      0.000      0.000
REMARK INTER + INTRA:          -1.549
REMARK INTER:                  -1.549
REMARK INTRA:                   0.000
REMARK UNBOUND:                 0.000
REMARK  Name = /home/anacleto/Desktop/manuscript_Mpro/naturecomm/supplementary_file_S2/6-chemical-library/molecular_docking/3D_ligand_structure/134.pdb
REMARK  0 active torsions:
REMARK  status: ('A' for Active; 'I' for Inactive)
REMARK                            x       y       z     vdW  Elec       q    Type
REMARK                         _______ _______ _______ _____ _____    ______ ____
ROOT
ATOM      1  C1  UNL     1     -18.931  -4.409 -27.093  0.00  0.00    +0.000 C 
ATOM      2  C2  UNL     1     -18.166  -4.180 -25.821  0.00  0.00    +0.000 C 
ATOM      3  O1  UNL     1     -18.166  -3.216 -26.881  0.00  0.00    +0.000 OA
ENDROOT
TORSDOF 0
ENDMDL
MODEL 2
REMARK VINA RESULT:    -1.398     25.206     25.235
REMARK INTER + INTRA:          -1.398
REMARK INTER:                  -1.398
REMARK INTRA:                   0.000
REMARK UNBOUND:                 0.000
REMARK  Name = /home/anacleto/Desktop/manuscript_Mpro/naturecomm/supplementary_file_S2/6-chemical-library/molecular_docking/3D_ligand_structure/134.pdb
REMARK  0 active torsions:
REMARK  status: ('A' for Active; 'I' for Inactive)
REMARK                            x       y       z     vdW  Elec       q    Type
REMARK                         _______ _______ _______ _____ _____    ______ ____
ROOT
ATOM      1  C1  UNL     1     -37.586   8.744 -15.634  0.00  0.00    +0.000 C 
ATOM      2  C2  UNL     1     -37.705   7.406 -14.960  0.00  0.00    +0.000 C 
ATOM      3  O1  UNL     1     -36.643   8.315 -14.643  0.00  0.00    +0.000 OA
ENDROOT
TORSDOF 0
ENDMDL
MODEL 3
REMARK VINA RESULT:    -1.356     15.503     15.712
REMARK INTER + INTRA:          -1.356
REMARK INTER:                  -1.356
REMARK INTRA:                   0.000
REMARK UNBOUND:                 0.000
REMARK  Name = /home/anacleto/Desktop/manuscript_Mpro/naturecomm/supplementary_file_S2/6-chemical-library/molecular_docking/3D_ligand_structure/134.pdb
REMARK  0 active torsions:
REMARK  status: ('A' for Active; 'I' for Inactive)
REMARK                            x       y       z     vdW  Elec       q    Type
REMARK                         _______ _______ _______ _____ _____    ______ ____
ROOT
ATOM      1  C1  UNL     1     -27.717   2.668 -38.330  0.00  0.00    +0.000 C 
ATOM      2  C2  UNL     1     -26.228   2.658 -38.530  0.00  0.00    +0.000 C 
ATOM      3  O1  UNL     1     -26.846   1.942 -37.454  0.00  0.00    +0.000 OA
ENDROOT
TORSDOF 0
ENDMDL
MODEL 4
REMARK VINA RESULT:    -1.350     24.267     24.414
REMARK INTER + INTRA:          -1.350
REMARK INTER:                  -1.350
REMARK INTRA:                   0.000
REMARK UNBOUND:                 0.000
REMARK  Name = /home/anacleto/Desktop/manuscript_Mpro/naturecomm/supplementary_file_S2/6-chemical-library/molecular_docking/3D_ligand_structure/134.pdb
REMARK  0 active torsions:
REMARK  status: ('A' for Active; 'I' for Inactive)
REMARK                            x       y       z     vdW  Elec       q    Type
REMARK                         _______ _______ _______ _____ _____    ______ ____
ROOT
ATOM      1  C1  UNL     1     -36.898  10.909 -31.551  0.00  0.00    +0.000 C 
ATOM      2  C2  UNL     1     -36.703  12.118 -30.681  0.00  0.00    +0.000 C 
ATOM      3  O1  UNL     1     -37.322  10.926 -30.182  0.00  0.00    +0.000 OA
ENDROOT
TORSDOF 0
ENDMDL
MODEL 5
REMARK VINA RESULT:    -1.346      8.987      9.256
REMARK INTER + INTRA:          -1.346
REMARK INTER:                  -1.346
REMARK INTRA:                   0.000
REMARK UNBOUND:                 0.000
REMARK  Name = /home/anacleto/Desktop/manuscript_Mpro/naturecomm/supplementary_file_S2/6-chemical-library/molecular_docking/3D_ligand_structure/134.pdb
REMARK  0 active torsions:
REMARK  status: ('A' for Active; 'I' for Inactive)
REMARK                            x       y       z     vdW  Elec       q    Type
REMARK                         _______ _______ _______ _____ _____    ______ ____
ROOT
ATOM      1  C1  UNL     1     -27.687  -4.105 -27.524  0.00  0.00    +0.000 C 
ATOM      2  C2  UNL     1     -26.650  -3.447 -28.390  0.00  0.00    +0.000 C 
ATOM      3  O1  UNL     1     -28.035  -3.463 -28.757  0.00  0.00    +0.000 OA
ENDROOT
TORSDOF 0
ENDMDL
MODEL 6
REMARK VINA RESULT:    -1.345     19.640     19.937
REMARK INTER + INTRA:          -1.345
REMARK INTER:                  -1.345
REMARK INTRA:                   0.000
REMARK UNBOUND:                 0.000
REMARK  Name = /home/anacleto/Desktop/manuscript_Mpro/naturecomm/supplementary_file_S2/6-chemical-library/molecular_docking/3D_ligand_structure/134.pdb
REMARK  0 active torsions:
REMARK  status: ('A' for Active; 'I' for Inactive)
REMARK                            x       y       z     vdW  Elec       q    Type
REMARK                         _______ _______ _______ _____ _____    ______ ____
ROOT
ATOM      1  C1  UNL     1     -37.641  -0.348 -28.844  0.00  0.00    +0.000 C 
ATOM      2  C2  UNL     1     -38.394   0.866 -29.308  0.00  0.00    +0.000 C 
ATOM      3  O1  UNL     1     -36.988   0.914 -29.034  0.00  0.00    +0.000 OA
ENDROOT
TORSDOF 0
ENDMDL
MODEL 7
REMARK VINA RESULT:    -1.313     16.159     16.367
REMARK INTER + INTRA:          -1.313
REMARK INTER:                  -1.313
REMARK INTRA:                   0.000
REMARK UNBOUND:                 0.000
REMARK  Name = /home/anacleto/Desktop/manuscript_Mpro/naturecomm/supplementary_file_S2/6-chemical-library/molecular_docking/3D_ligand_structure/134.pdb
REMARK  0 active torsions:
REMARK  status: ('A' for Active; 'I' for Inactive)
REMARK                            x       y       z     vdW  Elec       q    Type
REMARK                         _______ _______ _______ _____ _____    ______ ____
ROOT
ATOM      1  C1  UNL     1     -34.778  -1.519 -25.290  0.00  0.00    +0.000 C 
ATOM      2  C2  UNL     1     -33.825  -2.652 -25.541  0.00  0.00    +0.000 C 
ATOM      3  O1  UNL     1     -35.243  -2.825 -25.653  0.00  0.00    +0.000 OA
ENDROOT
TORSDOF 0
ENDMDL
MODEL 8
REMARK VINA RESULT:    -1.299     19.561     19.572
REMARK INTER + INTRA:          -1.299
REMARK INTER:                  -1.299
REMARK INTRA:                   0.000
REMARK UNBOUND:                 0.000
REMARK  Name = /home/anacleto/Desktop/manuscript_Mpro/naturecomm/supplementary_file_S2/6-chemical-library/molecular_docking/3D_ligand_structure/134.pdb
REMARK  0 active torsions:
REMARK  status: ('A' for Active; 'I' for Inactive)
REMARK                            x       y       z     vdW  Elec       q    Type
REMARK                         _______ _______ _______ _____ _____    ______ ____
ROOT
ATOM      1  C1  UNL     1     -36.160   0.340 -17.527  0.00  0.00    +0.000 C 
ATOM      2  C2  UNL     1     -34.830  -0.234 -17.924  0.00  0.00    +0.000 C 
ATOM      3  O1  UNL     1     -35.259   1.055 -18.381  0.00  0.00    +0.000 OA
ENDROOT
TORSDOF 0
ENDMDL
MODEL 9
REMARK VINA RESULT:    -1.219     16.173     16.391
REMARK INTER + INTRA:          -1.219
REMARK INTER:                  -1.219
REMARK INTRA:                   0.000
REMARK UNBOUND:                 0.000
REMARK  Name = /home/anacleto/Desktop/manuscript_Mpro/naturecomm/supplementary_file_S2/6-chemical-library/molecular_docking/3D_ligand_structure/134.pdb
REMARK  0 active torsions:
REMARK  status: ('A' for Active; 'I' for Inactive)
REMARK                            x       y       z     vdW  Elec       q    Type
REMARK                         _______ _______ _______ _____ _____    ______ ____
ROOT
ATOM      1  C1  UNL     1     -20.284   7.837 -38.311  0.00  0.00    +0.000 C 
ATOM      2  C2  UNL     1     -21.507   7.020 -38.007  0.00  0.00    +0.000 C 
ATOM      3  O1  UNL     1     -21.113   8.120 -37.177  0.00  0.00    +0.000 OA
ENDROOT
TORSDOF 0
ENDMDL
