MODEL 1
REMARK VINA RESULT:    -4.312      0.000      0.000
REMARK INTER + INTRA:          -4.879
REMARK INTER:                  -4.716
REMARK INTRA:                  -0.163
REMARK UNBOUND:                -0.063
REMARK  Name = /home/anacleto/Desktop/manuscript_Mpro/naturecomm/supplementary_file_S2/6-chemical-library/molecular_docking/3D_ligand_structure/1164.pdb
REMARK  2 active torsions:
REMARK  status: ('A' for Active; 'I' for Inactive)
REMARK    1  A    between atoms: C3_5  and  C4_6
REMARK    2  A    between atoms: C4_6  and  N2_7
REMARK                            x       y       z     vdW  Elec       q    Type
REMARK                         _______ _______ _______ _____ _____    ______ ____
ROOT
ATOM      1  N2  UNL     1     -25.701  -4.093 -26.756  0.00  0.00    +0.000 NA
ATOM      2  C5  UNL     1     -26.293  -5.351 -26.284  0.00  0.00    +0.000 C 
ATOM      3  C6  UNL     1     -27.843  -5.276 -26.221  0.00  0.00    +0.000 C 
ATOM      4  N3  UNL     1     -28.426  -4.092 -26.885  0.00  0.00    +0.000 NA
ATOM      5  C7  UNL     1     -27.766  -3.913 -28.192  0.00  0.00    +0.000 C 
ATOM      6  C8  UNL     1     -26.229  -3.726 -28.080  0.00  0.00    +0.000 C 
ATOM      7  H9  UNL     1     -28.142  -3.288 -26.319  0.00  0.00    +0.000 HD
ENDROOT
BRANCH   1   8
ATOM      8  C4  UNL     1     -24.242  -4.013 -26.643  0.00  0.00    +0.000 C 
BRANCH   8  13
ATOM      9  S1  UNL     1     -24.166  -2.927 -24.051  0.00  0.00    +0.000 S 
ATOM     10  C1  UNL     1     -23.133  -3.703 -22.926  0.00  0.00    +0.000 A 
ATOM     11  N1  UNL     1     -22.468  -4.746 -23.371  0.00  0.00    +0.000 NA
ATOM     12  C2  UNL     1     -22.789  -4.952 -24.698  0.00  0.00    +0.000 A 
ATOM     13  C3  UNL     1     -23.677  -4.051 -25.257  0.00  0.00    +0.000 A 
ENDBRANCH   8  13
ENDBRANCH   1   8
TORSDOF 2
ENDMDL
MODEL 2
REMARK VINA RESULT:    -3.776     17.275     18.845
REMARK INTER + INTRA:          -4.280
REMARK INTER:                  -4.139
REMARK INTRA:                  -0.142
REMARK UNBOUND:                -0.063
REMARK  Name = /home/anacleto/Desktop/manuscript_Mpro/naturecomm/supplementary_file_S2/6-chemical-library/molecular_docking/3D_ligand_structure/1164.pdb
REMARK  2 active torsions:
REMARK  status: ('A' for Active; 'I' for Inactive)
REMARK    1  A    between atoms: C3_5  and  C4_6
REMARK    2  A    between atoms: C4_6  and  N2_7
REMARK                            x       y       z     vdW  Elec       q    Type
REMARK                         _______ _______ _______ _____ _____    ______ ____
ROOT
ATOM      1  N2  UNL     1     -20.253   8.166 -39.448  0.00  0.00    +0.000 NA
ATOM      2  C5  UNL     1     -20.615   9.581 -39.298  0.00  0.00    +0.000 C 
ATOM      3  C6  UNL     1     -19.680  10.317 -38.301  0.00  0.00    +0.000 C 
ATOM      4  N3  UNL     1     -18.476   9.554 -37.914  0.00  0.00    +0.000 NA
ATOM      5  C7  UNL     1     -17.883   8.964 -39.128  0.00  0.00    +0.000 C 
ATOM      6  C8  UNL     1     -18.856   8.023 -39.888  0.00  0.00    +0.000 C 
ATOM      7  H9  UNL     1     -18.813   8.764 -37.358  0.00  0.00    +0.000 HD
ENDROOT
BRANCH   1   8
ATOM      8  C4  UNL     1     -21.213   7.357 -40.206  0.00  0.00    +0.000 C 
BRANCH   8  13
ATOM      9  S1  UNL     1     -23.716   6.080 -40.100  0.00  0.00    +0.000 S 
ATOM     10  C1  UNL     1     -24.149   5.369 -38.603  0.00  0.00    +0.000 A 
ATOM     11  N1  UNL     1     -23.269   5.477 -37.632  0.00  0.00    +0.000 NA
ATOM     12  C2  UNL     1     -22.170   6.174 -38.095  0.00  0.00    +0.000 A 
ATOM     13  C3  UNL     1     -22.234   6.610 -39.406  0.00  0.00    +0.000 A 
ENDBRANCH   8  13
ENDBRANCH   1   8
TORSDOF 2
ENDMDL
MODEL 3
REMARK VINA RESULT:    -3.693      2.371      3.085
REMARK INTER + INTRA:          -4.188
REMARK INTER:                  -4.064
REMARK INTRA:                  -0.123
REMARK UNBOUND:                -0.063
REMARK  Name = /home/anacleto/Desktop/manuscript_Mpro/naturecomm/supplementary_file_S2/6-chemical-library/molecular_docking/3D_ligand_structure/1164.pdb
REMARK  2 active torsions:
REMARK  status: ('A' for Active; 'I' for Inactive)
REMARK    1  A    between atoms: C3_5  and  C4_6
REMARK    2  A    between atoms: C4_6  and  N2_7
REMARK                            x       y       z     vdW  Elec       q    Type
REMARK                         _______ _______ _______ _____ _____    ______ ____
ROOT
ATOM      1  N2  UNL     1     -25.696  -3.912 -26.768  0.00  0.00    +0.000 NA
ATOM      2  C5  UNL     1     -26.569  -5.052 -26.462  0.00  0.00    +0.000 C 
ATOM      3  C6  UNL     1     -28.067  -4.716 -26.692  0.00  0.00    +0.000 C 
ATOM      4  N3  UNL     1     -28.306  -3.448 -27.412  0.00  0.00    +0.000 NA
ATOM      5  C7  UNL     1     -27.387  -3.381 -28.562  0.00  0.00    +0.000 C 
ATOM      6  C8  UNL     1     -25.891  -3.458 -28.155  0.00  0.00    +0.000 C 
ATOM      7  H9  UNL     1     -28.008  -2.705 -26.775  0.00  0.00    +0.000 HD
ENDROOT
BRANCH   1   8
ATOM      8  C4  UNL     1     -24.293  -4.081 -26.378  0.00  0.00    +0.000 C 
BRANCH   8  13
ATOM      9  S1  UNL     1     -22.181  -3.656 -28.184  0.00  0.00    +0.000 S 
ATOM     10  C1  UNL     1     -21.658  -5.018 -29.084  0.00  0.00    +0.000 A 
ATOM     11  N1  UNL     1     -22.287  -6.147 -28.846  0.00  0.00    +0.000 NA
ATOM     12  C2  UNL     1     -23.257  -5.931 -27.888  0.00  0.00    +0.000 A 
ATOM     13  C3  UNL     1     -23.373  -4.634 -27.422  0.00  0.00    +0.000 A 
ENDBRANCH   8  13
ENDBRANCH   1   8
TORSDOF 2
ENDMDL
MODEL 4
REMARK VINA RESULT:    -3.647     14.552     16.156
REMARK INTER + INTRA:          -4.136
REMARK INTER:                  -4.005
REMARK INTRA:                  -0.132
REMARK UNBOUND:                -0.063
REMARK  Name = /home/anacleto/Desktop/manuscript_Mpro/naturecomm/supplementary_file_S2/6-chemical-library/molecular_docking/3D_ligand_structure/1164.pdb
REMARK  2 active torsions:
REMARK  status: ('A' for Active; 'I' for Inactive)
REMARK    1  A    between atoms: C3_5  and  C4_6
REMARK    2  A    between atoms: C4_6  and  N2_7
REMARK                            x       y       z     vdW  Elec       q    Type
REMARK                         _______ _______ _______ _____ _____    ______ ____
ROOT
ATOM      1  N2  UNL     1     -26.077   3.865 -39.318  0.00  0.00    +0.000 NA
ATOM      2  C5  UNL     1     -25.789   2.659 -38.533  0.00  0.00    +0.000 C 
ATOM      3  C6  UNL     1     -27.059   2.103 -37.834  0.00  0.00    +0.000 C 
ATOM      4  N3  UNL     1     -28.325   2.709 -38.295  0.00  0.00    +0.000 NA
ATOM      5  C7  UNL     1     -28.306   2.776 -39.768  0.00  0.00    +0.000 C 
ATOM      6  C8  UNL     1     -27.116   3.602 -40.326  0.00  0.00    +0.000 C 
ATOM      7  H9  UNL     1     -28.303   3.680 -37.973  0.00  0.00    +0.000 HD
ENDROOT
BRANCH   1   8
ATOM      8  C4  UNL     1     -24.897   4.567 -39.834  0.00  0.00    +0.000 C 
BRANCH   8  13
ATOM      9  S1  UNL     1     -23.045   6.127 -38.404  0.00  0.00    +0.000 S 
ATOM     10  C1  UNL     1     -23.516   7.735 -38.045  0.00  0.00    +0.000 A 
ATOM     11  N1  UNL     1     -24.703   8.103 -38.475  0.00  0.00    +0.000 NA
ATOM     12  C2  UNL     1     -25.292   7.043 -39.134  0.00  0.00    +0.000 A 
ATOM     13  C3  UNL     1     -24.559   5.871 -39.180  0.00  0.00    +0.000 A 
ENDBRANCH   8  13
ENDBRANCH   1   8
TORSDOF 2
ENDMDL
MODEL 5
REMARK VINA RESULT:    -3.624      3.514      6.258
REMARK INTER + INTRA:          -4.110
REMARK INTER:                  -3.971
REMARK INTRA:                  -0.140
REMARK UNBOUND:                -0.063
REMARK  Name = /home/anacleto/Desktop/manuscript_Mpro/naturecomm/supplementary_file_S2/6-chemical-library/molecular_docking/3D_ligand_structure/1164.pdb
REMARK  2 active torsions:
REMARK  status: ('A' for Active; 'I' for Inactive)
REMARK    1  A    between atoms: C3_5  and  C4_6
REMARK    2  A    between atoms: C4_6  and  N2_7
REMARK                            x       y       z     vdW  Elec       q    Type
REMARK                         _______ _______ _______ _____ _____    ______ ____
ROOT
ATOM      1  N2  UNL     1     -24.681  -5.503 -20.906  0.00  0.00    +0.000 NA
ATOM      2  C5  UNL     1     -23.432  -5.873 -20.228  0.00  0.00    +0.000 C 
ATOM      3  C6  UNL     1     -23.257  -5.119 -18.882  0.00  0.00    +0.000 C 
ATOM      4  N3  UNL     1     -24.465  -4.405 -18.419  0.00  0.00    +0.000 NA
ATOM      5  C7  UNL     1     -25.628  -5.297 -18.578  0.00  0.00    +0.000 C 
ATOM      6  C8  UNL     1     -25.845  -5.762 -20.044  0.00  0.00    +0.000 C 
ATOM      7  H9  UNL     1     -24.608  -3.641 -19.084  0.00  0.00    +0.000 HD
ENDROOT
BRANCH   1   8
ATOM      8  C4  UNL     1     -24.817  -6.011 -22.275  0.00  0.00    +0.000 C 
BRANCH   8  13
ATOM      9  S1  UNL     1     -25.360  -5.266 -24.932  0.00  0.00    +0.000 S 
ATOM     10  C1  UNL     1     -24.777  -3.734 -25.431  0.00  0.00    +0.000 A 
ATOM     11  N1  UNL     1     -24.130  -3.035 -24.525  0.00  0.00    +0.000 NA
ATOM     12  C2  UNL     1     -24.082  -3.756 -23.348  0.00  0.00    +0.000 A 
ATOM     13  C3  UNL     1     -24.674  -5.005 -23.376  0.00  0.00    +0.000 A 
ENDBRANCH   8  13
ENDBRANCH   1   8
TORSDOF 2
ENDMDL
MODEL 6
REMARK VINA RESULT:    -3.550      2.768      4.903
REMARK INTER + INTRA:          -4.028
REMARK INTER:                  -3.894
REMARK INTRA:                  -0.134
REMARK UNBOUND:                -0.063
REMARK  Name = /home/anacleto/Desktop/manuscript_Mpro/naturecomm/supplementary_file_S2/6-chemical-library/molecular_docking/3D_ligand_structure/1164.pdb
REMARK  2 active torsions:
REMARK  status: ('A' for Active; 'I' for Inactive)
REMARK    1  A    between atoms: C3_5  and  C4_6
REMARK    2  A    between atoms: C4_6  and  N2_7
REMARK                            x       y       z     vdW  Elec       q    Type
REMARK                         _______ _______ _______ _____ _____    ______ ____
ROOT
ATOM      1  N2  UNL     1     -24.271  -4.135 -24.576  0.00  0.00    +0.000 NA
ATOM      2  C5  UNL     1     -24.875  -5.097 -23.645  0.00  0.00    +0.000 C 
ATOM      3  C6  UNL     1     -23.865  -5.575 -22.568  0.00  0.00    +0.000 C 
ATOM      4  N3  UNL     1     -22.612  -4.794 -22.514  0.00  0.00    +0.000 NA
ATOM      5  C7  UNL     1     -22.948  -3.360 -22.574  0.00  0.00    +0.000 C 
ATOM      6  C8  UNL     1     -23.734  -2.970 -23.855  0.00  0.00    +0.000 C 
ATOM      7  H9  UNL     1     -22.118  -5.000 -23.387  0.00  0.00    +0.000 HD
ENDROOT
BRANCH   1   8
ATOM      8  C4  UNL     1     -25.094  -3.799 -25.742  0.00  0.00    +0.000 C 
BRANCH   8  13
ATOM      9  S1  UNL     1     -25.408  -4.223 -28.504  0.00  0.00    +0.000 S 
ATOM     10  C1  UNL     1     -23.970  -4.311 -29.432  0.00  0.00    +0.000 A 
ATOM     11  N1  UNL     1     -22.842  -4.166 -28.772  0.00  0.00    +0.000 NA
ATOM     12  C2  UNL     1     -23.125  -3.975 -27.434  0.00  0.00    +0.000 A 
ATOM     13  C3  UNL     1     -24.462  -3.998 -27.085  0.00  0.00    +0.000 A 
ENDBRANCH   8  13
ENDBRANCH   1   8
TORSDOF 2
ENDMDL
MODEL 7
REMARK VINA RESULT:    -3.543      1.674      2.125
REMARK INTER + INTRA:          -4.020
REMARK INTER:                  -3.965
REMARK INTRA:                  -0.055
REMARK UNBOUND:                -0.063
REMARK  Name = /home/anacleto/Desktop/manuscript_Mpro/naturecomm/supplementary_file_S2/6-chemical-library/molecular_docking/3D_ligand_structure/1164.pdb
REMARK  2 active torsions:
REMARK  status: ('A' for Active; 'I' for Inactive)
REMARK    1  A    between atoms: C3_5  and  C4_6
REMARK    2  A    between atoms: C4_6  and  N2_7
REMARK                            x       y       z     vdW  Elec       q    Type
REMARK                         _______ _______ _______ _____ _____    ______ ____
ROOT
ATOM      1  N2  UNL     1     -26.794  -5.312 -25.407  0.00  0.00    +0.000 NA
ATOM      2  C5  UNL     1     -26.699  -6.371 -24.394  0.00  0.00    +0.000 C 
ATOM      3  C6  UNL     1     -28.066  -6.651 -23.715  0.00  0.00    +0.000 C 
ATOM      4  N3  UNL     1     -29.222  -6.016 -24.383  0.00  0.00    +0.000 NA
ATOM      5  C7  UNL     1     -29.102  -6.232 -25.836  0.00  0.00    +0.000 C 
ATOM      6  C8  UNL     1     -27.791  -5.654 -26.434  0.00  0.00    +0.000 C 
ATOM      7  H9  UNL     1     -29.106  -5.009 -24.242  0.00  0.00    +0.000 HD
ENDROOT
BRANCH   1   8
ATOM      8  C4  UNL     1     -25.511  -4.846 -25.941  0.00  0.00    +0.000 C 
BRANCH   8  13
ATOM      9  S1  UNL     1     -24.443  -3.025 -24.083  0.00  0.00    +0.000 S 
ATOM     10  C1  UNL     1     -23.044  -3.531 -23.233  0.00  0.00    +0.000 A 
ATOM     11  N1  UNL     1     -22.594  -4.733 -23.519  0.00  0.00    +0.000 NA
ATOM     12  C2  UNL     1     -23.404  -5.301 -24.482  0.00  0.00    +0.000 A 
ATOM     13  C3  UNL     1     -24.450  -4.519 -24.936  0.00  0.00    +0.000 A 
ENDBRANCH   8  13
ENDBRANCH   1   8
TORSDOF 2
ENDMDL
MODEL 8
REMARK VINA RESULT:    -3.444     17.972     18.998
REMARK INTER + INTRA:          -3.910
REMARK INTER:                  -3.777
REMARK INTRA:                  -0.133
REMARK UNBOUND:                -0.063
REMARK  Name = /home/anacleto/Desktop/manuscript_Mpro/naturecomm/supplementary_file_S2/6-chemical-library/molecular_docking/3D_ligand_structure/1164.pdb
REMARK  2 active torsions:
REMARK  status: ('A' for Active; 'I' for Inactive)
REMARK    1  A    between atoms: C3_5  and  C4_6
REMARK    2  A    between atoms: C4_6  and  N2_7
REMARK                            x       y       z     vdW  Elec       q    Type
REMARK                         _______ _______ _______ _____ _____    ______ ____
ROOT
ATOM      1  N2  UNL     1     -21.587   8.286 -38.103  0.00  0.00    +0.000 NA
ATOM      2  C5  UNL     1     -21.454   9.022 -36.840  0.00  0.00    +0.000 C 
ATOM      3  C6  UNL     1     -22.552  10.109 -36.682  0.00  0.00    +0.000 C 
ATOM      4  N3  UNL     1     -23.649  10.018 -37.668  0.00  0.00    +0.000 NA
ATOM      5  C7  UNL     1     -24.066   8.608 -37.778  0.00  0.00    +0.000 C 
ATOM      6  C8  UNL     1     -22.915   7.662 -38.212  0.00  0.00    +0.000 C 
ATOM      7  H9  UNL     1     -23.231  10.254 -38.572  0.00  0.00    +0.000 HD
ENDROOT
BRANCH   1   8
ATOM      8  C4  UNL     1     -20.469   7.392 -38.420  0.00  0.00    +0.000 C 
BRANCH   8  13
ATOM      9  S1  UNL     1     -19.375   7.900 -40.960  0.00  0.00    +0.000 S 
ATOM     10  C1  UNL     1     -17.897   8.766 -40.997  0.00  0.00    +0.000 A 
ATOM     11  N1  UNL     1     -17.404   9.124 -39.832  0.00  0.00    +0.000 NA
ATOM     12  C2  UNL     1     -18.247   8.683 -38.831  0.00  0.00    +0.000 A 
ATOM     13  C3  UNL     1     -19.361   7.974 -39.242  0.00  0.00    +0.000 A 
ENDBRANCH   8  13
ENDBRANCH   1   8
TORSDOF 2
ENDMDL
MODEL 9
REMARK VINA RESULT:    -3.378      3.553      4.183
REMARK INTER + INTRA:          -3.836
REMARK INTER:                  -3.773
REMARK INTRA:                  -0.063
REMARK UNBOUND:                -0.063
REMARK  Name = /home/anacleto/Desktop/manuscript_Mpro/naturecomm/supplementary_file_S2/6-chemical-library/molecular_docking/3D_ligand_structure/1164.pdb
REMARK  2 active torsions:
REMARK  status: ('A' for Active; 'I' for Inactive)
REMARK    1  A    between atoms: C3_5  and  C4_6
REMARK    2  A    between atoms: C4_6  and  N2_7
REMARK                            x       y       z     vdW  Elec       q    Type
REMARK                         _______ _______ _______ _____ _____    ______ ____
ROOT
ATOM      1  N2  UNL     1     -23.169  -3.381 -27.909  0.00  0.00    +0.000 NA
ATOM      2  C5  UNL     1     -23.310  -4.247 -26.732  0.00  0.00    +0.000 C 
ATOM      3  C6  UNL     1     -24.739  -4.178 -26.128  0.00  0.00    +0.000 C 
ATOM      4  N3  UNL     1     -25.731  -3.492 -26.981  0.00  0.00    +0.000 NA
ATOM      5  C7  UNL     1     -25.576  -3.976 -28.364  0.00  0.00    +0.000 C 
ATOM      6  C8  UNL     1     -24.156  -3.732 -28.942  0.00  0.00    +0.000 C 
ATOM      7  H9  UNL     1     -25.450  -2.508 -26.998  0.00  0.00    +0.000 HD
ENDROOT
BRANCH   1   8
ATOM      8  C4  UNL     1     -21.798  -3.230 -28.408  0.00  0.00    +0.000 C 
BRANCH   8  13
ATOM      9  S1  UNL     1     -19.567  -4.487 -27.246  0.00  0.00    +0.000 S 
ATOM     10  C1  UNL     1     -19.246  -6.093 -27.748  0.00  0.00    +0.000 A 
ATOM     11  N1  UNL     1     -20.077  -6.603 -28.631  0.00  0.00    +0.000 NA
ATOM     12  C2  UNL     1     -21.038  -5.661 -28.942  0.00  0.00    +0.000 A 
ATOM     13  C3  UNL     1     -20.917  -4.437 -28.311  0.00  0.00    +0.000 A 
ENDBRANCH   8  13
ENDBRANCH   1   8
TORSDOF 2
ENDMDL
