MODEL 1
REMARK VINA RESULT:    -4.270      0.000      0.000
REMARK INTER + INTRA:          -4.270
REMARK INTER:                  -4.270
REMARK INTRA:                   0.000
REMARK UNBOUND:                 0.000
REMARK  Name = /home/anacleto/Desktop/manuscript_Mpro/naturecomm/supplementary_file_S2/6-chemical-library/molecular_docking/3D_ligand_structure/161.pdb
REMARK  0 active torsions:
REMARK  status: ('A' for Active; 'I' for Inactive)
REMARK                            x       y       z     vdW  Elec       q    Type
REMARK                         _______ _______ _______ _____ _____    ______ ____
ROOT
ATOM      1  O1  UNL     1     -18.889   5.694 -40.547  0.00  0.00    +0.000 OA
ATOM      2  C1  UNL     1     -18.773   6.835 -40.139  0.00  0.00    +0.000 C 
ATOM      3  N1  UNL     1     -17.722   7.681 -40.367  0.00  0.00    +0.000 N 
ATOM      4  C2  UNL     1     -17.806   8.836 -39.638  0.00  0.00    +0.000 C 
ATOM      5  O2  UNL     1     -17.087   9.812 -39.740  0.00  0.00    +0.000 OA
ATOM      6  C3  UNL     1     -18.892   8.611 -38.628  0.00  0.00    +0.000 C 
ATOM      7  C4  UNL     1     -19.790   7.633 -39.377  0.00  0.00    +0.000 C 
ATOM      8  C5  UNL     1     -19.708   9.780 -38.118  0.00  0.00    +0.000 C 
ATOM      9  C6  UNL     1     -20.945   9.255 -37.415  0.00  0.00    +0.000 C 
ATOM     10  C7  UNL     1     -21.380   7.982 -37.521  0.00  0.00    +0.000 C 
ATOM     11  C8  UNL     1     -20.728   6.942 -38.410  0.00  0.00    +0.000 C 
ATOM     12  H1  UNL     1     -16.967   7.475 -41.004  0.00  0.00    +0.000 HD
ENDROOT
TORSDOF 0
ENDMDL
MODEL 2
REMARK VINA RESULT:    -4.212      4.446      5.466
REMARK INTER + INTRA:          -4.212
REMARK INTER:                  -4.212
REMARK INTRA:                   0.000
REMARK UNBOUND:                 0.000
REMARK  Name = /home/anacleto/Desktop/manuscript_Mpro/naturecomm/supplementary_file_S2/6-chemical-library/molecular_docking/3D_ligand_structure/161.pdb
REMARK  0 active torsions:
REMARK  status: ('A' for Active; 'I' for Inactive)
REMARK                            x       y       z     vdW  Elec       q    Type
REMARK                         _______ _______ _______ _____ _____    ______ ____
ROOT
ATOM      1  O1  UNL     1     -26.194   9.235 -38.264  0.00  0.00    +0.000 OA
ATOM      2  C1  UNL     1     -25.036   9.167 -37.893  0.00  0.00    +0.000 C 
ATOM      3  N1  UNL     1     -24.324  10.148 -37.258  0.00  0.00    +0.000 N 
ATOM      4  C2  UNL     1     -22.999   9.833 -37.120  0.00  0.00    +0.000 C 
ATOM      5  O2  UNL     1     -22.168  10.454 -36.485  0.00  0.00    +0.000 OA
ATOM      6  C3  UNL     1     -22.766   8.632 -37.989  0.00  0.00    +0.000 C 
ATOM      7  C4  UNL     1     -24.137   7.968 -37.944  0.00  0.00    +0.000 C 
ATOM      8  C5  UNL     1     -21.690   7.631 -37.626  0.00  0.00    +0.000 C 
ATOM      9  C6  UNL     1     -21.901   6.361 -38.427  0.00  0.00    +0.000 C 
ATOM     10  C7  UNL     1     -23.038   6.081 -39.098  0.00  0.00    +0.000 C 
ATOM     11  C8  UNL     1     -24.267   6.968 -39.074  0.00  0.00    +0.000 C 
ATOM     12  H1  UNL     1     -24.731  11.010 -36.928  0.00  0.00    +0.000 HD
ENDROOT
TORSDOF 0
ENDMDL
MODEL 3
REMARK VINA RESULT:    -4.125     18.504     19.802
REMARK INTER + INTRA:          -4.125
REMARK INTER:                  -4.125
REMARK INTRA:                   0.000
REMARK UNBOUND:                 0.000
REMARK  Name = /home/anacleto/Desktop/manuscript_Mpro/naturecomm/supplementary_file_S2/6-chemical-library/molecular_docking/3D_ligand_structure/161.pdb
REMARK  0 active torsions:
REMARK  status: ('A' for Active; 'I' for Inactive)
REMARK                            x       y       z     vdW  Elec       q    Type
REMARK                         _______ _______ _______ _____ _____    ______ ____
ROOT
ATOM      1  O1  UNL     1     -29.546  -6.029 -26.293  0.00  0.00    +0.000 OA
ATOM      2  C1  UNL     1     -28.634  -5.296 -26.627  0.00  0.00    +0.000 C 
ATOM      3  N1  UNL     1     -28.626  -4.434 -27.691  0.00  0.00    +0.000 N 
ATOM      4  C2  UNL     1     -27.397  -3.871 -27.906  0.00  0.00    +0.000 C 
ATOM      5  O2  UNL     1     -27.136  -2.979 -28.690  0.00  0.00    +0.000 OA
ATOM      6  C3  UNL     1     -26.433  -4.643 -27.054  0.00  0.00    +0.000 C 
ATOM      7  C4  UNL     1     -27.337  -5.075 -25.905  0.00  0.00    +0.000 C 
ATOM      8  C5  UNL     1     -25.190  -3.969 -26.513  0.00  0.00    +0.000 C 
ATOM      9  C6  UNL     1     -24.597  -4.827 -25.412  0.00  0.00    +0.000 C 
ATOM     10  C7  UNL     1     -25.256  -5.845 -24.822  0.00  0.00    +0.000 C 
ATOM     11  C8  UNL     1     -26.694  -6.209 -25.135  0.00  0.00    +0.000 C 
ATOM     12  H1  UNL     1     -29.438  -4.236 -28.255  0.00  0.00    +0.000 HD
ENDROOT
TORSDOF 0
ENDMDL
MODEL 4
REMARK VINA RESULT:    -4.112     17.661     18.945
REMARK INTER + INTRA:          -4.112
REMARK INTER:                  -4.112
REMARK INTRA:                   0.000
REMARK UNBOUND:                 0.000
REMARK  Name = /home/anacleto/Desktop/manuscript_Mpro/naturecomm/supplementary_file_S2/6-chemical-library/molecular_docking/3D_ligand_structure/161.pdb
REMARK  0 active torsions:
REMARK  status: ('A' for Active; 'I' for Inactive)
REMARK                            x       y       z     vdW  Elec       q    Type
REMARK                         _______ _______ _______ _____ _____    ______ ____
ROOT
ATOM      1  O1  UNL     1     -27.636  -2.945 -28.940  0.00  0.00    +0.000 OA
ATOM      2  C1  UNL     1     -26.776  -3.386 -28.201  0.00  0.00    +0.000 C 
ATOM      3  N1  UNL     1     -25.422  -3.263 -28.359  0.00  0.00    +0.000 N 
ATOM      4  C2  UNL     1     -24.715  -4.009 -27.454  0.00  0.00    +0.000 C 
ATOM      5  O2  UNL     1     -23.511  -3.988 -27.280  0.00  0.00    +0.000 OA
ATOM      6  C3  UNL     1     -25.711  -4.923 -26.802  0.00  0.00    +0.000 C 
ATOM      7  C4  UNL     1     -26.979  -4.081 -26.887  0.00  0.00    +0.000 C 
ATOM      8  C5  UNL     1     -25.492  -5.392 -25.379  0.00  0.00    +0.000 C 
ATOM      9  C6  UNL     1     -26.783  -5.980 -24.844  0.00  0.00    +0.000 C 
ATOM     10  C7  UNL     1     -27.983  -5.811 -25.437  0.00  0.00    +0.000 C 
ATOM     11  C8  UNL     1     -28.197  -4.954 -26.670  0.00  0.00    +0.000 C 
ATOM     12  H1  UNL     1     -24.992  -2.686 -29.064  0.00  0.00    +0.000 HD
ENDROOT
TORSDOF 0
ENDMDL
MODEL 5
REMARK VINA RESULT:    -4.013      8.105      9.410
REMARK INTER + INTRA:          -4.013
REMARK INTER:                  -4.013
REMARK INTRA:                   0.000
REMARK UNBOUND:                 0.000
REMARK  Name = /home/anacleto/Desktop/manuscript_Mpro/naturecomm/supplementary_file_S2/6-chemical-library/molecular_docking/3D_ligand_structure/161.pdb
REMARK  0 active torsions:
REMARK  status: ('A' for Active; 'I' for Inactive)
REMARK                            x       y       z     vdW  Elec       q    Type
REMARK                         _______ _______ _______ _____ _____    ______ ____
ROOT
ATOM      1  O1  UNL     1     -30.270   4.941 -38.342  0.00  0.00    +0.000 OA
ATOM      2  C1  UNL     1     -29.094   5.190 -38.534  0.00  0.00    +0.000 C 
ATOM      3  N1  UNL     1     -28.576   6.363 -39.012  0.00  0.00    +0.000 N 
ATOM      4  C2  UNL     1     -27.236   6.279 -39.277  0.00  0.00    +0.000 C 
ATOM      5  O2  UNL     1     -26.498   7.196 -39.582  0.00  0.00    +0.000 OA
ATOM      6  C3  UNL     1     -26.891   4.820 -39.212  0.00  0.00    +0.000 C 
ATOM      7  C4  UNL     1     -27.917   4.321 -38.201  0.00  0.00    +0.000 C 
ATOM      8  C5  UNL     1     -25.500   4.386 -38.798  0.00  0.00    +0.000 C 
ATOM      9  C6  UNL     1     -25.520   2.908 -38.461  0.00  0.00    +0.000 C 
ATOM     10  C7  UNL     1     -26.652   2.202 -38.263  0.00  0.00    +0.000 C 
ATOM     11  C8  UNL     1     -28.038   2.814 -38.283  0.00  0.00    +0.000 C 
ATOM     12  H1  UNL     1     -29.123   7.198 -39.155  0.00  0.00    +0.000 HD
ENDROOT
TORSDOF 0
ENDMDL
MODEL 6
REMARK VINA RESULT:    -4.012      2.824      3.658
REMARK INTER + INTRA:          -4.012
REMARK INTER:                  -4.012
REMARK INTRA:                   0.000
REMARK UNBOUND:                 0.000
REMARK  Name = /home/anacleto/Desktop/manuscript_Mpro/naturecomm/supplementary_file_S2/6-chemical-library/molecular_docking/3D_ligand_structure/161.pdb
REMARK  0 active torsions:
REMARK  status: ('A' for Active; 'I' for Inactive)
REMARK                            x       y       z     vdW  Elec       q    Type
REMARK                         _______ _______ _______ _____ _____    ______ ____
ROOT
ATOM      1  O1  UNL     1     -22.184   6.070 -38.381  0.00  0.00    +0.000 OA
ATOM      2  C1  UNL     1     -21.766   7.167 -38.060  0.00  0.00    +0.000 C 
ATOM      3  N1  UNL     1     -22.460   8.143 -37.397  0.00  0.00    +0.000 N 
ATOM      4  C2  UNL     1     -21.774   9.326 -37.329  0.00  0.00    +0.000 C 
ATOM      5  O2  UNL     1     -22.090  10.312 -36.691  0.00  0.00    +0.000 OA
ATOM      6  C3  UNL     1     -20.618   9.189 -38.277  0.00  0.00    +0.000 C 
ATOM      7  C4  UNL     1     -20.368   7.686 -38.217  0.00  0.00    +0.000 C 
ATOM      8  C5  UNL     1     -19.330   9.942 -38.016  0.00  0.00    +0.000 C 
ATOM      9  C6  UNL     1     -18.230   9.360 -38.882  0.00  0.00    +0.000 C 
ATOM     10  C7  UNL     1     -18.330   8.178 -39.523  0.00  0.00    +0.000 C 
ATOM     11  C8  UNL     1     -19.525   7.253 -39.398  0.00  0.00    +0.000 C 
ATOM     12  H1  UNL     1     -23.377   8.005 -37.000  0.00  0.00    +0.000 HD
ENDROOT
TORSDOF 0
ENDMDL
MODEL 7
REMARK VINA RESULT:    -3.984      8.137      9.703
REMARK INTER + INTRA:          -3.984
REMARK INTER:                  -3.984
REMARK INTRA:                   0.000
REMARK UNBOUND:                 0.000
REMARK  Name = /home/anacleto/Desktop/manuscript_Mpro/naturecomm/supplementary_file_S2/6-chemical-library/molecular_docking/3D_ligand_structure/161.pdb
REMARK  0 active torsions:
REMARK  status: ('A' for Active; 'I' for Inactive)
REMARK                            x       y       z     vdW  Elec       q    Type
REMARK                         _______ _______ _______ _____ _____    ______ ____
ROOT
ATOM      1  O1  UNL     1     -26.697   7.341 -39.624  0.00  0.00    +0.000 OA
ATOM      2  C1  UNL     1     -27.386   6.395 -39.289  0.00  0.00    +0.000 C 
ATOM      3  N1  UNL     1     -28.715   6.427 -38.964  0.00  0.00    +0.000 N 
ATOM      4  C2  UNL     1     -29.166   5.234 -38.468  0.00  0.00    +0.000 C 
ATOM      5  O2  UNL     1     -30.321   4.939 -38.225  0.00  0.00    +0.000 OA
ATOM      6  C3  UNL     1     -27.943   4.409 -38.193  0.00  0.00    +0.000 C 
ATOM      7  C4  UNL     1     -26.983   4.950 -39.247  0.00  0.00    +0.000 C 
ATOM      8  C5  UNL     1     -28.011   2.899 -38.277  0.00  0.00    +0.000 C 
ATOM      9  C6  UNL     1     -26.602   2.339 -38.323  0.00  0.00    +0.000 C 
ATOM     10  C7  UNL     1     -25.508   3.090 -38.569  0.00  0.00    +0.000 C 
ATOM     11  C8  UNL     1     -25.560   4.568 -38.899  0.00  0.00    +0.000 C 
ATOM     12  H1  UNL     1     -29.299   7.241 -39.078  0.00  0.00    +0.000 HD
ENDROOT
TORSDOF 0
ENDMDL
MODEL 8
REMARK VINA RESULT:    -3.935      3.628      5.080
REMARK INTER + INTRA:          -3.935
REMARK INTER:                  -3.935
REMARK INTRA:                   0.000
REMARK UNBOUND:                 0.000
REMARK  Name = /home/anacleto/Desktop/manuscript_Mpro/naturecomm/supplementary_file_S2/6-chemical-library/molecular_docking/3D_ligand_structure/161.pdb
REMARK  0 active torsions:
REMARK  status: ('A' for Active; 'I' for Inactive)
REMARK                            x       y       z     vdW  Elec       q    Type
REMARK                         _______ _______ _______ _____ _____    ______ ____
ROOT
ATOM      1  O1  UNL     1     -23.985  10.125 -37.456  0.00  0.00    +0.000 OA
ATOM      2  C1  UNL     1     -23.526   9.061 -37.827  0.00  0.00    +0.000 C 
ATOM      3  N1  UNL     1     -24.190   7.866 -37.900  0.00  0.00    +0.000 N 
ATOM      4  C2  UNL     1     -23.360   6.818 -38.194  0.00  0.00    +0.000 C 
ATOM      5  O2  UNL     1     -23.695   5.676 -38.448  0.00  0.00    +0.000 OA
ATOM      6  C3  UNL     1     -21.961   7.340 -38.040  0.00  0.00    +0.000 C 
ATOM      7  C4  UNL     1     -22.158   8.810 -38.390  0.00  0.00    +0.000 C 
ATOM      8  C5  UNL     1     -20.837   6.753 -38.867  0.00  0.00    +0.000 C 
ATOM      9  C6  UNL     1     -19.636   7.676 -38.799  0.00  0.00    +0.000 C 
ATOM     10  C7  UNL     1     -19.693   8.944 -38.341  0.00  0.00    +0.000 C 
ATOM     11  C8  UNL     1     -20.976   9.623 -37.905  0.00  0.00    +0.000 C 
ATOM     12  H1  UNL     1     -25.183   7.769 -37.753  0.00  0.00    +0.000 HD
ENDROOT
TORSDOF 0
ENDMDL
MODEL 9
REMARK VINA RESULT:    -3.931     17.194     18.510
REMARK INTER + INTRA:          -3.931
REMARK INTER:                  -3.931
REMARK INTRA:                   0.000
REMARK UNBOUND:                 0.000
REMARK  Name = /home/anacleto/Desktop/manuscript_Mpro/naturecomm/supplementary_file_S2/6-chemical-library/molecular_docking/3D_ligand_structure/161.pdb
REMARK  0 active torsions:
REMARK  status: ('A' for Active; 'I' for Inactive)
REMARK                            x       y       z     vdW  Elec       q    Type
REMARK                         _______ _______ _______ _____ _____    ______ ____
ROOT
ATOM      1  O1  UNL     1     -23.936  -3.183 -29.324  0.00  0.00    +0.000 OA
ATOM      2  C1  UNL     1     -24.733  -3.549 -28.480  0.00  0.00    +0.000 C 
ATOM      3  N1  UNL     1     -26.076  -3.284 -28.456  0.00  0.00    +0.000 N 
ATOM      4  C2  UNL     1     -26.673  -3.689 -27.293  0.00  0.00    +0.000 C 
ATOM      5  O2  UNL     1     -27.866  -3.699 -27.055  0.00  0.00    +0.000 OA
ATOM      6  C3  UNL     1     -25.557  -4.017 -26.346  0.00  0.00    +0.000 C 
ATOM      7  C4  UNL     1     -24.469  -4.461 -27.318  0.00  0.00    +0.000 C 
ATOM      8  C5  UNL     1     -25.755  -5.068 -25.273  0.00  0.00    +0.000 C 
ATOM      9  C6  UNL     1     -24.405  -5.466 -24.710  0.00  0.00    +0.000 C 
ATOM     10  C7  UNL     1     -23.230  -5.160 -25.300  0.00  0.00    +0.000 C 
ATOM     11  C8  UNL     1     -23.120  -4.444 -26.631  0.00  0.00    +0.000 C 
ATOM     12  H1  UNL     1     -26.571  -2.839 -29.213  0.00  0.00    +0.000 HD
ENDROOT
TORSDOF 0
ENDMDL
