MODEL 1
REMARK VINA RESULT:    -3.667      0.000      0.000
REMARK INTER + INTRA:          -3.667
REMARK INTER:                  -3.667
REMARK INTRA:                   0.000
REMARK UNBOUND:                 0.000
REMARK  Name = /home/anacleto/Desktop/manuscript_Mpro/naturecomm/supplementary_file_S2/6-chemical-library/molecular_docking/3D_ligand_structure/303.pdb
REMARK  0 active torsions:
REMARK  status: ('A' for Active; 'I' for Inactive)
REMARK                            x       y       z     vdW  Elec       q    Type
REMARK                         _______ _______ _______ _____ _____    ______ ____
ROOT
ATOM      1  N1  UNL     1      16.830  11.805  -4.711  0.00  0.00    +0.000 NA
ATOM      2  N2  UNL     1      16.480  11.448  -3.433  0.00  0.00    +0.000 NA
ATOM      3  N3  UNL     1      15.250  10.954  -3.387  0.00  0.00    +0.000 NA
ATOM      4  N4  UNL     1      14.783  10.988  -4.655  0.00  0.00    +0.000 N 
ATOM      5  C1  UNL     1      15.789  11.524  -5.460  0.00  0.00    +0.000 A 
ATOM      6  C2  UNL     1      13.548  10.587  -5.162  0.00  0.00    +0.000 A 
ATOM      7  C3  UNL     1      13.298  10.714  -6.477  0.00  0.00    +0.000 A 
ATOM      8  C4  UNL     1      14.330  11.270  -7.340  0.00  0.00    +0.000 A 
ATOM      9  C5  UNL     1      15.525  11.659  -6.851  0.00  0.00    +0.000 A 
ENDROOT
TORSDOF 0
ENDMDL
MODEL 2
REMARK VINA RESULT:    -3.654     15.710     16.413
REMARK INTER + INTRA:          -3.654
REMARK INTER:                  -3.654
REMARK INTRA:                   0.000
REMARK UNBOUND:                 0.000
REMARK  Name = /home/anacleto/Desktop/manuscript_Mpro/naturecomm/supplementary_file_S2/6-chemical-library/molecular_docking/3D_ligand_structure/303.pdb
REMARK  0 active torsions:
REMARK  status: ('A' for Active; 'I' for Inactive)
REMARK                            x       y       z     vdW  Elec       q    Type
REMARK                         _______ _______ _______ _____ _____    ______ ____
ROOT
ATOM      1  N1  UNL     1      21.056   3.970   8.849  0.00  0.00    +0.000 NA
ATOM      2  N2  UNL     1      22.357   4.141   9.252  0.00  0.00    +0.000 NA
ATOM      3  N3  UNL     1      22.642   5.423   9.438  0.00  0.00    +0.000 NA
ATOM      4  N4  UNL     1      21.511   6.106   9.152  0.00  0.00    +0.000 N 
ATOM      5  C1  UNL     1      20.537   5.175   8.788  0.00  0.00    +0.000 A 
ATOM      6  C2  UNL     1      21.264   7.478   9.186  0.00  0.00    +0.000 A 
ATOM      7  C3  UNL     1      20.045   7.940   8.858  0.00  0.00    +0.000 A 
ATOM      8  C4  UNL     1      19.010   6.990   8.474  0.00  0.00    +0.000 A 
ATOM      9  C5  UNL     1      19.248   5.663   8.441  0.00  0.00    +0.000 A 
ENDROOT
TORSDOF 0
ENDMDL
MODEL 3
REMARK VINA RESULT:    -3.475     16.223     17.113
REMARK INTER + INTRA:          -3.475
REMARK INTER:                  -3.475
REMARK INTRA:                   0.000
REMARK UNBOUND:                 0.000
REMARK  Name = /home/anacleto/Desktop/manuscript_Mpro/naturecomm/supplementary_file_S2/6-chemical-library/molecular_docking/3D_ligand_structure/303.pdb
REMARK  0 active torsions:
REMARK  status: ('A' for Active; 'I' for Inactive)
REMARK                            x       y       z     vdW  Elec       q    Type
REMARK                         _______ _______ _______ _____ _____    ______ ____
ROOT
ATOM      1  N1  UNL     1      18.995   7.615  11.525  0.00  0.00    +0.000 NA
ATOM      2  N2  UNL     1      19.917   7.338  12.504  0.00  0.00    +0.000 NA
ATOM      3  N3  UNL     1      20.915   6.601  12.036  0.00  0.00    +0.000 NA
ATOM      4  N4  UNL     1      20.644   6.386  10.728  0.00  0.00    +0.000 N 
ATOM      5  C1  UNL     1      19.441   7.030  10.436  0.00  0.00    +0.000 A 
ATOM      6  C2  UNL     1      21.367   5.674   9.772  0.00  0.00    +0.000 A 
ATOM      7  C3  UNL     1      20.901   5.593   8.514  0.00  0.00    +0.000 A 
ATOM      8  C4  UNL     1      19.648   6.256   8.182  0.00  0.00    +0.000 A 
ATOM      9  C5  UNL     1      18.948   6.945   9.106  0.00  0.00    +0.000 A 
ENDROOT
TORSDOF 0
ENDMDL
MODEL 4
REMARK VINA RESULT:    -3.361      1.749      3.012
REMARK INTER + INTRA:          -3.361
REMARK INTER:                  -3.361
REMARK INTRA:                   0.000
REMARK UNBOUND:                 0.000
REMARK  Name = /home/anacleto/Desktop/manuscript_Mpro/naturecomm/supplementary_file_S2/6-chemical-library/molecular_docking/3D_ligand_structure/303.pdb
REMARK  0 active torsions:
REMARK  status: ('A' for Active; 'I' for Inactive)
REMARK                            x       y       z     vdW  Elec       q    Type
REMARK                         _______ _______ _______ _____ _____    ______ ____
ROOT
ATOM      1  N1  UNL     1      14.206  11.234  -7.232  0.00  0.00    +0.000 NA
ATOM      2  N2  UNL     1      13.040  10.940  -6.571  0.00  0.00    +0.000 NA
ATOM      3  N3  UNL     1      13.243  10.807  -5.267  0.00  0.00    +0.000 NA
ATOM      4  N4  UNL     1      14.564  11.015  -5.067  0.00  0.00    +0.000 N 
ATOM      5  C1  UNL     1      15.141  11.280  -6.311  0.00  0.00    +0.000 A 
ATOM      6  C2  UNL     1      15.303  10.994  -3.885  0.00  0.00    +0.000 A 
ATOM      7  C3  UNL     1      16.625  11.235  -3.925  0.00  0.00    +0.000 A 
ATOM      8  C4  UNL     1      17.252  11.514  -5.210  0.00  0.00    +0.000 A 
ATOM      9  C5  UNL     1      16.539  11.535  -6.354  0.00  0.00    +0.000 A 
ENDROOT
TORSDOF 0
ENDMDL
MODEL 5
REMARK VINA RESULT:    -3.286     18.753     19.644
REMARK INTER + INTRA:          -3.286
REMARK INTER:                  -3.286
REMARK INTRA:                   0.000
REMARK UNBOUND:                 0.000
REMARK  Name = /home/anacleto/Desktop/manuscript_Mpro/naturecomm/supplementary_file_S2/6-chemical-library/molecular_docking/3D_ligand_structure/303.pdb
REMARK  0 active torsions:
REMARK  status: ('A' for Active; 'I' for Inactive)
REMARK                            x       y       z     vdW  Elec       q    Type
REMARK                         _______ _______ _______ _____ _____    ______ ____
ROOT
ATOM      1  N1  UNL     1      24.727  16.695   9.600  0.00  0.00    +0.000 NA
ATOM      2  N2  UNL     1      25.199  17.983   9.651  0.00  0.00    +0.000 NA
ATOM      3  N3  UNL     1      24.687  18.647  10.678  0.00  0.00    +0.000 NA
ATOM      4  N4  UNL     1      23.863  17.783  11.313  0.00  0.00    +0.000 N 
ATOM      5  C1  UNL     1      23.908  16.572  10.619  0.00  0.00    +0.000 A 
ATOM      6  C2  UNL     1      23.078  17.969  12.449  0.00  0.00    +0.000 A 
ATOM      7  C3  UNL     1      22.327  16.954  12.910  0.00  0.00    +0.000 A 
ATOM      8  C4  UNL     1      22.355  15.680  12.205  0.00  0.00    +0.000 A 
ATOM      9  C5  UNL     1      23.114  15.498  11.106  0.00  0.00    +0.000 A 
ENDROOT
TORSDOF 0
ENDMDL
MODEL 6
REMARK VINA RESULT:    -3.281     16.736     17.319
REMARK INTER + INTRA:          -3.281
REMARK INTER:                  -3.281
REMARK INTRA:                   0.000
REMARK UNBOUND:                 0.000
REMARK  Name = /home/anacleto/Desktop/manuscript_Mpro/naturecomm/supplementary_file_S2/6-chemical-library/molecular_docking/3D_ligand_structure/303.pdb
REMARK  0 active torsions:
REMARK  status: ('A' for Active; 'I' for Inactive)
REMARK                            x       y       z     vdW  Elec       q    Type
REMARK                         _______ _______ _______ _____ _____    ______ ____
ROOT
ATOM      1  N1  UNL     1      13.315   0.596   8.680  0.00  0.00    +0.000 NA
ATOM      2  N2  UNL     1      12.687   1.080   9.800  0.00  0.00    +0.000 NA
ATOM      3  N3  UNL     1      13.398   2.039  10.377  0.00  0.00    +0.000 NA
ATOM      4  N4  UNL     1      14.512   2.187   9.626  0.00  0.00    +0.000 N 
ATOM      5  C1  UNL     1      14.435   1.274   8.573  0.00  0.00    +0.000 A 
ATOM      6  C2  UNL     1      15.589   3.057   9.789  0.00  0.00    +0.000 A 
ATOM      7  C3  UNL     1      16.603   3.030   8.906  0.00  0.00    +0.000 A 
ATOM      8  C4  UNL     1      16.547   2.087   7.798  0.00  0.00    +0.000 A 
ATOM      9  C5  UNL     1      15.506   1.244   7.640  0.00  0.00    +0.000 A 
ENDROOT
TORSDOF 0
ENDMDL
MODEL 7
REMARK VINA RESULT:    -3.188      7.161      7.632
REMARK INTER + INTRA:          -3.188
REMARK INTER:                  -3.188
REMARK INTRA:                   0.000
REMARK UNBOUND:                 0.000
REMARK  Name = /home/anacleto/Desktop/manuscript_Mpro/naturecomm/supplementary_file_S2/6-chemical-library/molecular_docking/3D_ligand_structure/303.pdb
REMARK  0 active torsions:
REMARK  status: ('A' for Active; 'I' for Inactive)
REMARK                            x       y       z     vdW  Elec       q    Type
REMARK                         _______ _______ _______ _____ _____    ______ ____
ROOT
ATOM      1  N1  UNL     1      13.333  19.333  -2.546  0.00  0.00    +0.000 NA
ATOM      2  N2  UNL     1      14.623  19.565  -2.952  0.00  0.00    +0.000 NA
ATOM      3  N3  UNL     1      15.367  18.471  -2.853  0.00  0.00    +0.000 NA
ATOM      4  N4  UNL     1      14.553  17.504  -2.372  0.00  0.00    +0.000 N 
ATOM      5  C1  UNL     1      13.290  18.069  -2.190  0.00  0.00    +0.000 A 
ATOM      6  C2  UNL     1      14.828  16.169  -2.082  0.00  0.00    +0.000 A 
ATOM      7  C3  UNL     1      13.850  15.378  -1.607  0.00  0.00    +0.000 A 
ATOM      8  C4  UNL     1      12.523  15.943  -1.406  0.00  0.00    +0.000 A 
ATOM      9  C5  UNL     1      12.255  17.234  -1.686  0.00  0.00    +0.000 A 
ENDROOT
TORSDOF 0
ENDMDL
MODEL 8
REMARK VINA RESULT:    -3.167     18.579     19.702
REMARK INTER + INTRA:          -3.167
REMARK INTER:                  -3.167
REMARK INTRA:                   0.000
REMARK UNBOUND:                 0.000
REMARK  Name = /home/anacleto/Desktop/manuscript_Mpro/naturecomm/supplementary_file_S2/6-chemical-library/molecular_docking/3D_ligand_structure/303.pdb
REMARK  0 active torsions:
REMARK  status: ('A' for Active; 'I' for Inactive)
REMARK                            x       y       z     vdW  Elec       q    Type
REMARK                         _______ _______ _______ _____ _____    ______ ____
ROOT
ATOM      1  N1  UNL     1      25.136  15.578   9.568  0.00  0.00    +0.000 NA
ATOM      2  N2  UNL     1      26.375  15.158   9.981  0.00  0.00    +0.000 NA
ATOM      3  N3  UNL     1      26.374  14.831  11.266  0.00  0.00    +0.000 NA
ATOM      4  N4  UNL     1      25.113  15.040  11.706  0.00  0.00    +0.000 N 
ATOM      5  C1  UNL     1      24.361  15.506  10.627  0.00  0.00    +0.000 A 
ATOM      6  C2  UNL     1      24.569  14.855  12.976  0.00  0.00    +0.000 A 
ATOM      7  C3  UNL     1      23.270  15.131  13.188  0.00  0.00    +0.000 A 
ATOM      8  C4  UNL     1      22.463  15.619  12.078  0.00  0.00    +0.000 A 
ATOM      9  C5  UNL     1      22.988  15.799  10.850  0.00  0.00    +0.000 A 
ENDROOT
TORSDOF 0
ENDMDL
MODEL 9
REMARK VINA RESULT:    -3.072     16.976     17.582
REMARK INTER + INTRA:          -3.072
REMARK INTER:                  -3.072
REMARK INTRA:                   0.000
REMARK UNBOUND:                 0.000
REMARK  Name = /home/anacleto/Desktop/manuscript_Mpro/naturecomm/supplementary_file_S2/6-chemical-library/molecular_docking/3D_ligand_structure/303.pdb
REMARK  0 active torsions:
REMARK  status: ('A' for Active; 'I' for Inactive)
REMARK                            x       y       z     vdW  Elec       q    Type
REMARK                         _______ _______ _______ _____ _____    ______ ____
ROOT
ATOM      1  N1  UNL     1      13.687   2.682  10.958  0.00  0.00    +0.000 NA
ATOM      2  N2  UNL     1      14.766   3.480  11.245  0.00  0.00    +0.000 NA
ATOM      3  N3  UNL     1      15.763   3.271  10.395  0.00  0.00    +0.000 NA
ATOM      4  N4  UNL     1      15.333   2.319   9.536  0.00  0.00    +0.000 N 
ATOM      5  C1  UNL     1      14.035   1.970   9.910  0.00  0.00    +0.000 A 
ATOM      6  C2  UNL     1      15.986   1.734   8.452  0.00  0.00    +0.000 A 
ATOM      7  C3  UNL     1      15.356   0.794   7.727  0.00  0.00    +0.000 A 
ATOM      8  C4  UNL     1      14.000   0.411   8.096  0.00  0.00    +0.000 A 
ATOM      9  C5  UNL     1      13.367   0.976   9.144  0.00  0.00    +0.000 A 
ENDROOT
TORSDOF 0
ENDMDL
