MODEL 1
REMARK VINA RESULT:    -5.405      0.000      0.000
REMARK INTER + INTRA:          -6.299
REMARK INTER:                  -6.038
REMARK INTRA:                  -0.260
REMARK UNBOUND:                -0.261
REMARK  Name = /home/anacleto/Desktop/manuscript_Mpro/naturecomm/supplementary_file_S2/6-chemical-library/molecular_docking/3D_ligand_structure/777.pdb
REMARK  2 active torsions:
REMARK  status: ('A' for Active; 'I' for Inactive)
REMARK    1  A    between atoms: C3_5  and  C4_6
REMARK    2  A    between atoms: N3_8  and  C5_9
REMARK                            x       y       z     vdW  Elec       q    Type
REMARK                         _______ _______ _______ _____ _____    ______ ____
ROOT
ATOM      1  C4  UNL     1      14.818  14.199  -2.700  0.00  0.00    +0.000 C 
ATOM      2  O1  UNL     1      15.908  14.046  -2.162  0.00  0.00    +0.000 OA
ATOM      3  N3  UNL     1      14.406  13.434  -3.776  0.00  0.00    +0.000 N 
ATOM      4  H4  UNL     1      13.418  13.395  -3.967  0.00  0.00    +0.000 HD
ENDROOT
BRANCH   3   5
ATOM      5  C5  UNL     1      15.219  12.326  -4.276  0.00  0.00    +0.000 C 
ATOM      6  C6  UNL     1      14.431  11.005  -4.328  0.00  0.00    +0.000 C 
ATOM      7  C7  UNL     1      13.168  11.042  -5.186  0.00  0.00    +0.000 C 
ATOM      8  C8  UNL     1      13.379  10.767  -6.672  0.00  0.00    +0.000 C 
ATOM      9  C9  UNL     1      14.624  11.361  -7.321  0.00  0.00    +0.000 C 
ATOM     10  C10 UNL     1      15.009  12.754  -6.834  0.00  0.00    +0.000 C 
ATOM     11  C11 UNL     1      15.900  12.719  -5.592  0.00  0.00    +0.000 C 
ENDBRANCH   3   5
BRANCH   1  16
ATOM     12  N1  UNL     1      12.731  15.609  -2.918  0.00  0.00    +0.000 N 
ATOM     13  C1  UNL     1      12.116  16.548  -2.141  0.00  0.00    +0.000 A 
ATOM     14  N2  UNL     1      12.775  16.753  -1.026  0.00  0.00    +0.000 NA
ATOM     15  C2  UNL     1      13.864  15.923  -1.095  0.00  0.00    +0.000 A 
ATOM     16  C3  UNL     1      13.854  15.172  -2.256  0.00  0.00    +0.000 A 
ATOM     17  H1  UNL     1      12.435  15.326  -3.840  0.00  0.00    +0.000 HD
ENDBRANCH   1  16
TORSDOF 2
ENDMDL
MODEL 2
REMARK VINA RESULT:    -4.904     16.842     17.850
REMARK INTER + INTRA:          -5.739
REMARK INTER:                  -5.476
REMARK INTRA:                  -0.262
REMARK UNBOUND:                -0.261
REMARK  Name = /home/anacleto/Desktop/manuscript_Mpro/naturecomm/supplementary_file_S2/6-chemical-library/molecular_docking/3D_ligand_structure/777.pdb
REMARK  2 active torsions:
REMARK  status: ('A' for Active; 'I' for Inactive)
REMARK    1  A    between atoms: C3_5  and  C4_6
REMARK    2  A    between atoms: N3_8  and  C5_9
REMARK                            x       y       z     vdW  Elec       q    Type
REMARK                         _______ _______ _______ _____ _____    ______ ____
ROOT
ATOM      1  C4  UNL     1      18.934   7.653  13.010  0.00  0.00    +0.000 C 
ATOM      2  O1  UNL     1      19.922   8.153  13.534  0.00  0.00    +0.000 OA
ATOM      3  N3  UNL     1      18.929   7.222  11.696  0.00  0.00    +0.000 N 
ATOM      4  H4  UNL     1      18.218   6.560  11.426  0.00  0.00    +0.000 HD
ENDROOT
BRANCH   3   5
ATOM      5  C5  UNL     1      20.143   7.255  10.881  0.00  0.00    +0.000 C 
ATOM      6  C6  UNL     1      20.927   5.932  10.954  0.00  0.00    +0.000 C 
ATOM      7  C7  UNL     1      20.144   4.693  10.521  0.00  0.00    +0.000 C 
ATOM      8  C8  UNL     1      20.151   4.407   9.023  0.00  0.00    +0.000 C 
ATOM      9  C9  UNL     1      20.046   5.603   8.083  0.00  0.00    +0.000 C 
ATOM     10  C10 UNL     1      19.115   6.717   8.551  0.00  0.00    +0.000 C 
ATOM     11  C11 UNL     1      19.815   7.728   9.460  0.00  0.00    +0.000 C 
ENDBRANCH   3   5
BRANCH   1  16
ATOM     12  N1  UNL     1      17.016   8.339  14.507  0.00  0.00    +0.000 N 
ATOM     13  C1  UNL     1      15.898   7.721  14.986  0.00  0.00    +0.000 A 
ATOM     14  N2  UNL     1      15.814   6.484  14.559  0.00  0.00    +0.000 NA
ATOM     15  C2  UNL     1      16.931   6.295  13.786  0.00  0.00    +0.000 A 
ATOM     16  C3  UNL     1      17.693   7.446  13.710  0.00  0.00    +0.000 A 
ATOM     17  H1  UNL     1      17.316   9.274  14.741  0.00  0.00    +0.000 HD
ENDBRANCH   1  16
TORSDOF 2
ENDMDL
MODEL 3
REMARK VINA RESULT:    -4.843      3.456      5.969
REMARK INTER + INTRA:          -5.670
REMARK INTER:                  -5.422
REMARK INTRA:                  -0.248
REMARK UNBOUND:                -0.261
REMARK  Name = /home/anacleto/Desktop/manuscript_Mpro/naturecomm/supplementary_file_S2/6-chemical-library/molecular_docking/3D_ligand_structure/777.pdb
REMARK  2 active torsions:
REMARK  status: ('A' for Active; 'I' for Inactive)
REMARK    1  A    between atoms: C3_5  and  C4_6
REMARK    2  A    between atoms: N3_8  and  C5_9
REMARK                            x       y       z     vdW  Elec       q    Type
REMARK                         _______ _______ _______ _____ _____    ______ ____
ROOT
ATOM      1  C4  UNL     1      15.689  11.783  -2.001  0.00  0.00    +0.000 C 
ATOM      2  O1  UNL     1      15.651  10.877  -1.177  0.00  0.00    +0.000 OA
ATOM      3  N3  UNL     1      16.387  12.957  -1.781  0.00  0.00    +0.000 N 
ATOM      4  H4  UNL     1      16.630  13.510  -2.587  0.00  0.00    +0.000 HD
ENDROOT
BRANCH   3   5
ATOM      5  C5  UNL     1      17.203  13.143  -0.582  0.00  0.00    +0.000 C 
ATOM      6  C6  UNL     1      18.613  12.549  -0.742  0.00  0.00    +0.000 C 
ATOM      7  C7  UNL     1      19.421  13.110  -1.911  0.00  0.00    +0.000 C 
ATOM      8  C8  UNL     1      20.189  14.395  -1.617  0.00  0.00    +0.000 C 
ATOM      9  C9  UNL     1      19.499  15.437  -0.744  0.00  0.00    +0.000 C 
ATOM     10  C10 UNL     1      17.999  15.589  -0.976  0.00  0.00    +0.000 C 
ATOM     11  C11 UNL     1      17.171  14.611  -0.142  0.00  0.00    +0.000 C 
ENDBRANCH   3   5
BRANCH   1  16
ATOM     12  N1  UNL     1      14.554  10.589  -3.918  0.00  0.00    +0.000 N 
ATOM     13  C1  UNL     1      14.023  10.974  -5.115  0.00  0.00    +0.000 A 
ATOM     14  N2  UNL     1      14.136  12.267  -5.295  0.00  0.00    +0.000 NA
ATOM     15  C2  UNL     1      14.778  12.731  -4.175  0.00  0.00    +0.000 A 
ATOM     16  C3  UNL     1      15.031  11.709  -3.279  0.00  0.00    +0.000 A 
ATOM     17  H1  UNL     1      14.627   9.638  -3.587  0.00  0.00    +0.000 HD
ENDBRANCH   1  16
TORSDOF 2
ENDMDL
MODEL 4
REMARK VINA RESULT:    -4.607     16.099     17.104
REMARK INTER + INTRA:          -5.407
REMARK INTER:                  -5.155
REMARK INTRA:                  -0.253
REMARK UNBOUND:                -0.261
REMARK  Name = /home/anacleto/Desktop/manuscript_Mpro/naturecomm/supplementary_file_S2/6-chemical-library/molecular_docking/3D_ligand_structure/777.pdb
REMARK  2 active torsions:
REMARK  status: ('A' for Active; 'I' for Inactive)
REMARK    1  A    between atoms: C3_5  and  C4_6
REMARK    2  A    between atoms: N3_8  and  C5_9
REMARK                            x       y       z     vdW  Elec       q    Type
REMARK                         _______ _______ _______ _____ _____    ______ ____
ROOT
ATOM      1  C4  UNL     1      18.755   3.724   9.429  0.00  0.00    +0.000 C 
ATOM      2  O1  UNL     1      19.698   2.956   9.582  0.00  0.00    +0.000 OA
ATOM      3  N3  UNL     1      17.442   3.292   9.402  0.00  0.00    +0.000 N 
ATOM      4  H4  UNL     1      16.724   3.976   9.581  0.00  0.00    +0.000 HD
ENDROOT
BRANCH   3   5
ATOM      5  C5  UNL     1      17.097   1.892   9.651  0.00  0.00    +0.000 C 
ATOM      6  C6  UNL     1      15.943   1.750  10.659  0.00  0.00    +0.000 C 
ATOM      7  C7  UNL     1      14.648   2.455  10.261  0.00  0.00    +0.000 C 
ATOM      8  C8  UNL     1      13.719   1.652   9.357  0.00  0.00    +0.000 C 
ATOM      9  C9  UNL     1      14.365   0.813   8.260  0.00  0.00    +0.000 C 
ATOM     10  C10 UNL     1      15.577   1.448   7.586  0.00  0.00    +0.000 C 
ATOM     11  C11 UNL     1      16.884   1.155   8.324  0.00  0.00    +0.000 C 
ENDBRANCH   3   5
BRANCH   1  16
ATOM     12  N1  UNL     1      18.826   5.893   8.132  0.00  0.00    +0.000 N 
ATOM     13  C1  UNL     1      19.070   7.198   8.447  0.00  0.00    +0.000 A 
ATOM     14  N2  UNL     1      19.326   7.341   9.725  0.00  0.00    +0.000 NA
ATOM     15  C2  UNL     1      19.257   6.076  10.250  0.00  0.00    +0.000 A 
ATOM     16  C3  UNL     1      18.919   5.147   9.283  0.00  0.00    +0.000 A 
ATOM     17  H1  UNL     1      18.656   5.536   7.203  0.00  0.00    +0.000 HD
ENDBRANCH   1  16
TORSDOF 2
ENDMDL
MODEL 5
REMARK VINA RESULT:    -4.562      2.350      2.833
REMARK INTER + INTRA:          -5.357
REMARK INTER:                  -5.091
REMARK INTRA:                  -0.265
REMARK UNBOUND:                -0.261
REMARK  Name = /home/anacleto/Desktop/manuscript_Mpro/naturecomm/supplementary_file_S2/6-chemical-library/molecular_docking/3D_ligand_structure/777.pdb
REMARK  2 active torsions:
REMARK  status: ('A' for Active; 'I' for Inactive)
REMARK    1  A    between atoms: C3_5  and  C4_6
REMARK    2  A    between atoms: N3_8  and  C5_9
REMARK                            x       y       z     vdW  Elec       q    Type
REMARK                         _______ _______ _______ _____ _____    ______ ____
ROOT
ATOM      1  C4  UNL     1      16.239  12.376  -1.813  0.00  0.00    +0.000 C 
ATOM      2  O1  UNL     1      16.174  11.350  -1.145  0.00  0.00    +0.000 OA
ATOM      3  N3  UNL     1      16.161  12.368  -3.193  0.00  0.00    +0.000 N 
ATOM      4  H4  UNL     1      15.916  13.233  -3.650  0.00  0.00    +0.000 HD
ENDROOT
BRANCH   3   5
ATOM      5  C5  UNL     1      15.901  11.134  -3.934  0.00  0.00    +0.000 C 
ATOM      6  C6  UNL     1      14.427  11.015  -4.363  0.00  0.00    +0.000 C 
ATOM      7  C7  UNL     1      13.914  12.162  -5.231  0.00  0.00    +0.000 C 
ATOM      8  C8  UNL     1      14.175  12.016  -6.727  0.00  0.00    +0.000 C 
ATOM      9  C9  UNL     1      15.520  11.434  -7.147  0.00  0.00    +0.000 C 
ATOM     10  C10 UNL     1      16.709  11.867  -6.296  0.00  0.00    +0.000 C 
ATOM     11  C11 UNL     1      16.915  10.974  -5.072  0.00  0.00    +0.000 C 
ENDBRANCH   3   5
BRANCH   1  16
ATOM     12  N1  UNL     1      17.130  14.041  -0.132  0.00  0.00    +0.000 N 
ATOM     13  C1  UNL     1      16.963  15.378   0.082  0.00  0.00    +0.000 A 
ATOM     14  N2  UNL     1      16.147  15.906  -0.799  0.00  0.00    +0.000 NA
ATOM     15  C2  UNL     1      15.764  14.863  -1.603  0.00  0.00    +0.000 A 
ATOM     16  C3  UNL     1      16.382  13.684  -1.230  0.00  0.00    +0.000 A 
ATOM     17  H1  UNL     1      17.671  13.417   0.448  0.00  0.00    +0.000 HD
ENDBRANCH   1  16
TORSDOF 2
ENDMDL
MODEL 6
REMARK VINA RESULT:    -4.560      2.366      5.601
REMARK INTER + INTRA:          -5.355
REMARK INTER:                  -5.101
REMARK INTRA:                  -0.254
REMARK UNBOUND:                -0.261
REMARK  Name = /home/anacleto/Desktop/manuscript_Mpro/naturecomm/supplementary_file_S2/6-chemical-library/molecular_docking/3D_ligand_structure/777.pdb
REMARK  2 active torsions:
REMARK  status: ('A' for Active; 'I' for Inactive)
REMARK    1  A    between atoms: C3_5  and  C4_6
REMARK    2  A    between atoms: N3_8  and  C5_9
REMARK                            x       y       z     vdW  Elec       q    Type
REMARK                         _______ _______ _______ _____ _____    ______ ____
ROOT
ATOM      1  C4  UNL     1      15.150  13.666  -4.975  0.00  0.00    +0.000 C 
ATOM      2  O1  UNL     1      15.652  14.232  -5.939  0.00  0.00    +0.000 OA
ATOM      3  N3  UNL     1      15.337  14.104  -3.677  0.00  0.00    +0.000 N 
ATOM      4  H4  UNL     1      14.672  13.799  -2.983  0.00  0.00    +0.000 HD
ENDROOT
BRANCH   3   5
ATOM      5  C5  UNL     1      16.075  15.333  -3.388  0.00  0.00    +0.000 C 
ATOM      6  C6  UNL     1      15.330  16.236  -2.388  0.00  0.00    +0.000 C 
ATOM      7  C7  UNL     1      15.019  15.586  -1.041  0.00  0.00    +0.000 C 
ATOM      8  C8  UNL     1      16.137  15.664  -0.006  0.00  0.00    +0.000 C 
ATOM      9  C9  UNL     1      17.565  15.476  -0.504  0.00  0.00    +0.000 C 
ATOM     10  C10 UNL     1      17.737  14.431  -1.602  0.00  0.00    +0.000 C 
ATOM     11  C11 UNL     1      17.521  15.005  -3.002  0.00  0.00    +0.000 C 
ENDBRANCH   3   5
BRANCH   1  16
ATOM     12  N1  UNL     1      13.074  12.423  -5.709  0.00  0.00    +0.000 N 
ATOM     13  C1  UNL     1      12.619  11.144  -5.576  0.00  0.00    +0.000 A 
ATOM     14  N2  UNL     1      13.469  10.400  -4.911  0.00  0.00    +0.000 NA
ATOM     15  C2  UNL     1      14.506  11.238  -4.591  0.00  0.00    +0.000 A 
ATOM     16  C3  UNL     1      14.304  12.508  -5.099  0.00  0.00    +0.000 A 
ATOM     17  H1  UNL     1      12.569  13.185  -6.139  0.00  0.00    +0.000 HD
ENDBRANCH   1  16
TORSDOF 2
ENDMDL
MODEL 7
REMARK VINA RESULT:    -4.526      4.280      7.015
REMARK INTER + INTRA:          -5.317
REMARK INTER:                  -5.056
REMARK INTRA:                  -0.261
REMARK UNBOUND:                -0.261
REMARK  Name = /home/anacleto/Desktop/manuscript_Mpro/naturecomm/supplementary_file_S2/6-chemical-library/molecular_docking/3D_ligand_structure/777.pdb
REMARK  2 active torsions:
REMARK  status: ('A' for Active; 'I' for Inactive)
REMARK    1  A    between atoms: C3_5  and  C4_6
REMARK    2  A    between atoms: N3_8  and  C5_9
REMARK                            x       y       z     vdW  Elec       q    Type
REMARK                         _______ _______ _______ _____ _____    ______ ____
ROOT
ATOM      1  C4  UNL     1      18.160  11.323  -6.827  0.00  0.00    +0.000 C 
ATOM      2  O1  UNL     1      18.530  12.463  -7.082  0.00  0.00    +0.000 OA
ATOM      3  N3  UNL     1      16.950  11.055  -6.214  0.00  0.00    +0.000 N 
ATOM      4  H4  UNL     1      16.576  10.124  -6.311  0.00  0.00    +0.000 HD
ENDROOT
BRANCH   3   5
ATOM      5  C5  UNL     1      15.995  12.122  -5.917  0.00  0.00    +0.000 C 
ATOM      6  C6  UNL     1      14.984  12.330  -7.059  0.00  0.00    +0.000 C 
ATOM      7  C7  UNL     1      14.160  11.096  -7.424  0.00  0.00    +0.000 C 
ATOM      8  C8  UNL     1      12.902  10.881  -6.590  0.00  0.00    +0.000 C 
ATOM      9  C9  UNL     1      12.993  11.183  -5.098  0.00  0.00    +0.000 C 
ATOM     10  C10 UNL     1      14.313  10.799  -4.437  0.00  0.00    +0.000 C 
ATOM     11  C11 UNL     1      15.366  11.903  -4.536  0.00  0.00    +0.000 C 
ENDBRANCH   3   5
BRANCH   1  16
ATOM     12  N1  UNL     1      18.859   9.389  -8.297  0.00  0.00    +0.000 N 
ATOM     13  C1  UNL     1      19.759   8.369  -8.186  0.00  0.00    +0.000 A 
ATOM     14  N2  UNL     1      20.402   8.421  -7.044  0.00  0.00    +0.000 NA
ATOM     15  C2  UNL     1      19.885   9.509  -6.390  0.00  0.00    +0.000 A 
ATOM     16  C3  UNL     1      18.934  10.155  -7.157  0.00  0.00    +0.000 A 
ATOM     17  H1  UNL     1      18.217   9.524  -9.064  0.00  0.00    +0.000 HD
ENDBRANCH   1  16
TORSDOF 2
ENDMDL
MODEL 8
REMARK VINA RESULT:    -4.465     17.643     19.417
REMARK INTER + INTRA:          -5.248
REMARK INTER:                  -4.995
REMARK INTRA:                  -0.253
REMARK UNBOUND:                -0.261
REMARK  Name = /home/anacleto/Desktop/manuscript_Mpro/naturecomm/supplementary_file_S2/6-chemical-library/molecular_docking/3D_ligand_structure/777.pdb
REMARK  2 active torsions:
REMARK  status: ('A' for Active; 'I' for Inactive)
REMARK    1  A    between atoms: C3_5  and  C4_6
REMARK    2  A    between atoms: N3_8  and  C5_9
REMARK                            x       y       z     vdW  Elec       q    Type
REMARK                         _______ _______ _______ _____ _____    ______ ____
ROOT
ATOM      1  C4  UNL     1      26.084  14.684   9.801  0.00  0.00    +0.000 C 
ATOM      2  O1  UNL     1      26.175  15.103   8.653  0.00  0.00    +0.000 OA
ATOM      3  N3  UNL     1      25.116  15.133  10.680  0.00  0.00    +0.000 N 
ATOM      4  H4  UNL     1      24.903  14.551  11.474  0.00  0.00    +0.000 HD
ENDROOT
BRANCH   3   5
ATOM      5  C5  UNL     1      24.079  16.073  10.255  0.00  0.00    +0.000 C 
ATOM      6  C6  UNL     1      22.683  15.663  10.756  0.00  0.00    +0.000 C 
ATOM      7  C7  UNL     1      22.555  15.530  12.272  0.00  0.00    +0.000 C 
ATOM      8  C8  UNL     1      22.247  16.824  13.018  0.00  0.00    +0.000 C 
ATOM      9  C9  UNL     1      22.940  18.092  12.532  0.00  0.00    +0.000 C 
ATOM     10  C10 UNL     1      24.384  17.908  12.075  0.00  0.00    +0.000 C 
ATOM     11  C11 UNL     1      24.489  17.509  10.602  0.00  0.00    +0.000 C 
ENDBRANCH   3   5
BRANCH   1  16
ATOM     12  N1  UNL     1      26.778  12.924  11.478  0.00  0.00    +0.000 N 
ATOM     13  C1  UNL     1      27.858  12.103  11.623  0.00  0.00    +0.000 A 
ATOM     14  N2  UNL     1      28.729  12.282  10.658  0.00  0.00    +0.000 NA
ATOM     15  C2  UNL     1      28.192  13.268   9.870  0.00  0.00    +0.000 A 
ATOM     16  C3  UNL     1      26.958  13.675  10.340  0.00  0.00    +0.000 A 
ATOM     17  H1  UNL     1      26.007  12.999  12.125  0.00  0.00    +0.000 HD
ENDBRANCH   1  16
TORSDOF 2
ENDMDL
MODEL 9
REMARK VINA RESULT:    -4.360      3.228      5.819
REMARK INTER + INTRA:          -5.131
REMARK INTER:                  -4.868
REMARK INTRA:                  -0.263
REMARK UNBOUND:                -0.261
REMARK  Name = /home/anacleto/Desktop/manuscript_Mpro/naturecomm/supplementary_file_S2/6-chemical-library/molecular_docking/3D_ligand_structure/777.pdb
REMARK  2 active torsions:
REMARK  status: ('A' for Active; 'I' for Inactive)
REMARK    1  A    between atoms: C3_5  and  C4_6
REMARK    2  A    between atoms: N3_8  and  C5_9
REMARK                            x       y       z     vdW  Elec       q    Type
REMARK                         _______ _______ _______ _____ _____    ______ ____
ROOT
ATOM      1  C4  UNL     1      16.353  12.599  -4.979  0.00  0.00    +0.000 C 
ATOM      2  O1  UNL     1      16.951  13.039  -5.954  0.00  0.00    +0.000 OA
ATOM      3  N3  UNL     1      16.846  12.712  -3.692  0.00  0.00    +0.000 N 
ATOM      4  H4  UNL     1      16.190  12.615  -2.933  0.00  0.00    +0.000 HD
ENDROOT
BRANCH   3   5
ATOM      5  C5  UNL     1      18.075  13.453  -3.411  0.00  0.00    +0.000 C 
ATOM      6  C6  UNL     1      17.792  14.832  -2.788  0.00  0.00    +0.000 C 
ATOM      7  C7  UNL     1      16.995  14.799  -1.485  0.00  0.00    +0.000 C 
ATOM      8  C8  UNL     1      17.820  14.595  -0.219  0.00  0.00    +0.000 C 
ATOM      9  C9  UNL     1      18.982  13.612  -0.295  0.00  0.00    +0.000 C 
ATOM     10  C10 UNL     1      18.726  12.367  -1.138  0.00  0.00    +0.000 C 
ATOM     11  C11 UNL     1      19.052  12.578  -2.617  0.00  0.00    +0.000 C 
ENDBRANCH   3   5
BRANCH   1  16
ATOM     12  N1  UNL     1      14.757  10.658  -4.696  0.00  0.00    +0.000 N 
ATOM     13  C1  UNL     1      13.440  10.444  -4.980  0.00  0.00    +0.000 A 
ATOM     14  N2  UNL     1      12.890  11.501  -5.526  0.00  0.00    +0.000 NA
ATOM     15  C2  UNL     1      13.897  12.428  -5.609  0.00  0.00    +0.000 A 
ATOM     16  C3  UNL     1      15.075  11.942  -5.073  0.00  0.00    +0.000 A 
ATOM     17  H1  UNL     1      15.396   9.973  -4.320  0.00  0.00    +0.000 HD
ENDBRANCH   1  16
TORSDOF 2
ENDMDL
