MODEL 1
REMARK VINA RESULT:    -5.285      0.000      0.000
REMARK INTER + INTRA:          -6.144
REMARK INTER:                  -5.949
REMARK INTRA:                  -0.194
REMARK UNBOUND:                -0.240
REMARK  Name = /home/anacleto/Desktop/manuscript_Mpro/naturecomm/supplementary_file_S2/6-chemical-library/molecular_docking/3D_ligand_structure/962.pdb
REMARK  2 active torsions:
REMARK  status: ('A' for Active; 'I' for Inactive)
REMARK    1  A    between atoms: C2_5  and  C3_6
REMARK    2  A    between atoms: N4_8  and  C4_9
REMARK                            x       y       z     vdW  Elec       q    Type
REMARK                         _______ _______ _______ _____ _____    ______ ____
ROOT
ATOM      1  C3  UNL     1     -36.225  -1.917 -26.110  0.00  0.00    +0.000 C 
ATOM      2  O1  UNL     1     -37.155  -1.722 -25.336  0.00  0.00    +0.000 OA
ATOM      3  N4  UNL     1     -36.200  -1.589 -27.457  0.00  0.00    +0.000 N 
ATOM      4  H3  UNL     1     -35.327  -1.837 -27.918  0.00  0.00    +0.000 HD
ENDROOT
BRANCH   1   9
ATOM      5  N1  UNL     1     -33.829  -1.843 -25.443  0.00  0.00    +0.000 NA
ATOM      6  N2  UNL     1     -32.961  -2.810 -25.094  0.00  0.00    +0.000 N 
ATOM      7  C1  UNL     1     -33.544  -4.035 -25.125  0.00  0.00    +0.000 A 
ATOM      8  N3  UNL     1     -34.795  -3.914 -25.491  0.00  0.00    +0.000 NA
ATOM      9  C2  UNL     1     -34.955  -2.556 -25.683  0.00  0.00    +0.000 A 
ATOM     10  H1  UNL     1     -32.008  -2.564 -24.852  0.00  0.00    +0.000 HD
ENDBRANCH   1   9
BRANCH   3  11
ATOM     11  C4  UNL     1     -37.199  -0.976 -28.231  0.00  0.00    +0.000 A 
ATOM     12  C5  UNL     1     -38.316  -1.752 -28.561  0.00  0.00    +0.000 A 
ATOM     13  C6  UNL     1     -39.355  -1.216 -29.327  0.00  0.00    +0.000 A 
ATOM     14  C7  UNL     1     -39.285   0.101 -29.770  0.00  0.00    +0.000 A 
ATOM     15  C8  UNL     1     -38.177   0.880 -29.447  0.00  0.00    +0.000 A 
ATOM     16  C9  UNL     1     -37.136   0.345 -28.679  0.00  0.00    +0.000 A 
ENDBRANCH   3  11
TORSDOF 2
ENDMDL
MODEL 2
REMARK VINA RESULT:    -4.742     18.220     19.118
REMARK INTER + INTRA:          -5.537
REMARK INTER:                  -5.291
REMARK INTRA:                  -0.246
REMARK UNBOUND:                -0.240
REMARK  Name = /home/anacleto/Desktop/manuscript_Mpro/naturecomm/supplementary_file_S2/6-chemical-library/molecular_docking/3D_ligand_structure/962.pdb
REMARK  2 active torsions:
REMARK  status: ('A' for Active; 'I' for Inactive)
REMARK    1  A    between atoms: C2_5  and  C3_6
REMARK    2  A    between atoms: N4_8  and  C4_9
REMARK                            x       y       z     vdW  Elec       q    Type
REMARK                         _______ _______ _______ _____ _____    ______ ____
ROOT
ATOM      1  C3  UNL     1     -23.230   6.748 -38.243  0.00  0.00    +0.000 C 
ATOM      2  O1  UNL     1     -22.212   6.081 -38.092  0.00  0.00    +0.000 OA
ATOM      3  N4  UNL     1     -24.399   6.327 -38.861  0.00  0.00    +0.000 N 
ATOM      4  H3  UNL     1     -25.125   7.039 -38.879  0.00  0.00    +0.000 HD
ENDROOT
BRANCH   1   9
ATOM      5  N1  UNL     1     -24.534   8.782 -37.652  0.00  0.00    +0.000 NA
ATOM      6  N2  UNL     1     -24.159   9.990 -37.192  0.00  0.00    +0.000 N 
ATOM      7  C1  UNL     1     -22.813  10.066 -37.037  0.00  0.00    +0.000 A 
ATOM      8  N3  UNL     1     -22.268   8.928 -37.386  0.00  0.00    +0.000 NA
ATOM      9  C2  UNL     1     -23.344   8.147 -37.762  0.00  0.00    +0.000 A 
ATOM     10  H1  UNL     1     -24.862  10.697 -37.011  0.00  0.00    +0.000 HD
ENDBRANCH   1   9
BRANCH   3  11
ATOM     11  C4  UNL     1     -24.686   5.081 -39.442  0.00  0.00    +0.000 A 
ATOM     12  C5  UNL     1     -25.235   4.100 -38.608  0.00  0.00    +0.000 A 
ATOM     13  C6  UNL     1     -25.550   2.834 -39.108  0.00  0.00    +0.000 A 
ATOM     14  C7  UNL     1     -25.319   2.538 -40.447  0.00  0.00    +0.000 A 
ATOM     15  C8  UNL     1     -24.774   3.508 -41.284  0.00  0.00    +0.000 A 
ATOM     16  C9  UNL     1     -24.458   4.776 -40.785  0.00  0.00    +0.000 A 
ENDBRANCH   3  11
TORSDOF 2
ENDMDL
MODEL 3
REMARK VINA RESULT:    -4.670     17.394     18.419
REMARK INTER + INTRA:          -5.456
REMARK INTER:                  -5.226
REMARK INTRA:                  -0.230
REMARK UNBOUND:                -0.240
REMARK  Name = /home/anacleto/Desktop/manuscript_Mpro/naturecomm/supplementary_file_S2/6-chemical-library/molecular_docking/3D_ligand_structure/962.pdb
REMARK  2 active torsions:
REMARK  status: ('A' for Active; 'I' for Inactive)
REMARK    1  A    between atoms: C2_5  and  C3_6
REMARK    2  A    between atoms: N4_8  and  C4_9
REMARK                            x       y       z     vdW  Elec       q    Type
REMARK                         _______ _______ _______ _____ _____    ______ ____
ROOT
ATOM      1  C3  UNL     1     -24.919   4.581 -39.129  0.00  0.00    +0.000 C 
ATOM      2  O1  UNL     1     -24.562   4.649 -40.301  0.00  0.00    +0.000 OA
ATOM      3  N4  UNL     1     -24.410   5.325 -38.075  0.00  0.00    +0.000 N 
ATOM      4  H3  UNL     1     -24.848   5.113 -37.182  0.00  0.00    +0.000 HD
ENDROOT
BRANCH   1   9
ATOM      5  N1  UNL     1     -25.713   2.482 -38.055  0.00  0.00    +0.000 NA
ATOM      6  N2  UNL     1     -26.947   1.995 -37.834  0.00  0.00    +0.000 N 
ATOM      7  C1  UNL     1     -27.904   2.836 -38.299  0.00  0.00    +0.000 A 
ATOM      8  N3  UNL     1     -27.337   3.889 -38.833  0.00  0.00    +0.000 NA
ATOM      9  C2  UNL     1     -25.986   3.654 -38.674  0.00  0.00    +0.000 A 
ATOM     10  H1  UNL     1     -27.057   1.100 -37.371  0.00  0.00    +0.000 HD
ENDBRANCH   1   9
BRANCH   3  11
ATOM     11  C4  UNL     1     -23.399   6.300 -38.096  0.00  0.00    +0.000 A 
ATOM     12  C5  UNL     1     -23.803   7.634 -38.234  0.00  0.00    +0.000 A 
ATOM     13  C6  UNL     1     -22.860   8.665 -38.263  0.00  0.00    +0.000 A 
ATOM     14  C7  UNL     1     -21.505   8.371 -38.154  0.00  0.00    +0.000 A 
ATOM     15  C8  UNL     1     -21.094   7.047 -38.016  0.00  0.00    +0.000 A 
ATOM     16  C9  UNL     1     -22.038   6.014 -37.987  0.00  0.00    +0.000 A 
ENDBRANCH   3  11
TORSDOF 2
ENDMDL
MODEL 4
REMARK VINA RESULT:    -4.510     17.035     17.741
REMARK INTER + INTRA:          -5.278
REMARK INTER:                  -5.050
REMARK INTRA:                  -0.227
REMARK UNBOUND:                -0.240
REMARK  Name = /home/anacleto/Desktop/manuscript_Mpro/naturecomm/supplementary_file_S2/6-chemical-library/molecular_docking/3D_ligand_structure/962.pdb
REMARK  2 active torsions:
REMARK  status: ('A' for Active; 'I' for Inactive)
REMARK    1  A    between atoms: C2_5  and  C3_6
REMARK    2  A    between atoms: N4_8  and  C4_9
REMARK                            x       y       z     vdW  Elec       q    Type
REMARK                         _______ _______ _______ _____ _____    ______ ____
ROOT
ATOM      1  C3  UNL     1     -19.787  -4.839 -26.831  0.00  0.00    +0.000 C 
ATOM      2  O1  UNL     1     -21.014  -4.827 -26.829  0.00  0.00    +0.000 OA
ATOM      3  N4  UNL     1     -18.976  -5.306 -27.854  0.00  0.00    +0.000 N 
ATOM      4  H3  UNL     1     -17.982  -5.223 -27.652  0.00  0.00    +0.000 HD
ENDROOT
BRANCH   1   9
ATOM      5  N1  UNL     1     -19.484  -4.245 -24.434  0.00  0.00    +0.000 NA
ATOM      6  N2  UNL     1     -18.434  -3.748 -23.756  0.00  0.00    +0.000 N 
ATOM      7  C1  UNL     1     -17.366  -3.550 -24.569  0.00  0.00    +0.000 A 
ATOM      8  N3  UNL     1     -17.675  -3.905 -25.791  0.00  0.00    +0.000 NA
ATOM      9  C2  UNL     1     -18.985  -4.332 -25.690  0.00  0.00    +0.000 A 
ATOM     10  H1  UNL     1     -18.518  -3.573 -22.761  0.00  0.00    +0.000 HD
ENDBRANCH   1   9
BRANCH   3  11
ATOM     11  C4  UNL     1     -19.350  -5.859 -29.090  0.00  0.00    +0.000 A 
ATOM     12  C5  UNL     1     -19.134  -7.230 -29.267  0.00  0.00    +0.000 A 
ATOM     13  C6  UNL     1     -19.480  -7.858 -30.467  0.00  0.00    +0.000 A 
ATOM     14  C7  UNL     1     -20.044  -7.117 -31.501  0.00  0.00    +0.000 A 
ATOM     15  C8  UNL     1     -20.262  -5.752 -31.334  0.00  0.00    +0.000 A 
ATOM     16  C9  UNL     1     -19.917  -5.123 -30.132  0.00  0.00    +0.000 A 
ENDBRANCH   3  11
TORSDOF 2
ENDMDL
MODEL 5
REMARK VINA RESULT:    -4.462     17.692     18.490
REMARK INTER + INTRA:          -5.224
REMARK INTER:                  -4.996
REMARK INTRA:                  -0.228
REMARK UNBOUND:                -0.240
REMARK  Name = /home/anacleto/Desktop/manuscript_Mpro/naturecomm/supplementary_file_S2/6-chemical-library/molecular_docking/3D_ligand_structure/962.pdb
REMARK  2 active torsions:
REMARK  status: ('A' for Active; 'I' for Inactive)
REMARK    1  A    between atoms: C2_5  and  C3_6
REMARK    2  A    between atoms: N4_8  and  C4_9
REMARK                            x       y       z     vdW  Elec       q    Type
REMARK                         _______ _______ _______ _____ _____    ______ ____
ROOT
ATOM      1  C3  UNL     1     -23.781   5.672 -39.643  0.00  0.00    +0.000 C 
ATOM      2  O1  UNL     1     -24.089   5.599 -40.828  0.00  0.00    +0.000 OA
ATOM      3  N4  UNL     1     -24.496   5.143 -38.578  0.00  0.00    +0.000 N 
ATOM      4  H3  UNL     1     -24.062   5.315 -37.674  0.00  0.00    +0.000 HD
ENDROOT
BRANCH   1   9
ATOM      5  N1  UNL     1     -21.885   5.990 -38.064  0.00  0.00    +0.000 NA
ATOM      6  N2  UNL     1     -20.870   6.873 -38.043  0.00  0.00    +0.000 N 
ATOM      7  C1  UNL     1     -20.933   7.728 -39.095  0.00  0.00    +0.000 A 
ATOM      8  N3  UNL     1     -21.976   7.439 -39.831  0.00  0.00    +0.000 NA
ATOM      9  C2  UNL     1     -22.552   6.364 -39.181  0.00  0.00    +0.000 A 
ATOM     10  H1  UNL     1     -20.187   6.833 -37.295  0.00  0.00    +0.000 HD
ENDBRANCH   1   9
BRANCH   3  11
ATOM     11  C4  UNL     1     -25.701   4.422 -38.601  0.00  0.00    +0.000 A 
ATOM     12  C5  UNL     1     -25.633   3.056 -38.302  0.00  0.00    +0.000 A 
ATOM     13  C6  UNL     1     -26.788   2.268 -38.302  0.00  0.00    +0.000 A 
ATOM     14  C7  UNL     1     -28.020   2.840 -38.602  0.00  0.00    +0.000 A 
ATOM     15  C8  UNL     1     -28.097   4.198 -38.901  0.00  0.00    +0.000 A 
ATOM     16  C9  UNL     1     -26.942   4.988 -38.900  0.00  0.00    +0.000 A 
ENDBRANCH   3  11
TORSDOF 2
ENDMDL
MODEL 6
REMARK VINA RESULT:    -4.422     10.613     13.879
REMARK INTER + INTRA:          -5.179
REMARK INTER:                  -4.932
REMARK INTRA:                  -0.247
REMARK UNBOUND:                -0.240
REMARK  Name = /home/anacleto/Desktop/manuscript_Mpro/naturecomm/supplementary_file_S2/6-chemical-library/molecular_docking/3D_ligand_structure/962.pdb
REMARK  2 active torsions:
REMARK  status: ('A' for Active; 'I' for Inactive)
REMARK    1  A    between atoms: C2_5  and  C3_6
REMARK    2  A    between atoms: N4_8  and  C4_9
REMARK                            x       y       z     vdW  Elec       q    Type
REMARK                         _______ _______ _______ _____ _____    ______ ____
ROOT
ATOM      1  C3  UNL     1     -24.683  -3.783 -28.514  0.00  0.00    +0.000 C 
ATOM      2  O1  UNL     1     -24.228  -2.969 -29.311  0.00  0.00    +0.000 OA
ATOM      3  N4  UNL     1     -23.967  -4.771 -27.856  0.00  0.00    +0.000 N 
ATOM      4  H3  UNL     1     -24.538  -5.339 -27.235  0.00  0.00    +0.000 HD
ENDROOT
BRANCH   1   9
ATOM      5  N1  UNL     1     -27.031  -2.981 -28.695  0.00  0.00    +0.000 NA
ATOM      6  N2  UNL     1     -28.161  -3.354 -28.068  0.00  0.00    +0.000 N 
ATOM      7  C1  UNL     1     -27.930  -4.356 -27.183  0.00  0.00    +0.000 A 
ATOM      8  N3  UNL     1     -26.658  -4.668 -27.199  0.00  0.00    +0.000 NA
ATOM      9  C2  UNL     1     -26.118  -3.810 -28.137  0.00  0.00    +0.000 A 
ATOM     10  H1  UNL     1     -29.034  -2.891 -28.291  0.00  0.00    +0.000 HD
ENDBRANCH   1   9
BRANCH   3  11
ATOM     11  C4  UNL     1     -22.596  -5.068 -27.941  0.00  0.00    +0.000 A 
ATOM     12  C5  UNL     1     -21.775  -4.594 -26.911  0.00  0.00    +0.000 A 
ATOM     13  C6  UNL     1     -20.401  -4.847 -26.921  0.00  0.00    +0.000 A 
ATOM     14  C7  UNL     1     -19.836  -5.576 -27.962  0.00  0.00    +0.000 A 
ATOM     15  C8  UNL     1     -20.644  -6.051 -28.991  0.00  0.00    +0.000 A 
ATOM     16  C9  UNL     1     -22.021  -5.798 -28.982  0.00  0.00    +0.000 A 
ENDBRANCH   3  11
TORSDOF 2
ENDMDL
MODEL 7
REMARK VINA RESULT:    -4.350     10.973     13.395
REMARK INTER + INTRA:          -5.099
REMARK INTER:                  -4.880
REMARK INTRA:                  -0.219
REMARK UNBOUND:                -0.240
REMARK  Name = /home/anacleto/Desktop/manuscript_Mpro/naturecomm/supplementary_file_S2/6-chemical-library/molecular_docking/3D_ligand_structure/962.pdb
REMARK  2 active torsions:
REMARK  status: ('A' for Active; 'I' for Inactive)
REMARK    1  A    between atoms: C2_5  and  C3_6
REMARK    2  A    between atoms: N4_8  and  C4_9
REMARK                            x       y       z     vdW  Elec       q    Type
REMARK                         _______ _______ _______ _____ _____    ______ ____
ROOT
ATOM      1  C3  UNL     1     -22.725  -4.731 -28.405  0.00  0.00    +0.000 C 
ATOM      2  O1  UNL     1     -23.024  -5.353 -29.418  0.00  0.00    +0.000 OA
ATOM      3  N4  UNL     1     -23.611  -4.117 -27.531  0.00  0.00    +0.000 N 
ATOM      4  H3  UNL     1     -23.153  -3.654 -26.750  0.00  0.00    +0.000 HD
ENDROOT
BRANCH   1   9
ATOM      5  N1  UNL     1     -20.367  -4.032 -28.781  0.00  0.00    +0.000 NA
ATOM      6  N2  UNL     1     -19.283  -4.056 -27.984  0.00  0.00    +0.000 N 
ATOM      7  C1  UNL     1     -19.577  -4.561 -26.760  0.00  0.00    +0.000 A 
ATOM      8  N3  UNL     1     -20.846  -4.882 -26.713  0.00  0.00    +0.000 NA
ATOM      9  C2  UNL     1     -21.318  -4.549 -27.968  0.00  0.00    +0.000 A 
ATOM     10  H1  UNL     1     -18.396  -3.718 -28.337  0.00  0.00    +0.000 HD
ENDBRANCH   1   9
BRANCH   3  11
ATOM     11  C4  UNL     1     -25.013  -4.064 -27.595  0.00  0.00    +0.000 A 
ATOM     12  C5  UNL     1     -25.724  -4.805 -26.644  0.00  0.00    +0.000 A 
ATOM     13  C6  UNL     1     -27.121  -4.805 -26.639  0.00  0.00    +0.000 A 
ATOM     14  C7  UNL     1     -27.820  -4.063 -27.586  0.00  0.00    +0.000 A 
ATOM     15  C8  UNL     1     -27.122  -3.324 -28.536  0.00  0.00    +0.000 A 
ATOM     16  C9  UNL     1     -25.722  -3.323 -28.542  0.00  0.00    +0.000 A 
ENDBRANCH   3  11
TORSDOF 2
ENDMDL
MODEL 8
REMARK VINA RESULT:    -4.313     14.389     16.117
REMARK INTER + INTRA:          -5.058
REMARK INTER:                  -4.837
REMARK INTRA:                  -0.221
REMARK UNBOUND:                -0.240
REMARK  Name = /home/anacleto/Desktop/manuscript_Mpro/naturecomm/supplementary_file_S2/6-chemical-library/molecular_docking/3D_ligand_structure/962.pdb
REMARK  2 active torsions:
REMARK  status: ('A' for Active; 'I' for Inactive)
REMARK    1  A    between atoms: C2_5  and  C3_6
REMARK    2  A    between atoms: N4_8  and  C4_9
REMARK                            x       y       z     vdW  Elec       q    Type
REMARK                         _______ _______ _______ _____ _____    ______ ____
ROOT
ATOM      1  C3  UNL     1     -33.038  12.622 -34.543  0.00  0.00    +0.000 C 
ATOM      2  O1  UNL     1     -33.892  12.870 -35.388  0.00  0.00    +0.000 OA
ATOM      3  N4  UNL     1     -33.268  12.121 -33.271  0.00  0.00    +0.000 N 
ATOM      4  H3  UNL     1     -32.417  11.986 -32.729  0.00  0.00    +0.000 HD
ENDROOT
BRANCH   1   9
ATOM      5  N1  UNL     1     -31.001  14.047 -34.651  0.00  0.00    +0.000 NA
ATOM      6  N2  UNL     1     -29.724  13.768 -34.968  0.00  0.00    +0.000 N 
ATOM      7  C1  UNL     1     -29.563  12.457 -35.278  0.00  0.00    +0.000 A 
ATOM      8  N3  UNL     1     -30.714  11.840 -35.178  0.00  0.00    +0.000 NA
ATOM      9  C2  UNL     1     -31.590  12.835 -34.790  0.00  0.00    +0.000 A 
ATOM     10  H1  UNL     1     -29.031  14.508 -34.950  0.00  0.00    +0.000 HD
ENDBRANCH   1   9
BRANCH   3  11
ATOM     11  C4  UNL     1     -34.491  11.789 -32.664  0.00  0.00    +0.000 A 
ATOM     12  C5  UNL     1     -34.966  12.654 -31.671  0.00  0.00    +0.000 A 
ATOM     13  C6  UNL     1     -36.175  12.395 -31.020  0.00  0.00    +0.000 A 
ATOM     14  C7  UNL     1     -36.920  11.270 -31.357  0.00  0.00    +0.000 A 
ATOM     15  C8  UNL     1     -36.455  10.404 -32.343  0.00  0.00    +0.000 A 
ATOM     16  C9  UNL     1     -35.244  10.662 -32.997  0.00  0.00    +0.000 A 
ENDBRANCH   3  11
TORSDOF 2
ENDMDL
MODEL 9
REMARK VINA RESULT:    -4.311     17.198     18.350
REMARK INTER + INTRA:          -5.055
REMARK INTER:                  -4.815
REMARK INTRA:                  -0.240
REMARK UNBOUND:                -0.240
REMARK  Name = /home/anacleto/Desktop/manuscript_Mpro/naturecomm/supplementary_file_S2/6-chemical-library/molecular_docking/3D_ligand_structure/962.pdb
REMARK  2 active torsions:
REMARK  status: ('A' for Active; 'I' for Inactive)
REMARK    1  A    between atoms: C2_5  and  C3_6
REMARK    2  A    between atoms: N4_8  and  C4_9
REMARK                            x       y       z     vdW  Elec       q    Type
REMARK                         _______ _______ _______ _____ _____    ______ ____
ROOT
ATOM      1  C3  UNL     1     -26.529   5.337 -39.383  0.00  0.00    +0.000 C 
ATOM      2  O1  UNL     1     -26.823   6.527 -39.355  0.00  0.00    +0.000 OA
ATOM      3  N4  UNL     1     -25.248   4.809 -39.323  0.00  0.00    +0.000 N 
ATOM      4  H3  UNL     1     -25.226   3.793 -39.361  0.00  0.00    +0.000 HD
ENDROOT
BRANCH   1   9
ATOM      5  N1  UNL     1     -28.837   4.450 -39.103  0.00  0.00    +0.000 NA
ATOM      6  N2  UNL     1     -29.379   3.249 -39.375  0.00  0.00    +0.000 N 
ATOM      7  C1  UNL     1     -28.462   2.397 -39.897  0.00  0.00    +0.000 A 
ATOM      8  N3  UNL     1     -27.303   3.001 -39.983  0.00  0.00    +0.000 NA
ATOM      9  C2  UNL     1     -27.553   4.267 -39.490  0.00  0.00    +0.000 A 
ATOM     10  H1  UNL     1     -30.361   3.088 -39.182  0.00  0.00    +0.000 HD
ENDBRANCH   1   9
BRANCH   3  11
ATOM     11  C4  UNL     1     -24.023   5.488 -39.219  0.00  0.00    +0.000 A 
ATOM     12  C5  UNL     1     -23.402   5.494 -37.965  0.00  0.00    +0.000 A 
ATOM     13  C6  UNL     1     -22.180   6.146 -37.777  0.00  0.00    +0.000 A 
ATOM     14  C7  UNL     1     -21.569   6.798 -38.843  0.00  0.00    +0.000 A 
ATOM     15  C8  UNL     1     -22.179   6.797 -40.095  0.00  0.00    +0.000 A 
ATOM     16  C9  UNL     1     -23.402   6.144 -40.284  0.00  0.00    +0.000 A 
ENDBRANCH   3  11
TORSDOF 2
ENDMDL
