MODEL 1
REMARK VINA RESULT:    -4.110      0.000      0.000
REMARK INTER + INTRA:          -4.526
REMARK INTER:                  -4.352
REMARK INTRA:                  -0.173
REMARK UNBOUND:                -0.175
REMARK  Name = /home/anacleto/Desktop/manuscript_Mpro/naturecomm/supplementary_file_S2/6-chemical-library/molecular_docking/3D_ligand_structure/1310.pdb
REMARK  1 active torsions:
REMARK  status: ('A' for Active; 'I' for Inactive)
REMARK    1  A    between atoms: N1_5  and  C5_6
REMARK                            x       y       z     vdW  Elec       q    Type
REMARK                         _______ _______ _______ _____ _____    ______ ____
ROOT
ATOM      1  C5  UNL     1     -24.576   4.946 -38.954  0.00  0.00    +0.000 A 
ATOM      2  C6  UNL     1     -24.271   5.438 -40.234  0.00  0.00    +0.000 A 
ATOM      3  C7  UNL     1     -23.172   6.275 -40.469  0.00  0.00    +0.000 A 
ATOM      4  C8  UNL     1     -22.342   6.646 -39.421  0.00  0.00    +0.000 A 
ATOM      5  C9  UNL     1     -22.613   6.178 -38.142  0.00  0.00    +0.000 A 
ATOM      6  C10 UNL     1     -23.714   5.341 -37.918  0.00  0.00    +0.000 A 
ENDROOT
BRANCH   1  11
ATOM      7  C1  UNL     1     -25.552   2.700 -38.419  0.00  0.00    +0.000 C 
ATOM      8  C2  UNL     1     -26.960   2.321 -37.965  0.00  0.00    +0.000 C 
ATOM      9  C3  UNL     1     -27.843   3.261 -38.769  0.00  0.00    +0.000 C 
ATOM     10  C4  UNL     1     -27.046   4.563 -38.772  0.00  0.00    +0.000 C 
ATOM     11  N1  UNL     1     -25.654   4.124 -38.729  0.00  0.00    +0.000 N 
ENDBRANCH   1  11
TORSDOF 1
ENDMDL
MODEL 2
REMARK VINA RESULT:    -4.067      0.779      4.633
REMARK INTER + INTRA:          -4.480
REMARK INTER:                  -4.305
REMARK INTRA:                  -0.175
REMARK UNBOUND:                -0.175
REMARK  Name = /home/anacleto/Desktop/manuscript_Mpro/naturecomm/supplementary_file_S2/6-chemical-library/molecular_docking/3D_ligand_structure/1310.pdb
REMARK  1 active torsions:
REMARK  status: ('A' for Active; 'I' for Inactive)
REMARK    1  A    between atoms: N1_5  and  C5_6
REMARK                            x       y       z     vdW  Elec       q    Type
REMARK                         _______ _______ _______ _____ _____    ______ ____
ROOT
ATOM      1  C5  UNL     1     -25.599   4.431 -38.768  0.00  0.00    +0.000 A 
ATOM      2  C6  UNL     1     -26.898   4.911 -39.008  0.00  0.00    +0.000 A 
ATOM      3  C7  UNL     1     -28.036   4.122 -38.792  0.00  0.00    +0.000 A 
ATOM      4  C8  UNL     1     -27.904   2.822 -38.325  0.00  0.00    +0.000 A 
ATOM      5  C9  UNL     1     -26.635   2.315 -38.076  0.00  0.00    +0.000 A 
ATOM      6  C10 UNL     1     -25.504   3.112 -38.296  0.00  0.00    +0.000 A 
ENDROOT
BRANCH   1  11
ATOM      7  C1  UNL     1     -24.036   5.659 -40.295  0.00  0.00    +0.000 C 
ATOM      8  C2  UNL     1     -22.978   6.713 -39.981  0.00  0.00    +0.000 C 
ATOM      9  C3  UNL     1     -22.386   6.224 -38.671  0.00  0.00    +0.000 C 
ATOM     10  C4  UNL     1     -23.604   5.690 -37.921  0.00  0.00    +0.000 C 
ATOM     11  N1  UNL     1     -24.486   5.210 -38.981  0.00  0.00    +0.000 N 
ENDBRANCH   1  11
TORSDOF 1
ENDMDL
MODEL 3
REMARK VINA RESULT:    -3.912      3.516      5.253
REMARK INTER + INTRA:          -4.316
REMARK INTER:                  -4.130
REMARK INTRA:                  -0.185
REMARK UNBOUND:                -0.175
REMARK  Name = /home/anacleto/Desktop/manuscript_Mpro/naturecomm/supplementary_file_S2/6-chemical-library/molecular_docking/3D_ligand_structure/1310.pdb
REMARK  1 active torsions:
REMARK  status: ('A' for Active; 'I' for Inactive)
REMARK    1  A    between atoms: N1_5  and  C5_6
REMARK                            x       y       z     vdW  Elec       q    Type
REMARK                         _______ _______ _______ _____ _____    ______ ____
ROOT
ATOM      1  C5  UNL     1     -20.694   8.311 -38.380  0.00  0.00    +0.000 A 
ATOM      2  C6  UNL     1     -19.483   7.768 -38.842  0.00  0.00    +0.000 A 
ATOM      3  C7  UNL     1     -18.315   8.533 -38.949  0.00  0.00    +0.000 A 
ATOM      4  C8  UNL     1     -18.326   9.874 -38.593  0.00  0.00    +0.000 A 
ATOM      5  C9  UNL     1     -19.504  10.445 -38.131  0.00  0.00    +0.000 A 
ATOM      6  C10 UNL     1     -20.668   9.671 -38.029  0.00  0.00    +0.000 A 
ENDROOT
BRANCH   1  11
ATOM      7  C1  UNL     1     -21.855   6.098 -38.192  0.00  0.00    +0.000 C 
ATOM      8  C2  UNL     1     -23.291   5.770 -37.791  0.00  0.00    +0.000 C 
ATOM      9  C3  UNL     1     -24.090   6.892 -38.431  0.00  0.00    +0.000 C 
ATOM     10  C4  UNL     1     -23.189   8.109 -38.239  0.00  0.00    +0.000 C 
ATOM     11  N1  UNL     1     -21.837   7.555 -38.277  0.00  0.00    +0.000 N 
ENDBRANCH   1  11
TORSDOF 1
ENDMDL
MODEL 4
REMARK VINA RESULT:    -3.899      2.785      4.671
REMARK INTER + INTRA:          -4.303
REMARK INTER:                  -4.133
REMARK INTRA:                  -0.169
REMARK UNBOUND:                -0.175
REMARK  Name = /home/anacleto/Desktop/manuscript_Mpro/naturecomm/supplementary_file_S2/6-chemical-library/molecular_docking/3D_ligand_structure/1310.pdb
REMARK  1 active torsions:
REMARK  status: ('A' for Active; 'I' for Inactive)
REMARK    1  A    between atoms: N1_5  and  C5_6
REMARK                            x       y       z     vdW  Elec       q    Type
REMARK                         _______ _______ _______ _____ _____    ______ ____
ROOT
ATOM      1  C5  UNL     1     -28.211   3.663 -39.209  0.00  0.00    +0.000 A 
ATOM      2  C6  UNL     1     -27.917   2.690 -38.238  0.00  0.00    +0.000 A 
ATOM      3  C7  UNL     1     -26.603   2.313 -37.934  0.00  0.00    +0.000 A 
ATOM      4  C8  UNL     1     -25.537   2.904 -38.598  0.00  0.00    +0.000 A 
ATOM      5  C9  UNL     1     -25.790   3.870 -39.563  0.00  0.00    +0.000 A 
ATOM      6  C10 UNL     1     -27.108   4.239 -39.860  0.00  0.00    +0.000 A 
ENDROOT
BRANCH   1  11
ATOM      7  C1  UNL     1     -30.321   4.901 -38.664  0.00  0.00    +0.000 C 
ATOM      8  C2  UNL     1     -31.518   5.243 -39.548  0.00  0.00    +0.000 C 
ATOM      9  C3  UNL     1     -31.674   4.001 -40.408  0.00  0.00    +0.000 C 
ATOM     10  C4  UNL     1     -30.231   3.596 -40.692  0.00  0.00    +0.000 C 
ATOM     11  N1  UNL     1     -29.503   4.030 -39.503  0.00  0.00    +0.000 N 
ENDBRANCH   1  11
TORSDOF 1
ENDMDL
MODEL 5
REMARK VINA RESULT:    -3.854     26.970     28.085
REMARK INTER + INTRA:          -4.254
REMARK INTER:                  -4.064
REMARK INTRA:                  -0.190
REMARK UNBOUND:                -0.175
REMARK  Name = /home/anacleto/Desktop/manuscript_Mpro/naturecomm/supplementary_file_S2/6-chemical-library/molecular_docking/3D_ligand_structure/1310.pdb
REMARK  1 active torsions:
REMARK  status: ('A' for Active; 'I' for Inactive)
REMARK    1  A    between atoms: N1_5  and  C5_6
REMARK                            x       y       z     vdW  Elec       q    Type
REMARK                         _______ _______ _______ _____ _____    ______ ____
ROOT
ATOM      1  C5  UNL     1     -38.595   6.882 -14.646  0.00  0.00    +0.000 A 
ATOM      2  C6  UNL     1     -37.591   7.515 -15.399  0.00  0.00    +0.000 A 
ATOM      3  C7  UNL     1     -37.678   8.862 -15.775  0.00  0.00    +0.000 A 
ATOM      4  C8  UNL     1     -38.780   9.619 -15.405  0.00  0.00    +0.000 A 
ATOM      5  C9  UNL     1     -39.792   9.027 -14.660  0.00  0.00    +0.000 A 
ATOM      6  C10 UNL     1     -39.696   7.679 -14.289  0.00  0.00    +0.000 A 
ENDROOT
BRANCH   1  11
ATOM      7  C1  UNL     1     -37.379   4.691 -14.607  0.00  0.00    +0.000 C 
ATOM      8  C2  UNL     1     -37.603   3.456 -13.739  0.00  0.00    +0.000 C 
ATOM      9  C3  UNL     1     -39.116   3.383 -13.632  0.00  0.00    +0.000 C 
ATOM     10  C4  UNL     1     -39.524   4.849 -13.513  0.00  0.00    +0.000 C 
ATOM     11  N1  UNL     1     -38.505   5.561 -14.279  0.00  0.00    +0.000 N 
ENDBRANCH   1  11
TORSDOF 1
ENDMDL
MODEL 6
REMARK VINA RESULT:    -3.849      2.406      3.819
REMARK INTER + INTRA:          -4.249
REMARK INTER:                  -4.080
REMARK INTRA:                  -0.169
REMARK UNBOUND:                -0.175
REMARK  Name = /home/anacleto/Desktop/manuscript_Mpro/naturecomm/supplementary_file_S2/6-chemical-library/molecular_docking/3D_ligand_structure/1310.pdb
REMARK  1 active torsions:
REMARK  status: ('A' for Active; 'I' for Inactive)
REMARK    1  A    between atoms: N1_5  and  C5_6
REMARK                            x       y       z     vdW  Elec       q    Type
REMARK                         _______ _______ _______ _____ _____    ______ ____
ROOT
ATOM      1  C5  UNL     1     -23.070   7.587 -38.178  0.00  0.00    +0.000 A 
ATOM      2  C6  UNL     1     -23.812   8.726 -37.818  0.00  0.00    +0.000 A 
ATOM      3  C7  UNL     1     -23.247   9.788 -37.102  0.00  0.00    +0.000 A 
ATOM      4  C8  UNL     1     -21.912   9.741 -36.723  0.00  0.00    +0.000 A 
ATOM      5  C9  UNL     1     -21.148   8.633 -37.062  0.00  0.00    +0.000 A 
ATOM      6  C10 UNL     1     -21.724   7.575 -37.778  0.00  0.00    +0.000 A 
ENDROOT
BRANCH   1  11
ATOM      7  C1  UNL     1     -23.864   6.562 -40.323  0.00  0.00    +0.000 C 
ATOM      8  C2  UNL     1     -24.201   5.110 -40.655  0.00  0.00    +0.000 C 
ATOM      9  C3  UNL     1     -24.877   4.617 -39.387  0.00  0.00    +0.000 C 
ATOM     10  C4  UNL     1     -24.068   5.290 -38.282  0.00  0.00    +0.000 C 
ATOM     11  N1  UNL     1     -23.630   6.548 -38.882  0.00  0.00    +0.000 N 
ENDBRANCH   1  11
TORSDOF 1
ENDMDL
MODEL 7
REMARK VINA RESULT:    -3.827      2.423      5.495
REMARK INTER + INTRA:          -4.225
REMARK INTER:                  -4.055
REMARK INTRA:                  -0.170
REMARK UNBOUND:                -0.175
REMARK  Name = /home/anacleto/Desktop/manuscript_Mpro/naturecomm/supplementary_file_S2/6-chemical-library/molecular_docking/3D_ligand_structure/1310.pdb
REMARK  1 active torsions:
REMARK  status: ('A' for Active; 'I' for Inactive)
REMARK    1  A    between atoms: N1_5  and  C5_6
REMARK                            x       y       z     vdW  Elec       q    Type
REMARK                         _______ _______ _______ _____ _____    ______ ____
ROOT
ATOM      1  C5  UNL     1     -28.861   4.265 -39.076  0.00  0.00    +0.000 A 
ATOM      2  C6  UNL     1     -29.610   3.773 -40.158  0.00  0.00    +0.000 A 
ATOM      3  C7  UNL     1     -30.956   4.114 -40.349  0.00  0.00    +0.000 A 
ATOM      4  C8  UNL     1     -31.593   4.963 -39.456  0.00  0.00    +0.000 A 
ATOM      5  C9  UNL     1     -30.884   5.468 -38.374  0.00  0.00    +0.000 A 
ATOM      6  C10 UNL     1     -29.539   5.121 -38.192  0.00  0.00    +0.000 A 
ENDROOT
BRANCH   1  11
ATOM      7  C1  UNL     1     -26.415   4.740 -39.347  0.00  0.00    +0.000 C 
ATOM      8  C2  UNL     1     -25.207   4.114 -38.654  0.00  0.00    +0.000 C 
ATOM      9  C3  UNL     1     -25.597   2.650 -38.545  0.00  0.00    +0.000 C 
ATOM     10  C4  UNL     1     -27.087   2.713 -38.223  0.00  0.00    +0.000 C 
ATOM     11  N1  UNL     1     -27.541   3.928 -38.893  0.00  0.00    +0.000 N 
ENDBRANCH   1  11
TORSDOF 1
ENDMDL
MODEL 8
REMARK VINA RESULT:    -3.777     14.581     15.969
REMARK INTER + INTRA:          -4.173
REMARK INTER:                  -3.998
REMARK INTRA:                  -0.175
REMARK UNBOUND:                -0.175
REMARK  Name = /home/anacleto/Desktop/manuscript_Mpro/naturecomm/supplementary_file_S2/6-chemical-library/molecular_docking/3D_ligand_structure/1310.pdb
REMARK  1 active torsions:
REMARK  status: ('A' for Active; 'I' for Inactive)
REMARK    1  A    between atoms: N1_5  and  C5_6
REMARK                            x       y       z     vdW  Elec       q    Type
REMARK                         _______ _______ _______ _____ _____    ______ ____
ROOT
ATOM      1  C5  UNL     1     -36.243  11.981 -31.484  0.00  0.00    +0.000 A 
ATOM      2  C6  UNL     1     -35.037  12.701 -31.487  0.00  0.00    +0.000 A 
ATOM      3  C7  UNL     1     -33.936  12.310 -32.261  0.00  0.00    +0.000 A 
ATOM      4  C8  UNL     1     -34.014  11.177 -33.059  0.00  0.00    +0.000 A 
ATOM      5  C9  UNL     1     -35.190  10.440 -33.081  0.00  0.00    +0.000 A 
ATOM      6  C10 UNL     1     -36.285  10.841 -32.303  0.00  0.00    +0.000 A 
ENDROOT
BRANCH   1  11
ATOM      7  C1  UNL     1     -38.071  11.479 -29.843  0.00  0.00    +0.000 C 
ATOM      8  C2  UNL     1     -38.939  12.425 -29.016  0.00  0.00    +0.000 C 
ATOM      9  C3  UNL     1     -39.195  13.577 -29.972  0.00  0.00    +0.000 C 
ATOM     10  C4  UNL     1     -37.860  13.727 -30.697  0.00  0.00    +0.000 C 
ATOM     11  N1  UNL     1     -37.320  12.370 -30.724  0.00  0.00    +0.000 N 
ENDBRANCH   1  11
TORSDOF 1
ENDMDL
MODEL 9
REMARK VINA RESULT:    -3.773      3.294      6.680
REMARK INTER + INTRA:          -4.168
REMARK INTER:                  -3.999
REMARK INTRA:                  -0.169
REMARK UNBOUND:                -0.175
REMARK  Name = /home/anacleto/Desktop/manuscript_Mpro/naturecomm/supplementary_file_S2/6-chemical-library/molecular_docking/3D_ligand_structure/1310.pdb
REMARK  1 active torsions:
REMARK  status: ('A' for Active; 'I' for Inactive)
REMARK    1  A    between atoms: N1_5  and  C5_6
REMARK                            x       y       z     vdW  Elec       q    Type
REMARK                         _______ _______ _______ _____ _____    ______ ____
ROOT
ATOM      1  C5  UNL     1     -21.481   7.294 -38.918  0.00  0.00    +0.000 A 
ATOM      2  C6  UNL     1     -21.892   6.488 -37.844  0.00  0.00    +0.000 A 
ATOM      3  C7  UNL     1     -23.042   5.690 -37.908  0.00  0.00    +0.000 A 
ATOM      4  C8  UNL     1     -23.817   5.677 -39.059  0.00  0.00    +0.000 A 
ATOM      5  C9  UNL     1     -23.441   6.461 -40.141  0.00  0.00    +0.000 A 
ATOM      6  C10 UNL     1     -22.289   7.256 -40.066  0.00  0.00    +0.000 A 
ENDROOT
BRANCH   1  11
ATOM      7  C1  UNL     1     -20.357   9.507 -38.568  0.00  0.00    +0.000 C 
ATOM      8  C2  UNL     1     -18.890   9.836 -38.302  0.00  0.00    +0.000 C 
ATOM      9  C3  UNL     1     -18.152   8.842 -39.182  0.00  0.00    +0.000 C 
ATOM     10  C4  UNL     1     -18.993   7.576 -39.053  0.00  0.00    +0.000 C 
ATOM     11  N1  UNL     1     -20.351   8.074 -38.850  0.00  0.00    +0.000 N 
ENDBRANCH   1  11
TORSDOF 1
ENDMDL
