MODEL 1
REMARK VINA RESULT:    -3.985      0.000      0.000
REMARK INTER + INTRA:          -3.985
REMARK INTER:                  -3.985
REMARK INTRA:                   0.000
REMARK UNBOUND:                 0.000
REMARK  Name = /home/anacleto/Desktop/manuscript_Mpro/naturecomm/supplementary_file_S2/6-chemical-library/molecular_docking/3D_ligand_structure/228.pdb
REMARK  0 active torsions:
REMARK  status: ('A' for Active; 'I' for Inactive)
REMARK                            x       y       z     vdW  Elec       q    Type
REMARK                         _______ _______ _______ _____ _____    ______ ____
ROOT
ATOM      1  C1  UNL     1     -21.797   7.738 -37.734  0.00  0.00    +0.000 C 
ATOM      2  C2  UNL     1     -22.991   8.688 -37.723  0.00  0.00    +0.000 C 
ATOM      3  C3  UNL     1     -22.687   9.881 -36.830  0.00  0.00    +0.000 C 
ATOM      4  N1  UNL     1     -21.486  10.590 -37.255  0.00  0.00    +0.000 N 
ATOM      5  C4  UNL     1     -20.454   9.867 -37.857  0.00  0.00    +0.000 A 
ATOM      6  C5  UNL     1     -20.541   8.486 -38.070  0.00  0.00    +0.000 A 
ATOM      7  C6  UNL     1     -19.264  10.514 -38.184  0.00  0.00    +0.000 A 
ATOM      8  C7  UNL     1     -18.222   9.771 -38.716  0.00  0.00    +0.000 A 
ATOM      9  N2  UNL     1     -18.280   8.442 -38.933  0.00  0.00    +0.000 NA
ATOM     10  C8  UNL     1     -19.436   7.829 -38.599  0.00  0.00    +0.000 A 
ATOM     11  H7  UNL     1     -21.648  11.496 -37.688  0.00  0.00    +0.000 HD
ENDROOT
TORSDOF 0
ENDMDL
MODEL 2
REMARK VINA RESULT:    -3.888     18.172     19.389
REMARK INTER + INTRA:          -3.888
REMARK INTER:                  -3.888
REMARK INTRA:                   0.000
REMARK UNBOUND:                 0.000
REMARK  Name = /home/anacleto/Desktop/manuscript_Mpro/naturecomm/supplementary_file_S2/6-chemical-library/molecular_docking/3D_ligand_structure/228.pdb
REMARK  0 active torsions:
REMARK  status: ('A' for Active; 'I' for Inactive)
REMARK                            x       y       z     vdW  Elec       q    Type
REMARK                         _______ _______ _______ _____ _____    ______ ____
ROOT
ATOM      1  C1  UNL     1     -27.035  -6.133 -25.353  0.00  0.00    +0.000 C 
ATOM      2  C2  UNL     1     -28.307  -6.956 -25.532  0.00  0.00    +0.000 C 
ATOM      3  C3  UNL     1     -29.499  -6.026 -25.697  0.00  0.00    +0.000 C 
ATOM      4  N1  UNL     1     -29.330  -5.115 -26.823  0.00  0.00    +0.000 N 
ATOM      5  C4  UNL     1     -28.041  -4.693 -27.159  0.00  0.00    +0.000 A 
ATOM      6  C5  UNL     1     -26.911  -5.122 -26.455  0.00  0.00    +0.000 A 
ATOM      7  C6  UNL     1     -27.872  -3.751 -28.173  0.00  0.00    +0.000 A 
ATOM      8  C7  UNL     1     -26.596  -3.287 -28.449  0.00  0.00    +0.000 A 
ATOM      9  N2  UNL     1     -25.490  -3.686 -27.788  0.00  0.00    +0.000 NA
ATOM     10  C8  UNL     1     -25.675  -4.589 -26.802  0.00  0.00    +0.000 A 
ATOM     11  H7  UNL     1     -29.913  -5.312 -27.632  0.00  0.00    +0.000 HD
ENDROOT
TORSDOF 0
ENDMDL
MODEL 3
REMARK VINA RESULT:    -3.876      1.390      3.556
REMARK INTER + INTRA:          -3.876
REMARK INTER:                  -3.876
REMARK INTRA:                   0.000
REMARK UNBOUND:                 0.000
REMARK  Name = /home/anacleto/Desktop/manuscript_Mpro/naturecomm/supplementary_file_S2/6-chemical-library/molecular_docking/3D_ligand_structure/228.pdb
REMARK  0 active torsions:
REMARK  status: ('A' for Active; 'I' for Inactive)
REMARK                            x       y       z     vdW  Elec       q    Type
REMARK                         _______ _______ _______ _____ _____    ______ ____
ROOT
ATOM      1  C1  UNL     1     -20.546   7.491 -39.464  0.00  0.00    +0.000 C 
ATOM      2  C2  UNL     1     -19.105   7.494 -38.964  0.00  0.00    +0.000 C 
ATOM      3  C3  UNL     1     -18.648   8.927 -38.732  0.00  0.00    +0.000 C 
ATOM      4  N1  UNL     1     -19.508   9.628 -37.786  0.00  0.00    +0.000 N 
ATOM      5  C4  UNL     1     -20.863   9.292 -37.729  0.00  0.00    +0.000 A 
ATOM      6  C5  UNL     1     -21.416   8.300 -38.547  0.00  0.00    +0.000 A 
ATOM      7  C6  UNL     1     -21.714  10.016 -36.897  0.00  0.00    +0.000 A 
ATOM      8  C7  UNL     1     -23.068   9.720 -36.903  0.00  0.00    +0.000 A 
ATOM      9  N2  UNL     1     -23.627   8.769 -37.678  0.00  0.00    +0.000 NA
ATOM     10  C8  UNL     1     -22.789   8.085 -38.487  0.00  0.00    +0.000 A 
ATOM     11  H7  UNL     1     -19.098   9.799 -36.871  0.00  0.00    +0.000 HD
ENDROOT
TORSDOF 0
ENDMDL
MODEL 4
REMARK VINA RESULT:    -3.799     14.135     15.858
REMARK INTER + INTRA:          -3.799
REMARK INTER:                  -3.799
REMARK INTRA:                   0.000
REMARK UNBOUND:                 0.000
REMARK  Name = /home/anacleto/Desktop/manuscript_Mpro/naturecomm/supplementary_file_S2/6-chemical-library/molecular_docking/3D_ligand_structure/228.pdb
REMARK  0 active torsions:
REMARK  status: ('A' for Active; 'I' for Inactive)
REMARK                            x       y       z     vdW  Elec       q    Type
REMARK                         _______ _______ _______ _____ _____    ______ ____
ROOT
ATOM      1  C1  UNL     1     -35.350  10.561 -32.941  0.00  0.00    +0.000 C 
ATOM      2  C2  UNL     1     -36.816  10.700 -32.544  0.00  0.00    +0.000 C 
ATOM      3  C3  UNL     1     -36.912  11.121 -31.085  0.00  0.00    +0.000 C 
ATOM      4  N1  UNL     1     -36.203  12.368 -30.827  0.00  0.00    +0.000 N 
ATOM      5  C4  UNL     1     -35.066  12.665 -31.583  0.00  0.00    +0.000 A 
ATOM      6  C5  UNL     1     -34.594  11.806 -32.582  0.00  0.00    +0.000 A 
ATOM      7  C6  UNL     1     -34.325  13.807 -31.286  0.00  0.00    +0.000 A 
ATOM      8  C7  UNL     1     -33.161  14.053 -31.996  0.00  0.00    +0.000 A 
ATOM      9  N2  UNL     1     -32.684  13.245 -32.964  0.00  0.00    +0.000 NA
ATOM     10  C8  UNL     1     -33.409  12.136 -33.229  0.00  0.00    +0.000 A 
ATOM     11  H7  UNL     1     -36.795  13.177 -30.657  0.00  0.00    +0.000 HD
ENDROOT
TORSDOF 0
ENDMDL
MODEL 5
REMARK VINA RESULT:    -3.769      7.388      8.960
REMARK INTER + INTRA:          -3.769
REMARK INTER:                  -3.769
REMARK INTRA:                   0.000
REMARK UNBOUND:                 0.000
REMARK  Name = /home/anacleto/Desktop/manuscript_Mpro/naturecomm/supplementary_file_S2/6-chemical-library/molecular_docking/3D_ligand_structure/228.pdb
REMARK  0 active torsions:
REMARK  status: ('A' for Active; 'I' for Inactive)
REMARK                            x       y       z     vdW  Elec       q    Type
REMARK                         _______ _______ _______ _____ _____    ______ ____
ROOT
ATOM      1  C1  UNL     1     -28.040   6.310 -39.004  0.00  0.00    +0.000 C 
ATOM      2  C2  UNL     1     -29.368   6.318 -38.253  0.00  0.00    +0.000 C 
ATOM      3  C3  UNL     1     -30.197   5.113 -38.669  0.00  0.00    +0.000 C 
ATOM      4  N1  UNL     1     -29.495   3.857 -38.431  0.00  0.00    +0.000 N 
ATOM      5  C4  UNL     1     -28.102   3.835 -38.532  0.00  0.00    +0.000 A 
ATOM      6  C5  UNL     1     -27.362   4.981 -38.847  0.00  0.00    +0.000 A 
ATOM      7  C6  UNL     1     -27.424   2.625 -38.399  0.00  0.00    +0.000 A 
ATOM      8  C7  UNL     1     -26.049   2.605 -38.571  0.00  0.00    +0.000 A 
ATOM      9  N2  UNL     1     -25.312   3.693 -38.872  0.00  0.00    +0.000 NA
ATOM     10  C8  UNL     1     -25.987   4.854 -39.010  0.00  0.00    +0.000 A 
ATOM     11  H7  UNL     1     -29.851   3.300 -37.658  0.00  0.00    +0.000 HD
ENDROOT
TORSDOF 0
ENDMDL
MODEL 6
REMARK VINA RESULT:    -3.744     14.938     17.160
REMARK INTER + INTRA:          -3.744
REMARK INTER:                  -3.744
REMARK INTRA:                   0.000
REMARK UNBOUND:                 0.000
REMARK  Name = /home/anacleto/Desktop/manuscript_Mpro/naturecomm/supplementary_file_S2/6-chemical-library/molecular_docking/3D_ligand_structure/228.pdb
REMARK  0 active torsions:
REMARK  status: ('A' for Active; 'I' for Inactive)
REMARK                            x       y       z     vdW  Elec       q    Type
REMARK                         _______ _______ _______ _____ _____    ______ ____
ROOT
ATOM      1  C1  UNL     1     -35.805  10.651 -32.846  0.00  0.00    +0.000 C 
ATOM      2  C2  UNL     1     -34.328  10.833 -33.181  0.00  0.00    +0.000 C 
ATOM      3  C3  UNL     1     -34.003  12.316 -33.267  0.00  0.00    +0.000 C 
ATOM      4  N1  UNL     1     -34.326  13.019 -32.031  0.00  0.00    +0.000 N 
ATOM      5  C4  UNL     1     -35.398  12.566 -31.259  0.00  0.00    +0.000 A 
ATOM      6  C5  UNL     1     -36.165  11.456 -31.633  0.00  0.00    +0.000 A 
ATOM      7  C6  UNL     1     -35.777  13.282 -30.125  0.00  0.00    +0.000 A 
ATOM      8  C7  UNL     1     -36.886  12.862 -29.407  0.00  0.00    +0.000 A 
ATOM      9  N2  UNL     1     -37.641  11.797 -29.743  0.00  0.00    +0.000 NA
ATOM     10  C8  UNL     1     -37.266  11.123 -30.852  0.00  0.00    +0.000 A 
ATOM     11  H7  UNL     1     -33.525  13.311 -31.475  0.00  0.00    +0.000 HD
ENDROOT
TORSDOF 0
ENDMDL
MODEL 7
REMARK VINA RESULT:    -3.732      8.006      9.555
REMARK INTER + INTRA:          -3.732
REMARK INTER:                  -3.732
REMARK INTRA:                   0.000
REMARK UNBOUND:                 0.000
REMARK  Name = /home/anacleto/Desktop/manuscript_Mpro/naturecomm/supplementary_file_S2/6-chemical-library/molecular_docking/3D_ligand_structure/228.pdb
REMARK  0 active torsions:
REMARK  status: ('A' for Active; 'I' for Inactive)
REMARK                            x       y       z     vdW  Elec       q    Type
REMARK                         _______ _______ _______ _____ _____    ______ ____
ROOT
ATOM      1  C1  UNL     1     -26.218   4.358 -38.997  0.00  0.00    +0.000 C 
ATOM      2  C2  UNL     1     -26.399   2.876 -39.313  0.00  0.00    +0.000 C 
ATOM      3  C3  UNL     1     -27.330   2.246 -38.288  0.00  0.00    +0.000 C 
ATOM      4  N1  UNL     1     -28.627   2.910 -38.244  0.00  0.00    +0.000 N 
ATOM      5  C4  UNL     1     -28.692   4.277 -38.524  0.00  0.00    +0.000 A 
ATOM      6  C5  UNL     1     -27.554   5.024 -38.850  0.00  0.00    +0.000 A 
ATOM      7  C6  UNL     1     -29.909   4.945 -38.396  0.00  0.00    +0.000 A 
ATOM      8  C7  UNL     1     -29.947   6.314 -38.607  0.00  0.00    +0.000 A 
ATOM      9  N2  UNL     1     -28.867   7.057 -38.924  0.00  0.00    +0.000 NA
ATOM     10  C8  UNL     1     -27.695   6.396 -39.031  0.00  0.00    +0.000 A 
ATOM     11  H7  UNL     1     -29.399   2.381 -38.642  0.00  0.00    +0.000 HD
ENDROOT
TORSDOF 0
ENDMDL
MODEL 8
REMARK VINA RESULT:    -3.642     16.574     17.961
REMARK INTER + INTRA:          -3.642
REMARK INTER:                  -3.642
REMARK INTRA:                   0.000
REMARK UNBOUND:                 0.000
REMARK  Name = /home/anacleto/Desktop/manuscript_Mpro/naturecomm/supplementary_file_S2/6-chemical-library/molecular_docking/3D_ligand_structure/228.pdb
REMARK  0 active torsions:
REMARK  status: ('A' for Active; 'I' for Inactive)
REMARK                            x       y       z     vdW  Elec       q    Type
REMARK                         _______ _______ _______ _____ _____    ______ ____
ROOT
ATOM      1  C1  UNL     1     -24.027  -5.007 -26.741  0.00  0.00    +0.000 C 
ATOM      2  C2  UNL     1     -23.035  -3.929 -27.166  0.00  0.00    +0.000 C 
ATOM      3  C3  UNL     1     -23.230  -3.607 -28.640  0.00  0.00    +0.000 C 
ATOM      4  N1  UNL     1     -24.593  -3.176 -28.930  0.00  0.00    +0.000 N 
ATOM      5  C4  UNL     1     -25.640  -3.697 -28.166  0.00  0.00    +0.000 A 
ATOM      6  C5  UNL     1     -25.421  -4.613 -27.131  0.00  0.00    +0.000 A 
ATOM      7  C6  UNL     1     -26.955  -3.366 -28.491  0.00  0.00    +0.000 A 
ATOM      8  C7  UNL     1     -27.988  -3.946 -27.771  0.00  0.00    +0.000 A 
ATOM      9  N2  UNL     1     -27.805  -4.828 -26.769  0.00  0.00    +0.000 NA
ATOM     10  C8  UNL     1     -26.526  -5.146 -26.477  0.00  0.00    +0.000 A 
ATOM     11  H7  UNL     1     -24.700  -2.186 -29.137  0.00  0.00    +0.000 HD
ENDROOT
TORSDOF 0
ENDMDL
MODEL 9
REMARK VINA RESULT:    -3.622     14.608     16.923
REMARK INTER + INTRA:          -3.622
REMARK INTER:                  -3.622
REMARK INTRA:                   0.000
REMARK UNBOUND:                 0.000
REMARK  Name = /home/anacleto/Desktop/manuscript_Mpro/naturecomm/supplementary_file_S2/6-chemical-library/molecular_docking/3D_ligand_structure/228.pdb
REMARK  0 active torsions:
REMARK  status: ('A' for Active; 'I' for Inactive)
REMARK                            x       y       z     vdW  Elec       q    Type
REMARK                         _______ _______ _______ _____ _____    ______ ____
ROOT
ATOM      1  C1  UNL     1     -33.875  13.172 -31.715  0.00  0.00    +0.000 C 
ATOM      2  C2  UNL     1     -33.672  12.946 -33.209  0.00  0.00    +0.000 C 
ATOM      3  C3  UNL     1     -33.792  11.463 -33.524  0.00  0.00    +0.000 C 
ATOM      4  N1  UNL     1     -35.078  10.918 -33.105  0.00  0.00    +0.000 N 
ATOM      5  C4  UNL     1     -35.709  11.465 -31.986  0.00  0.00    +0.000 A 
ATOM      6  C5  UNL     1     -35.149  12.522 -31.260  0.00  0.00    +0.000 A 
ATOM      7  C6  UNL     1     -36.893  10.895 -31.520  0.00  0.00    +0.000 A 
ATOM      8  C7  UNL     1     -37.471  11.402 -30.367  0.00  0.00    +0.000 A 
ATOM      9  N2  UNL     1     -36.954  12.420 -29.650  0.00  0.00    +0.000 NA
ATOM     10  C8  UNL     1     -35.801  12.952 -30.109  0.00  0.00    +0.000 A 
ATOM     11  H7  UNL     1     -35.722  10.696 -33.861  0.00  0.00    +0.000 HD
ENDROOT
TORSDOF 0
ENDMDL
