MODEL 1
REMARK VINA RESULT:    -4.569      0.000      0.000
REMARK INTER + INTRA:          -4.960
REMARK INTER:                  -4.823
REMARK INTRA:                  -0.137
REMARK UNBOUND:                -0.124
REMARK  Name = /home/anacleto/Desktop/manuscript_Mpro/naturecomm/supplementary_file_S2/6-chemical-library/molecular_docking/3D_ligand_structure/1057.pdb
REMARK  1 active torsions:
REMARK  status: ('A' for Active; 'I' for Inactive)
REMARK    1  A    between atoms: C2_5  and  C3_6
REMARK                            x       y       z     vdW  Elec       q    Type
REMARK                         _______ _______ _______ _____ _____    ______ ____
ROOT
ATOM      1  C3  UNL     1      16.615  11.366  -5.687  0.00  0.00    +0.000 C 
ATOM      2  O1  UNL     1      17.351  11.812  -6.568  0.00  0.00    +0.000 OA
ATOM      3  N4  UNL     1      15.262  11.155  -5.935  0.00  0.00    +0.000 N 
ATOM      4  C4  UNL     1      14.218  11.044  -4.909  0.00  0.00    +0.000 C 
ATOM      5  C5  UNL     1      12.864  11.599  -5.392  0.00  0.00    +0.000 C 
ATOM      6  N5  UNL     1      12.362  10.967  -6.620  0.00  0.00    +0.000 NA
ATOM      7  C6  UNL     1      13.444  10.597  -7.546  0.00  0.00    +0.000 C 
ATOM      8  C7  UNL     1      14.785  11.313  -7.311  0.00  0.00    +0.000 C 
ATOM      9  H7  UNL     1      11.711  11.603  -7.079  0.00  0.00    +0.000 HD
ENDROOT
BRANCH   1  14
ATOM     10  N1  UNL     1      17.530   9.794  -4.046  0.00  0.00    +0.000 N 
ATOM     11  N2  UNL     1      18.017   9.733  -2.798  0.00  0.00    +0.000 NA
ATOM     12  N3  UNL     1      17.926  10.949  -2.281  0.00  0.00    +0.000 NA
ATOM     13  C1  UNL     1      17.387  11.771  -3.231  0.00  0.00    +0.000 A 
ATOM     14  C2  UNL     1      17.162  11.067  -4.393  0.00  0.00    +0.000 A 
ATOM     15  H1  UNL     1      17.478   8.950  -4.605  0.00  0.00    +0.000 HD
ENDBRANCH   1  14
TORSDOF 1
ENDMDL
MODEL 2
REMARK VINA RESULT:    -4.382      2.400      5.439
REMARK INTER + INTRA:          -4.763
REMARK INTER:                  -4.608
REMARK INTRA:                  -0.155
REMARK UNBOUND:                -0.124
REMARK  Name = /home/anacleto/Desktop/manuscript_Mpro/naturecomm/supplementary_file_S2/6-chemical-library/molecular_docking/3D_ligand_structure/1057.pdb
REMARK  1 active torsions:
REMARK  status: ('A' for Active; 'I' for Inactive)
REMARK    1  A    between atoms: C2_5  and  C3_6
REMARK                            x       y       z     vdW  Elec       q    Type
REMARK                         _______ _______ _______ _____ _____    ______ ____
ROOT
ATOM      1  C3  UNL     1      16.853  10.748  -2.994  0.00  0.00    +0.000 C 
ATOM      2  O1  UNL     1      17.302   9.616  -2.809  0.00  0.00    +0.000 OA
ATOM      3  N4  UNL     1      17.299  11.821  -2.231  0.00  0.00    +0.000 N 
ATOM      4  C4  UNL     1      16.582  13.088  -2.045  0.00  0.00    +0.000 C 
ATOM      5  C5  UNL     1      16.833  13.703  -0.654  0.00  0.00    +0.000 C 
ATOM      6  N5  UNL     1      18.251  13.936  -0.350  0.00  0.00    +0.000 NA
ATOM      7  C6  UNL     1      19.129  12.909  -0.934  0.00  0.00    +0.000 C 
ATOM      8  C7  UNL     1      18.433  11.597  -1.330  0.00  0.00    +0.000 C 
ATOM      9  H7  UNL     1      18.375  13.967   0.662  0.00  0.00    +0.000 HD
ENDROOT
BRANCH   1  14
ATOM     10  N1  UNL     1      14.548  10.596  -3.813  0.00  0.00    +0.000 N 
ATOM     11  N2  UNL     1      13.785  10.875  -4.879  0.00  0.00    +0.000 NA
ATOM     12  N3  UNL     1      14.582  11.368  -5.815  0.00  0.00    +0.000 NA
ATOM     13  C1  UNL     1      15.852  11.404  -5.309  0.00  0.00    +0.000 A 
ATOM     14  C2  UNL     1      15.856  10.954  -4.007  0.00  0.00    +0.000 A 
ATOM     15  H1  UNL     1      14.128  10.171  -2.993  0.00  0.00    +0.000 HD
ENDBRANCH   1  14
TORSDOF 1
ENDMDL
MODEL 3
REMARK VINA RESULT:    -4.342      3.360      5.088
REMARK INTER + INTRA:          -4.720
REMARK INTER:                  -4.612
REMARK INTRA:                  -0.108
REMARK UNBOUND:                -0.124
REMARK  Name = /home/anacleto/Desktop/manuscript_Mpro/naturecomm/supplementary_file_S2/6-chemical-library/molecular_docking/3D_ligand_structure/1057.pdb
REMARK  1 active torsions:
REMARK  status: ('A' for Active; 'I' for Inactive)
REMARK    1  A    between atoms: C2_5  and  C3_6
REMARK                            x       y       z     vdW  Elec       q    Type
REMARK                         _______ _______ _______ _____ _____    ______ ____
ROOT
ATOM      1  C3  UNL     1      15.473  11.972  -3.064  0.00  0.00    +0.000 C 
ATOM      2  O1  UNL     1      16.123  11.188  -2.372  0.00  0.00    +0.000 OA
ATOM      3  N4  UNL     1      15.320  13.299  -2.677  0.00  0.00    +0.000 N 
ATOM      4  C4  UNL     1      14.265  14.205  -3.147  0.00  0.00    +0.000 C 
ATOM      5  C5  UNL     1      13.848  15.225  -2.070  0.00  0.00    +0.000 C 
ATOM      6  N5  UNL     1      14.956  16.045  -1.561  0.00  0.00    +0.000 NA
ATOM      7  C6  UNL     1      16.226  15.303  -1.502  0.00  0.00    +0.000 C 
ATOM      8  C7  UNL     1      16.094  13.771  -1.525  0.00  0.00    +0.000 C 
ATOM      9  H7  UNL     1      14.713  16.395  -0.635  0.00  0.00    +0.000 HD
ENDROOT
BRANCH   1  14
ATOM     10  N1  UNL     1      13.912  10.521  -4.274  0.00  0.00    +0.000 N 
ATOM     11  N2  UNL     1      13.476  10.235  -5.509  0.00  0.00    +0.000 NA
ATOM     12  N3  UNL     1      14.173  10.980  -6.354  0.00  0.00    +0.000 NA
ATOM     13  C1  UNL     1      15.040  11.745  -5.623  0.00  0.00    +0.000 A 
ATOM     14  C2  UNL     1      14.866  11.505  -4.278  0.00  0.00    +0.000 A 
ATOM     15  H1  UNL     1      13.526  10.024  -3.478  0.00  0.00    +0.000 HD
ENDBRANCH   1  14
TORSDOF 1
ENDMDL
MODEL 4
REMARK VINA RESULT:    -4.235      3.731      4.273
REMARK INTER + INTRA:          -4.607
REMARK INTER:                  -4.473
REMARK INTRA:                  -0.134
REMARK UNBOUND:                -0.124
REMARK  Name = /home/anacleto/Desktop/manuscript_Mpro/naturecomm/supplementary_file_S2/6-chemical-library/molecular_docking/3D_ligand_structure/1057.pdb
REMARK  1 active torsions:
REMARK  status: ('A' for Active; 'I' for Inactive)
REMARK    1  A    between atoms: C2_5  and  C3_6
REMARK                            x       y       z     vdW  Elec       q    Type
REMARK                         _______ _______ _______ _____ _____    ______ ____
ROOT
ATOM      1  C3  UNL     1      15.007  12.795  -2.825  0.00  0.00    +0.000 C 
ATOM      2  O1  UNL     1      15.344  11.959  -1.987  0.00  0.00    +0.000 OA
ATOM      3  N4  UNL     1      14.596  12.400  -4.094  0.00  0.00    +0.000 N 
ATOM      4  C4  UNL     1      14.578  13.256  -5.286  0.00  0.00    +0.000 C 
ATOM      5  C5  UNL     1      14.862  12.466  -6.577  0.00  0.00    +0.000 C 
ATOM      6  N5  UNL     1      13.939  11.346  -6.809  0.00  0.00    +0.000 NA
ATOM      7  C6  UNL     1      13.514  10.698  -5.558  0.00  0.00    +0.000 C 
ATOM      8  C7  UNL     1      14.412  10.968  -4.340  0.00  0.00    +0.000 C 
ATOM      9  H7  UNL     1      14.388  10.665  -7.421  0.00  0.00    +0.000 HD
ENDROOT
BRANCH   1  14
ATOM     10  N1  UNL     1      13.902  14.893  -2.205  0.00  0.00    +0.000 N 
ATOM     11  N2  UNL     1      14.157  16.175  -1.912  0.00  0.00    +0.000 NA
ATOM     12  N3  UNL     1      15.463  16.357  -2.049  0.00  0.00    +0.000 NA
ATOM     13  C1  UNL     1      16.017  15.163  -2.419  0.00  0.00    +0.000 A 
ATOM     14  C2  UNL     1      15.044  14.190  -2.485  0.00  0.00    +0.000 A 
ATOM     15  H1  UNL     1      12.945  14.557  -2.195  0.00  0.00    +0.000 HD
ENDBRANCH   1  14
TORSDOF 1
ENDMDL
MODEL 5
REMARK VINA RESULT:    -4.224     15.400     17.459
REMARK INTER + INTRA:          -4.595
REMARK INTER:                  -4.440
REMARK INTRA:                  -0.155
REMARK UNBOUND:                -0.124
REMARK  Name = /home/anacleto/Desktop/manuscript_Mpro/naturecomm/supplementary_file_S2/6-chemical-library/molecular_docking/3D_ligand_structure/1057.pdb
REMARK  1 active torsions:
REMARK  status: ('A' for Active; 'I' for Inactive)
REMARK    1  A    between atoms: C2_5  and  C3_6
REMARK                            x       y       z     vdW  Elec       q    Type
REMARK                         _______ _______ _______ _____ _____    ______ ____
ROOT
ATOM      1  C3  UNL     1      21.751   5.992  11.004  0.00  0.00    +0.000 C 
ATOM      2  O1  UNL     1      22.569   5.085  10.848  0.00  0.00    +0.000 OA
ATOM      3  N4  UNL     1      20.719   6.180  10.090  0.00  0.00    +0.000 N 
ATOM      4  C4  UNL     1      19.958   7.423   9.912  0.00  0.00    +0.000 C 
ATOM      5  C5  UNL     1      19.513   7.630   8.452  0.00  0.00    +0.000 C 
ATOM      6  N5  UNL     1      18.710   6.526   7.909  0.00  0.00    +0.000 NA
ATOM      7  C6  UNL     1      19.126   5.215   8.433  0.00  0.00    +0.000 C 
ATOM      8  C7  UNL     1      20.536   5.170   9.045  0.00  0.00    +0.000 C 
ATOM      9  H7  UNL     1      18.778   6.532   6.891  0.00  0.00    +0.000 HD
ENDROOT
BRANCH   1  14
ATOM     10  N1  UNL     1      22.811   7.859  12.187  0.00  0.00    +0.000 N 
ATOM     11  N2  UNL     1      22.752   8.554  13.331  0.00  0.00    +0.000 NA
ATOM     12  N3  UNL     1      21.814   7.996  14.083  0.00  0.00    +0.000 NA
ATOM     13  C1  UNL     1      21.280   6.951  13.381  0.00  0.00    +0.000 A 
ATOM     14  C2  UNL     1      21.870   6.863  12.140  0.00  0.00    +0.000 A 
ATOM     15  H1  UNL     1      23.499   8.106  11.485  0.00  0.00    +0.000 HD
ENDBRANCH   1  14
TORSDOF 1
ENDMDL
MODEL 6
REMARK VINA RESULT:    -4.119      4.063      5.092
REMARK INTER + INTRA:          -4.484
REMARK INTER:                  -4.344
REMARK INTRA:                  -0.140
REMARK UNBOUND:                -0.124
REMARK  Name = /home/anacleto/Desktop/manuscript_Mpro/naturecomm/supplementary_file_S2/6-chemical-library/molecular_docking/3D_ligand_structure/1057.pdb
REMARK  1 active torsions:
REMARK  status: ('A' for Active; 'I' for Inactive)
REMARK    1  A    between atoms: C2_5  and  C3_6
REMARK                            x       y       z     vdW  Elec       q    Type
REMARK                         _______ _______ _______ _____ _____    ______ ____
ROOT
ATOM      1  C3  UNL     1      15.730  14.644  -3.659  0.00  0.00    +0.000 C 
ATOM      2  O1  UNL     1      16.367  15.406  -4.387  0.00  0.00    +0.000 OA
ATOM      3  N4  UNL     1      15.947  13.271  -3.708  0.00  0.00    +0.000 N 
ATOM      4  C4  UNL     1      15.007  12.245  -3.238  0.00  0.00    +0.000 C 
ATOM      5  C5  UNL     1      15.088  10.953  -4.073  0.00  0.00    +0.000 C 
ATOM      6  N5  UNL     1      16.428  10.353  -4.120  0.00  0.00    +0.000 NA
ATOM      7  C6  UNL     1      17.499  11.363  -4.115  0.00  0.00    +0.000 C 
ATOM      8  C7  UNL     1      17.065  12.782  -4.519  0.00  0.00    +0.000 C 
ATOM      9  H7  UNL     1      16.503   9.768  -4.951  0.00  0.00    +0.000 HD
ENDROOT
BRANCH   1  14
ATOM     10  N1  UNL     1      13.473  15.455  -3.157  0.00  0.00    +0.000 N 
ATOM     11  N2  UNL     1      12.725  15.951  -2.161  0.00  0.00    +0.000 NA
ATOM     12  N3  UNL     1      13.511  16.069  -1.101  0.00  0.00    +0.000 NA
ATOM     13  C1  UNL     1      14.757  15.626  -1.450  0.00  0.00    +0.000 A 
ATOM     14  C2  UNL     1      14.754  15.183  -2.754  0.00  0.00    +0.000 A 
ATOM     15  H1  UNL     1      13.061  15.323  -4.074  0.00  0.00    +0.000 HD
ENDBRANCH   1  14
TORSDOF 1
ENDMDL
MODEL 7
REMARK VINA RESULT:    -4.053     18.267     19.339
REMARK INTER + INTRA:          -4.415
REMARK INTER:                  -4.283
REMARK INTRA:                  -0.132
REMARK UNBOUND:                -0.124
REMARK  Name = /home/anacleto/Desktop/manuscript_Mpro/naturecomm/supplementary_file_S2/6-chemical-library/molecular_docking/3D_ligand_structure/1057.pdb
REMARK  1 active torsions:
REMARK  status: ('A' for Active; 'I' for Inactive)
REMARK    1  A    between atoms: C2_5  and  C3_6
REMARK                            x       y       z     vdW  Elec       q    Type
REMARK                         _______ _______ _______ _____ _____    ______ ____
ROOT
ATOM      1  C3  UNL     1      24.706  16.648  10.281  0.00  0.00    +0.000 C 
ATOM      2  O1  UNL     1      24.298  17.726   9.848  0.00  0.00    +0.000 OA
ATOM      3  N4  UNL     1      24.147  16.086  11.423  0.00  0.00    +0.000 N 
ATOM      4  C4  UNL     1      24.784  15.069  12.269  0.00  0.00    +0.000 C 
ATOM      5  C5  UNL     1      24.391  15.213  13.752  0.00  0.00    +0.000 C 
ATOM      6  N5  UNL     1      22.942  15.161  13.994  0.00  0.00    +0.000 NA
ATOM      7  C6  UNL     1      22.166  15.773  12.904  0.00  0.00    +0.000 C 
ATOM      8  C7  UNL     1      22.955  16.723  11.988  0.00  0.00    +0.000 C 
ATOM      9  H7  UNL     1      22.735  15.629  14.876  0.00  0.00    +0.000 HD
ENDROOT
BRANCH   1  14
ATOM     10  N1  UNL     1      25.524  14.990   8.672  0.00  0.00    +0.000 N 
ATOM     11  N2  UNL     1      26.654  14.490   8.152  0.00  0.00    +0.000 NA
ATOM     12  N3  UNL     1      27.666  15.088   8.763  0.00  0.00    +0.000 NA
ATOM     13  C1  UNL     1      27.147  15.979   9.662  0.00  0.00    +0.000 A 
ATOM     14  C2  UNL     1      25.772  15.971   9.596  0.00  0.00    +0.000 A 
ATOM     15  H1  UNL     1      24.628  14.633   8.360  0.00  0.00    +0.000 HD
ENDBRANCH   1  14
TORSDOF 1
ENDMDL
MODEL 8
REMARK VINA RESULT:    -4.051     15.471     16.801
REMARK INTER + INTRA:          -4.412
REMARK INTER:                  -4.408
REMARK INTRA:                  -0.004
REMARK UNBOUND:                -0.124
REMARK  Name = /home/anacleto/Desktop/manuscript_Mpro/naturecomm/supplementary_file_S2/6-chemical-library/molecular_docking/3D_ligand_structure/1057.pdb
REMARK  1 active torsions:
REMARK  status: ('A' for Active; 'I' for Inactive)
REMARK    1  A    between atoms: C2_5  and  C3_6
REMARK                            x       y       z     vdW  Elec       q    Type
REMARK                         _______ _______ _______ _____ _____    ______ ____
ROOT
ATOM      1  C3  UNL     1      17.981   4.328  10.419  0.00  0.00    +0.000 C 
ATOM      2  O1  UNL     1      17.599   4.221  11.585  0.00  0.00    +0.000 OA
ATOM      3  N4  UNL     1      18.876   5.330  10.057  0.00  0.00    +0.000 N 
ATOM      4  C4  UNL     1      19.081   5.834   8.693  0.00  0.00    +0.000 C 
ATOM      5  C5  UNL     1      19.446   7.330   8.672  0.00  0.00    +0.000 C 
ATOM      6  N5  UNL     1      20.638   7.666   9.463  0.00  0.00    +0.000 NA
ATOM      7  C6  UNL     1      20.766   6.835  10.670  0.00  0.00    +0.000 C 
ATOM      8  C7  UNL     1      19.476   6.132  11.126  0.00  0.00    +0.000 C 
ATOM      9  H7  UNL     1      20.601   8.652   9.720  0.00  0.00    +0.000 HD
ENDROOT
BRANCH   1  14
ATOM     10  N1  UNL     1      16.516   3.768   8.536  0.00  0.00    +0.000 N 
ATOM     11  N2  UNL     1      16.207   2.768   7.699  0.00  0.00    +0.000 NA
ATOM     12  N3  UNL     1      16.929   1.717   8.059  0.00  0.00    +0.000 NA
ATOM     13  C1  UNL     1      17.703   2.084   9.125  0.00  0.00    +0.000 A 
ATOM     14  C2  UNL     1      17.492   3.411   9.428  0.00  0.00    +0.000 A 
ATOM     15  H1  UNL     1      16.039   4.659   8.450  0.00  0.00    +0.000 HD
ENDBRANCH   1  14
TORSDOF 1
ENDMDL
MODEL 9
REMARK VINA RESULT:    -4.029     18.407     19.872
REMARK INTER + INTRA:          -4.389
REMARK INTER:                  -4.265
REMARK INTRA:                  -0.124
REMARK UNBOUND:                -0.124
REMARK  Name = /home/anacleto/Desktop/manuscript_Mpro/naturecomm/supplementary_file_S2/6-chemical-library/molecular_docking/3D_ligand_structure/1057.pdb
REMARK  1 active torsions:
REMARK  status: ('A' for Active; 'I' for Inactive)
REMARK    1  A    between atoms: C2_5  and  C3_6
REMARK                            x       y       z     vdW  Elec       q    Type
REMARK                         _______ _______ _______ _____ _____    ______ ____
ROOT
ATOM      1  C3  UNL     1      23.726  15.037  12.348  0.00  0.00    +0.000 C 
ATOM      2  O1  UNL     1      22.536  15.327  12.478  0.00  0.00    +0.000 OA
ATOM      3  N4  UNL     1      24.463  15.535  11.279  0.00  0.00    +0.000 N 
ATOM      4  C4  UNL     1      25.716  14.962  10.770  0.00  0.00    +0.000 C 
ATOM      5  C5  UNL     1      25.869  15.151   9.249  0.00  0.00    +0.000 C 
ATOM      6  N5  UNL     1      25.800  16.551   8.810  0.00  0.00    +0.000 NA
ATOM      7  C6  UNL     1      24.866  17.351   9.619  0.00  0.00    +0.000 C 
ATOM      8  C7  UNL     1      23.833  16.543  10.422  0.00  0.00    +0.000 C 
ATOM      9  H7  UNL     1      25.525  16.581   7.829  0.00  0.00    +0.000 HD
ENDROOT
BRANCH   1  14
ATOM     10  N1  UNL     1      24.331  12.811  13.174  0.00  0.00    +0.000 N 
ATOM     11  N2  UNL     1      24.971  12.194  14.177  0.00  0.00    +0.000 NA
ATOM     12  N3  UNL     1      25.375  13.132  15.021  0.00  0.00    +0.000 NA
ATOM     13  C1  UNL     1      24.988  14.344  14.520  0.00  0.00    +0.000 A 
ATOM     14  C2  UNL     1      24.352  14.174  13.310  0.00  0.00    +0.000 A 
ATOM     15  H1  UNL     1      23.909  12.260  12.435  0.00  0.00    +0.000 HD
ENDBRANCH   1  14
TORSDOF 1
ENDMDL
