MODEL 1
REMARK VINA RESULT:    -3.898      0.000      0.000
REMARK INTER + INTRA:          -4.261
REMARK INTER:                  -4.170
REMARK INTRA:                  -0.091
REMARK UNBOUND:                -0.135
REMARK  Name = /home/anacleto/Desktop/manuscript_Mpro/naturecomm/supplementary_file_S2/6-chemical-library/molecular_docking/3D_ligand_structure/1278.pdb
REMARK  1 active torsions:
REMARK  status: ('A' for Active; 'I' for Inactive)
REMARK    1  A    between atoms: C3_5  and  N3_6
REMARK                            x       y       z     vdW  Elec       q    Type
REMARK                         _______ _______ _______ _____ _____    ______ ____
ROOT
ATOM      1  N1  UNL     1     -30.207   4.302 -38.815  0.00  0.00    +0.000 N 
ATOM      2  N2  UNL     1     -30.920   5.295 -38.255  0.00  0.00    +0.000 NA
ATOM      3  C1  UNL     1     -29.986   6.176 -37.893  0.00  0.00    +0.000 A 
ATOM      4  C2  UNL     1     -28.689   5.758 -38.245  0.00  0.00    +0.000 A 
ATOM      5  C3  UNL     1     -28.855   4.546 -38.883  0.00  0.00    +0.000 A 
ATOM      6  H1  UNL     1     -30.696   3.472 -39.120  0.00  0.00    +0.000 HD
ENDROOT
BRANCH   5   7
ATOM      7  N3  UNL     1     -27.976   3.655 -39.436  0.00  0.00    +0.000 N 
ATOM      8  C4  UNL     1     -26.646   4.120 -39.894  0.00  0.00    +0.000 C 
ATOM      9  C5  UNL     1     -25.622   4.005 -38.751  0.00  0.00    +0.000 C 
ATOM     10  O1  UNL     1     -25.543   2.658 -38.251  0.00  0.00    +0.000 OA
ATOM     11  C6  UNL     1     -26.828   2.223 -37.771  0.00  0.00    +0.000 C 
ATOM     12  C7  UNL     1     -27.891   2.285 -38.880  0.00  0.00    +0.000 C 
ENDBRANCH   5   7
TORSDOF 1
ENDMDL
MODEL 2
REMARK VINA RESULT:    -3.875     15.660     17.355
REMARK INTER + INTRA:          -4.236
REMARK INTER:                  -4.097
REMARK INTRA:                  -0.139
REMARK UNBOUND:                -0.135
REMARK  Name = /home/anacleto/Desktop/manuscript_Mpro/naturecomm/supplementary_file_S2/6-chemical-library/molecular_docking/3D_ligand_structure/1278.pdb
REMARK  1 active torsions:
REMARK  status: ('A' for Active; 'I' for Inactive)
REMARK    1  A    between atoms: C3_5  and  N3_6
REMARK                            x       y       z     vdW  Elec       q    Type
REMARK                         _______ _______ _______ _____ _____    ______ ____
ROOT
ATOM      1  N1  UNL     1     -18.226  -5.903 -26.123  0.00  0.00    +0.000 N 
ATOM      2  N2  UNL     1     -17.485  -5.458 -25.093  0.00  0.00    +0.000 NA
ATOM      3  C1  UNL     1     -17.486  -4.135 -25.264  0.00  0.00    +0.000 A 
ATOM      4  C2  UNL     1     -18.246  -3.739 -26.382  0.00  0.00    +0.000 A 
ATOM      5  C3  UNL     1     -18.756  -4.907 -26.910  0.00  0.00    +0.000 A 
ATOM      6  H1  UNL     1     -18.323  -6.901 -26.248  0.00  0.00    +0.000 HD
ENDROOT
BRANCH   5   7
ATOM      7  N3  UNL     1     -19.550  -5.172 -27.992  0.00  0.00    +0.000 N 
ATOM      8  C4  UNL     1     -20.460  -6.342 -27.969  0.00  0.00    +0.000 C 
ATOM      9  C5  UNL     1     -21.832  -5.934 -27.404  0.00  0.00    +0.000 C 
ATOM     10  O1  UNL     1     -22.412  -4.856 -28.161  0.00  0.00    +0.000 OA
ATOM     11  C6  UNL     1     -21.543  -3.709 -28.148  0.00  0.00    +0.000 C 
ATOM     12  C7  UNL     1     -20.162  -4.045 -28.733  0.00  0.00    +0.000 C 
ENDBRANCH   5   7
TORSDOF 1
ENDMDL
MODEL 3
REMARK VINA RESULT:    -3.841     25.410     26.567
REMARK INTER + INTRA:          -4.200
REMARK INTER:                  -4.131
REMARK INTRA:                  -0.070
REMARK UNBOUND:                -0.135
REMARK  Name = /home/anacleto/Desktop/manuscript_Mpro/naturecomm/supplementary_file_S2/6-chemical-library/molecular_docking/3D_ligand_structure/1278.pdb
REMARK  1 active torsions:
REMARK  status: ('A' for Active; 'I' for Inactive)
REMARK    1  A    between atoms: C3_5  and  N3_6
REMARK                            x       y       z     vdW  Elec       q    Type
REMARK                         _______ _______ _______ _____ _____    ______ ____
ROOT
ATOM      1  N1  UNL     1     -37.200   5.417 -15.034  0.00  0.00    +0.000 N 
ATOM      2  N2  UNL     1     -37.423   4.094 -15.127  0.00  0.00    +0.000 NA
ATOM      3  C1  UNL     1     -38.176   3.834 -14.057  0.00  0.00    +0.000 A 
ATOM      4  C2  UNL     1     -38.451   4.991 -13.302  0.00  0.00    +0.000 A 
ATOM      5  C3  UNL     1     -37.837   6.024 -13.978  0.00  0.00    +0.000 A 
ATOM      6  H1  UNL     1     -36.589   5.849 -15.713  0.00  0.00    +0.000 HD
ENDROOT
BRANCH   5   7
ATOM      7  N3  UNL     1     -37.739   7.367 -13.737  0.00  0.00    +0.000 N 
ATOM      8  C4  UNL     1     -36.802   8.192 -14.535  0.00  0.00    +0.000 C 
ATOM      9  C5  UNL     1     -37.514   8.744 -15.783  0.00  0.00    +0.000 C 
ATOM     10  O1  UNL     1     -38.682   9.506 -15.427  0.00  0.00    +0.000 OA
ATOM     11  C6  UNL     1     -39.607   8.690 -14.686  0.00  0.00    +0.000 C 
ATOM     12  C7  UNL     1     -38.963   8.134 -13.406  0.00  0.00    +0.000 C 
ENDBRANCH   5   7
TORSDOF 1
ENDMDL
MODEL 4
REMARK VINA RESULT:    -3.746     13.983     15.248
REMARK INTER + INTRA:          -4.099
REMARK INTER:                  -3.970
REMARK INTRA:                  -0.130
REMARK UNBOUND:                -0.135
REMARK  Name = /home/anacleto/Desktop/manuscript_Mpro/naturecomm/supplementary_file_S2/6-chemical-library/molecular_docking/3D_ligand_structure/1278.pdb
REMARK  1 active torsions:
REMARK  status: ('A' for Active; 'I' for Inactive)
REMARK    1  A    between atoms: C3_5  and  N3_6
REMARK                            x       y       z     vdW  Elec       q    Type
REMARK                         _______ _______ _______ _____ _____    ______ ____
ROOT
ATOM      1  N1  UNL     1     -29.339  -5.192 -26.300  0.00  0.00    +0.000 N 
ATOM      2  N2  UNL     1     -30.207  -6.189 -26.057  0.00  0.00    +0.000 NA
ATOM      3  C1  UNL     1     -29.414  -7.224 -25.778  0.00  0.00    +0.000 A 
ATOM      4  C2  UNL     1     -28.049  -6.880 -25.818  0.00  0.00    +0.000 A 
ATOM      5  C3  UNL     1     -28.019  -5.536 -26.123  0.00  0.00    +0.000 A 
ATOM      6  H1  UNL     1     -29.705  -4.299 -26.601  0.00  0.00    +0.000 HD
ENDROOT
BRANCH   5   7
ATOM      7  N3  UNL     1     -26.998  -4.644 -26.309  0.00  0.00    +0.000 N 
ATOM      8  C4  UNL     1     -25.656  -5.133 -26.703  0.00  0.00    +0.000 C 
ATOM      9  C5  UNL     1     -25.538  -5.174 -28.237  0.00  0.00    +0.000 C 
ATOM     10  O1  UNL     1     -25.797  -3.883 -28.818  0.00  0.00    +0.000 OA
ATOM     11  C6  UNL     1     -27.116  -3.429 -28.466  0.00  0.00    +0.000 C 
ATOM     12  C7  UNL     1     -27.288  -3.336 -26.940  0.00  0.00    +0.000 C 
ENDBRANCH   5   7
TORSDOF 1
ENDMDL
MODEL 5
REMARK VINA RESULT:    -3.720      7.880      9.500
REMARK INTER + INTRA:          -4.072
REMARK INTER:                  -3.929
REMARK INTRA:                  -0.144
REMARK UNBOUND:                -0.135
REMARK  Name = /home/anacleto/Desktop/manuscript_Mpro/naturecomm/supplementary_file_S2/6-chemical-library/molecular_docking/3D_ligand_structure/1278.pdb
REMARK  1 active torsions:
REMARK  status: ('A' for Active; 'I' for Inactive)
REMARK    1  A    between atoms: C3_5  and  N3_6
REMARK                            x       y       z     vdW  Elec       q    Type
REMARK                         _______ _______ _______ _____ _____    ______ ____
ROOT
ATOM      1  N1  UNL     1     -19.183   9.622 -37.894  0.00  0.00    +0.000 N 
ATOM      2  N2  UNL     1     -18.157   9.734 -38.756  0.00  0.00    +0.000 NA
ATOM      3  C1  UNL     1     -18.246   8.621 -39.484  0.00  0.00    +0.000 A 
ATOM      4  C2  UNL     1     -19.338   7.818 -39.105  0.00  0.00    +0.000 A 
ATOM      5  C3  UNL     1     -19.964   8.507 -38.088  0.00  0.00    +0.000 A 
ATOM      6  H1  UNL     1     -19.291  10.331 -37.181  0.00  0.00    +0.000 HD
ENDROOT
BRANCH   5   7
ATOM      7  N3  UNL     1     -21.061   8.238 -37.316  0.00  0.00    +0.000 N 
ATOM      8  C4  UNL     1     -21.778   9.346 -36.642  0.00  0.00    +0.000 C 
ATOM      9  C5  UNL     1     -22.892   9.888 -37.556  0.00  0.00    +0.000 C 
ATOM     10  O1  UNL     1     -23.811   8.848 -37.937  0.00  0.00    +0.000 OA
ATOM     11  C6  UNL     1     -23.117   7.791 -38.626  0.00  0.00    +0.000 C 
ATOM     12  C7  UNL     1     -22.009   7.185 -37.749  0.00  0.00    +0.000 C 
ENDBRANCH   5   7
TORSDOF 1
ENDMDL
MODEL 6
REMARK VINA RESULT:    -3.662     14.767     16.442
REMARK INTER + INTRA:          -4.010
REMARK INTER:                  -3.874
REMARK INTRA:                  -0.137
REMARK UNBOUND:                -0.135
REMARK  Name = /home/anacleto/Desktop/manuscript_Mpro/naturecomm/supplementary_file_S2/6-chemical-library/molecular_docking/3D_ligand_structure/1278.pdb
REMARK  1 active torsions:
REMARK  status: ('A' for Active; 'I' for Inactive)
REMARK    1  A    between atoms: C3_5  and  N3_6
REMARK                            x       y       z     vdW  Elec       q    Type
REMARK                         _______ _______ _______ _____ _____    ______ ____
ROOT
ATOM      1  N1  UNL     1     -19.850  -4.865 -25.735  0.00  0.00    +0.000 N 
ATOM      2  N2  UNL     1     -18.654  -4.262 -25.620  0.00  0.00    +0.000 NA
ATOM      3  C1  UNL     1     -18.458  -3.740 -26.832  0.00  0.00    +0.000 A 
ATOM      4  C2  UNL     1     -19.535  -3.988 -27.704  0.00  0.00    +0.000 A 
ATOM      5  C3  UNL     1     -20.456  -4.693 -26.957  0.00  0.00    +0.000 A 
ATOM      6  H1  UNL     1     -20.197  -5.396 -24.948  0.00  0.00    +0.000 HD
ENDROOT
BRANCH   5   7
ATOM      7  N3  UNL     1     -21.684  -5.221 -27.248  0.00  0.00    +0.000 N 
ATOM      8  C4  UNL     1     -22.722  -5.298 -26.193  0.00  0.00    +0.000 C 
ATOM      9  C5  UNL     1     -23.574  -4.016 -26.195  0.00  0.00    +0.000 C 
ATOM     10  O1  UNL     1     -24.176  -3.789 -27.482  0.00  0.00    +0.000 OA
ATOM     11  C6  UNL     1     -23.164  -3.676 -28.499  0.00  0.00    +0.000 C 
ATOM     12  C7  UNL     1     -22.296  -4.944 -28.568  0.00  0.00    +0.000 C 
ENDBRANCH   5   7
TORSDOF 1
ENDMDL
MODEL 7
REMARK VINA RESULT:    -3.437     14.491     15.821
REMARK INTER + INTRA:          -3.773
REMARK INTER:                  -3.640
REMARK INTRA:                  -0.133
REMARK UNBOUND:                -0.135
REMARK  Name = /home/anacleto/Desktop/manuscript_Mpro/naturecomm/supplementary_file_S2/6-chemical-library/molecular_docking/3D_ligand_structure/1278.pdb
REMARK  1 active torsions:
REMARK  status: ('A' for Active; 'I' for Inactive)
REMARK    1  A    between atoms: C3_5  and  N3_6
REMARK                            x       y       z     vdW  Elec       q    Type
REMARK                         _______ _______ _______ _____ _____    ______ ____
ROOT
ATOM      1  N1  UNL     1     -25.321  -5.131 -24.232  0.00  0.00    +0.000 N 
ATOM      2  N2  UNL     1     -24.747  -4.417 -23.247  0.00  0.00    +0.000 NA
ATOM      3  C1  UNL     1     -24.174  -3.404 -23.897  0.00  0.00    +0.000 A 
ATOM      4  C2  UNL     1     -24.404  -3.458 -25.285  0.00  0.00    +0.000 A 
ATOM      5  C3  UNL     1     -25.190  -4.574 -25.483  0.00  0.00    +0.000 A 
ATOM      6  H1  UNL     1     -25.776  -6.001 -23.992  0.00  0.00    +0.000 HD
ENDROOT
BRANCH   5   7
ATOM      7  N3  UNL     1     -25.724  -5.153 -26.602  0.00  0.00    +0.000 N 
ATOM      8  C4  UNL     1     -27.051  -5.808 -26.531  0.00  0.00    +0.000 C 
ATOM      9  C5  UNL     1     -28.161  -4.793 -26.856  0.00  0.00    +0.000 C 
ATOM     10  O1  UNL     1     -27.962  -4.193 -28.149  0.00  0.00    +0.000 OA
ATOM     11  C6  UNL     1     -26.689  -3.524 -28.201  0.00  0.00    +0.000 C 
ATOM     12  C7  UNL     1     -25.532  -4.496 -27.916  0.00  0.00    +0.000 C 
ENDBRANCH   5   7
TORSDOF 1
ENDMDL
MODEL 8
REMARK VINA RESULT:    -3.437     11.230     12.941
REMARK INTER + INTRA:          -3.772
REMARK INTER:                  -3.632
REMARK INTRA:                  -0.141
REMARK UNBOUND:                -0.135
REMARK  Name = /home/anacleto/Desktop/manuscript_Mpro/naturecomm/supplementary_file_S2/6-chemical-library/molecular_docking/3D_ligand_structure/1278.pdb
REMARK  1 active torsions:
REMARK  status: ('A' for Active; 'I' for Inactive)
REMARK    1  A    between atoms: C3_5  and  N3_6
REMARK                            x       y       z     vdW  Elec       q    Type
REMARK                         _______ _______ _______ _____ _____    ______ ____
ROOT
ATOM      1  N1  UNL     1     -36.445  13.019 -30.676  0.00  0.00    +0.000 N 
ATOM      2  N2  UNL     1     -37.097  12.481 -29.629  0.00  0.00    +0.000 NA
ATOM      3  C1  UNL     1     -37.402  11.255 -30.056  0.00  0.00    +0.000 A 
ATOM      4  C2  UNL     1     -36.925  11.005 -31.357  0.00  0.00    +0.000 A 
ATOM      5  C3  UNL     1     -36.266  12.157 -31.733  0.00  0.00    +0.000 A 
ATOM      6  H1  UNL     1     -36.159  13.986 -30.617  0.00  0.00    +0.000 HD
ENDROOT
BRANCH   5   7
ATOM      7  N3  UNL     1     -35.610  12.526 -32.875  0.00  0.00    +0.000 N 
ATOM      8  C4  UNL     1     -34.732  13.720 -32.869  0.00  0.00    +0.000 C 
ATOM      9  C5  UNL     1     -33.294  13.317 -32.496  0.00  0.00    +0.000 C 
ATOM     10  O1  UNL     1     -32.781  12.316 -33.394  0.00  0.00    +0.000 OA
ATOM     11  C6  UNL     1     -33.613  11.143 -33.368  0.00  0.00    +0.000 C 
ATOM     12  C7  UNL     1     -35.062  11.475 -33.764  0.00  0.00    +0.000 C 
ENDBRANCH   5   7
TORSDOF 1
ENDMDL
MODEL 9
REMARK VINA RESULT:    -3.424      7.940      9.394
REMARK INTER + INTRA:          -3.758
REMARK INTER:                  -3.624
REMARK INTRA:                  -0.135
REMARK UNBOUND:                -0.135
REMARK  Name = /home/anacleto/Desktop/manuscript_Mpro/naturecomm/supplementary_file_S2/6-chemical-library/molecular_docking/3D_ligand_structure/1278.pdb
REMARK  1 active torsions:
REMARK  status: ('A' for Active; 'I' for Inactive)
REMARK    1  A    between atoms: C3_5  and  N3_6
REMARK                            x       y       z     vdW  Elec       q    Type
REMARK                         _______ _______ _______ _____ _____    ______ ____
ROOT
ATOM      1  N1  UNL     1     -20.812   6.534 -38.288  0.00  0.00    +0.000 N 
ATOM      2  N2  UNL     1     -22.052   6.018 -38.227  0.00  0.00    +0.000 NA
ATOM      3  C1  UNL     1     -22.821   7.091 -38.032  0.00  0.00    +0.000 A 
ATOM      4  C2  UNL     1     -22.076   8.285 -37.996  0.00  0.00    +0.000 A 
ATOM      5  C3  UNL     1     -20.766   7.906 -38.204  0.00  0.00    +0.000 A 
ATOM      6  H1  UNL     1     -20.031   5.898 -38.371  0.00  0.00    +0.000 HD
ENDROOT
BRANCH   5   7
ATOM      7  N3  UNL     1     -19.592   8.605 -38.266  0.00  0.00    +0.000 N 
ATOM      8  C4  UNL     1     -18.511   8.152 -39.172  0.00  0.00    +0.000 C 
ATOM      9  C5  UNL     1     -18.664   8.817 -40.552  0.00  0.00    +0.000 C 
ATOM     10  O1  UNL     1     -18.666  10.252 -40.445  0.00  0.00    +0.000 OA
ATOM     11  C6  UNL     1     -19.741  10.691 -39.595  0.00  0.00    +0.000 C 
ATOM     12  C7  UNL     1     -19.626  10.084 -38.187  0.00  0.00    +0.000 C 
ENDBRANCH   5   7
TORSDOF 1
ENDMDL
