MODEL 1
REMARK VINA RESULT:    -4.220      0.000      0.000
REMARK INTER + INTRA:          -4.709
REMARK INTER:                  -4.492
REMARK INTRA:                  -0.217
REMARK UNBOUND:                -0.242
REMARK  Name = /home/anacleto/Desktop/manuscript_Mpro/naturecomm/supplementary_file_S2/6-chemical-library/molecular_docking/3D_ligand_structure/1236.pdb
REMARK  1 active torsions:
REMARK  status: ('A' for Active; 'I' for Inactive)
REMARK    1  A    between atoms: C4_5  and  C5_6
REMARK                            x       y       z     vdW  Elec       q    Type
REMARK                         _______ _______ _______ _____ _____    ______ ____
ROOT
ATOM      1  C5  UNL     1      18.659   7.005  11.408  0.00  0.00    +0.000 C 
ATOM      2  C6  UNL     1      18.600   7.450  12.669  0.00  0.00    +0.000 C 
ATOM      3  C7  UNL     1      19.675   7.967  13.589  0.00  0.00    +0.000 C 
ATOM      4  O2  UNL     1      20.866   8.105  13.404  0.00  0.00    +0.000 OA
ATOM      5  N1  UNL     1      18.982   8.255  14.757  0.00  0.00    +0.000 N 
ATOM      6  C8  UNL     1      17.651   7.965  14.660  0.00  0.00    +0.000 C 
ATOM      7  C9  UNL     1      17.367   7.481  13.447  0.00  0.00    +0.000 C 
ATOM      8  H5  UNL     1      19.448   8.619  15.577  0.00  0.00    +0.000 HD
ENDROOT
BRANCH   1  13
ATOM      9  O1  UNL     1      20.804   6.020  10.817  0.00  0.00    +0.000 OA
ATOM     10  C1  UNL     1      21.763   6.154   9.872  0.00  0.00    +0.000 A 
ATOM     11  C2  UNL     1      21.416   7.131   8.978  0.00  0.00    +0.000 A 
ATOM     12  C3  UNL     1      20.163   7.623   9.414  0.00  0.00    +0.000 A 
ATOM     13  C4  UNL     1      19.805   6.942  10.572  0.00  0.00    +0.000 A 
ENDBRANCH   1  13
TORSDOF 1
ENDMDL
MODEL 2
REMARK VINA RESULT:    -4.202     15.397     17.063
REMARK INTER + INTRA:          -4.689
REMARK INTER:                  -4.463
REMARK INTRA:                  -0.226
REMARK UNBOUND:                -0.242
REMARK  Name = /home/anacleto/Desktop/manuscript_Mpro/naturecomm/supplementary_file_S2/6-chemical-library/molecular_docking/3D_ligand_structure/1236.pdb
REMARK  1 active torsions:
REMARK  status: ('A' for Active; 'I' for Inactive)
REMARK    1  A    between atoms: C4_5  and  C5_6
REMARK                            x       y       z     vdW  Elec       q    Type
REMARK                         _______ _______ _______ _____ _____    ______ ____
ROOT
ATOM      1  C5  UNL     1      15.535  10.693  -3.431  0.00  0.00    +0.000 C 
ATOM      2  C6  UNL     1      14.633  11.238  -4.258  0.00  0.00    +0.000 C 
ATOM      3  C7  UNL     1      14.282  12.677  -4.532  0.00  0.00    +0.000 C 
ATOM      4  O2  UNL     1      14.739  13.698  -4.064  0.00  0.00    +0.000 OA
ATOM      5  N1  UNL     1      13.266  12.582  -5.474  0.00  0.00    +0.000 N 
ATOM      6  C8  UNL     1      12.957  11.287  -5.781  0.00  0.00    +0.000 C 
ATOM      7  C9  UNL     1      13.732  10.447  -5.087  0.00  0.00    +0.000 C 
ATOM      8  H5  UNL     1      12.814  13.402  -5.853  0.00  0.00    +0.000 HD
ENDROOT
BRANCH   1  13
ATOM      9  O1  UNL     1      16.024  11.998  -1.437  0.00  0.00    +0.000 OA
ATOM     10  C1  UNL     1      17.092  12.552  -0.816  0.00  0.00    +0.000 A 
ATOM     11  C2  UNL     1      18.238  12.292  -1.518  0.00  0.00    +0.000 A 
ATOM     12  C3  UNL     1      17.835  11.531  -2.642  0.00  0.00    +0.000 A 
ATOM     13  C4  UNL     1      16.455  11.376  -2.593  0.00  0.00    +0.000 A 
ENDBRANCH   1  13
TORSDOF 1
ENDMDL
MODEL 3
REMARK VINA RESULT:    -4.168     16.364     17.540
REMARK INTER + INTRA:          -4.654
REMARK INTER:                  -4.409
REMARK INTRA:                  -0.245
REMARK UNBOUND:                -0.242
REMARK  Name = /home/anacleto/Desktop/manuscript_Mpro/naturecomm/supplementary_file_S2/6-chemical-library/molecular_docking/3D_ligand_structure/1236.pdb
REMARK  1 active torsions:
REMARK  status: ('A' for Active; 'I' for Inactive)
REMARK    1  A    between atoms: C4_5  and  C5_6
REMARK                            x       y       z     vdW  Elec       q    Type
REMARK                         _______ _______ _______ _____ _____    ______ ____
ROOT
ATOM      1  C5  UNL     1      14.595  14.102  -4.177  0.00  0.00    +0.000 C 
ATOM      2  C6  UNL     1      14.459  12.774  -4.278  0.00  0.00    +0.000 C 
ATOM      3  C7  UNL     1      14.849  11.663  -3.338  0.00  0.00    +0.000 C 
ATOM      4  O2  UNL     1      15.388  11.707  -2.253  0.00  0.00    +0.000 OA
ATOM      5  N1  UNL     1      14.454  10.519  -4.018  0.00  0.00    +0.000 N 
ATOM      6  C8  UNL     1      13.898  10.799  -5.234  0.00  0.00    +0.000 C 
ATOM      7  C9  UNL     1      13.879  12.119  -5.444  0.00  0.00    +0.000 C 
ATOM      8  H5  UNL     1      14.595   9.595  -3.633  0.00  0.00    +0.000 HD
ENDROOT
BRANCH   1  13
ATOM      9  O1  UNL     1      14.374  15.089  -1.964  0.00  0.00    +0.000 OA
ATOM     10  C1  UNL     1      15.127  15.771  -1.070  0.00  0.00    +0.000 A 
ATOM     11  C2  UNL     1      16.394  15.951  -1.556  0.00  0.00    +0.000 A 
ATOM     12  C3  UNL     1      16.407  15.338  -2.832  0.00  0.00    +0.000 A 
ATOM     13  C4  UNL     1      15.138  14.828  -3.085  0.00  0.00    +0.000 A 
ENDBRANCH   1  13
TORSDOF 1
ENDMDL
MODEL 4
REMARK VINA RESULT:    -4.079     15.740     17.260
REMARK INTER + INTRA:          -4.559
REMARK INTER:                  -4.330
REMARK INTRA:                  -0.229
REMARK UNBOUND:                -0.242
REMARK  Name = /home/anacleto/Desktop/manuscript_Mpro/naturecomm/supplementary_file_S2/6-chemical-library/molecular_docking/3D_ligand_structure/1236.pdb
REMARK  1 active torsions:
REMARK  status: ('A' for Active; 'I' for Inactive)
REMARK    1  A    between atoms: C4_5  and  C5_6
REMARK                            x       y       z     vdW  Elec       q    Type
REMARK                         _______ _______ _______ _____ _____    ______ ____
ROOT
ATOM      1  C5  UNL     1      15.541  10.976  -3.575  0.00  0.00    +0.000 C 
ATOM      2  C6  UNL     1      15.822  11.971  -2.724  0.00  0.00    +0.000 C 
ATOM      3  C7  UNL     1      15.450  13.430  -2.746  0.00  0.00    +0.000 C 
ATOM      4  O2  UNL     1      14.797  14.060  -3.550  0.00  0.00    +0.000 OA
ATOM      5  N1  UNL     1      16.052  13.929  -1.599  0.00  0.00    +0.000 N 
ATOM      6  C8  UNL     1      16.742  12.971  -0.911  0.00  0.00    +0.000 C 
ATOM      7  C9  UNL     1      16.645  11.791  -1.534  0.00  0.00    +0.000 C 
ATOM      8  H5  UNL     1      15.984  14.904  -1.343  0.00  0.00    +0.000 HD
ENDROOT
BRANCH   1  13
ATOM      9  O1  UNL     1      15.263  11.593  -5.912  0.00  0.00    +0.000 OA
ATOM     10  C1  UNL     1      14.320  11.526  -6.881  0.00  0.00    +0.000 A 
ATOM     11  C2  UNL     1      13.188  10.924  -6.401  0.00  0.00    +0.000 A 
ATOM     12  C3  UNL     1      13.464  10.608  -5.049  0.00  0.00    +0.000 A 
ATOM     13  C4  UNL     1      14.748  11.051  -4.750  0.00  0.00    +0.000 A 
ENDBRANCH   1  13
TORSDOF 1
ENDMDL
MODEL 5
REMARK VINA RESULT:    -4.045      1.598      2.144
REMARK INTER + INTRA:          -4.523
REMARK INTER:                  -4.279
REMARK INTRA:                  -0.244
REMARK UNBOUND:                -0.242
REMARK  Name = /home/anacleto/Desktop/manuscript_Mpro/naturecomm/supplementary_file_S2/6-chemical-library/molecular_docking/3D_ligand_structure/1236.pdb
REMARK  1 active torsions:
REMARK  status: ('A' for Active; 'I' for Inactive)
REMARK    1  A    between atoms: C4_5  and  C5_6
REMARK                            x       y       z     vdW  Elec       q    Type
REMARK                         _______ _______ _______ _____ _____    ______ ____
ROOT
ATOM      1  C5  UNL     1      20.725   6.934  11.580  0.00  0.00    +0.000 C 
ATOM      2  C6  UNL     1      20.123   7.320  12.712  0.00  0.00    +0.000 C 
ATOM      3  C7  UNL     1      18.685   7.661  13.004  0.00  0.00    +0.000 C 
ATOM      4  O2  UNL     1      17.718   7.668  12.274  0.00  0.00    +0.000 OA
ATOM      5  N1  UNL     1      18.706   7.996  14.352  0.00  0.00    +0.000 N 
ATOM      6  C8  UNL     1      19.958   7.915  14.892  0.00  0.00    +0.000 C 
ATOM      7  C9  UNL     1      20.840   7.524  13.966  0.00  0.00    +0.000 C 
ATOM      8  H5  UNL     1      17.870   8.282  14.842  0.00  0.00    +0.000 HD
ENDROOT
BRANCH   1  13
ATOM      9  O1  UNL     1      19.500   5.499  10.045  0.00  0.00    +0.000 OA
ATOM     10  C1  UNL     1      18.983   5.546   8.795  0.00  0.00    +0.000 A 
ATOM     11  C2  UNL     1      19.215   6.771   8.231  0.00  0.00    +0.000 A 
ATOM     12  C3  UNL     1      19.922   7.515   9.206  0.00  0.00    +0.000 A 
ATOM     13  C4  UNL     1      20.115   6.705  10.319  0.00  0.00    +0.000 A 
ENDBRANCH   1  13
TORSDOF 1
ENDMDL
MODEL 6
REMARK VINA RESULT:    -4.024      1.776      2.170
REMARK INTER + INTRA:          -4.502
REMARK INTER:                  -4.263
REMARK INTRA:                  -0.239
REMARK UNBOUND:                -0.242
REMARK  Name = /home/anacleto/Desktop/manuscript_Mpro/naturecomm/supplementary_file_S2/6-chemical-library/molecular_docking/3D_ligand_structure/1236.pdb
REMARK  1 active torsions:
REMARK  status: ('A' for Active; 'I' for Inactive)
REMARK    1  A    between atoms: C4_5  and  C5_6
REMARK                            x       y       z     vdW  Elec       q    Type
REMARK                         _______ _______ _______ _____ _____    ______ ____
ROOT
ATOM      1  C5  UNL     1      18.942   7.595  11.661  0.00  0.00    +0.000 C 
ATOM      2  C6  UNL     1      18.147   6.997  12.557  0.00  0.00    +0.000 C 
ATOM      3  C7  UNL     1      17.601   5.594  12.617  0.00  0.00    +0.000 C 
ATOM      4  O2  UNL     1      17.753   4.661  11.858  0.00  0.00    +0.000 OA
ATOM      5  N1  UNL     1      16.838   5.600  13.777  0.00  0.00    +0.000 N 
ATOM      6  C8  UNL     1      16.845   6.816  14.401  0.00  0.00    +0.000 C 
ATOM      7  C9  UNL     1      17.601   7.684  13.721  0.00  0.00    +0.000 C 
ATOM      8  H5  UNL     1      16.330   4.783  14.084  0.00  0.00    +0.000 HD
ENDROOT
BRANCH   1  13
ATOM      9  O1  UNL     1      20.762   6.399  10.575  0.00  0.00    +0.000 OA
ATOM     10  C1  UNL     1      21.076   5.909   9.353  0.00  0.00    +0.000 A 
ATOM     11  C2  UNL     1      20.063   6.157   8.467  0.00  0.00    +0.000 A 
ATOM     12  C3  UNL     1      19.068   6.845   9.203  0.00  0.00    +0.000 A 
ATOM     13  C4  UNL     1      19.525   7.011  10.506  0.00  0.00    +0.000 A 
ENDBRANCH   1  13
TORSDOF 1
ENDMDL
MODEL 7
REMARK VINA RESULT:    -3.946      2.095      4.691
REMARK INTER + INTRA:          -4.419
REMARK INTER:                  -4.197
REMARK INTRA:                  -0.222
REMARK UNBOUND:                -0.242
REMARK  Name = /home/anacleto/Desktop/manuscript_Mpro/naturecomm/supplementary_file_S2/6-chemical-library/molecular_docking/3D_ligand_structure/1236.pdb
REMARK  1 active torsions:
REMARK  status: ('A' for Active; 'I' for Inactive)
REMARK    1  A    between atoms: C4_5  and  C5_6
REMARK                            x       y       z     vdW  Elec       q    Type
REMARK                         _______ _______ _______ _____ _____    ______ ____
ROOT
ATOM      1  C5  UNL     1      18.890   7.658  11.049  0.00  0.00    +0.000 C 
ATOM      2  C6  UNL     1      19.607   6.785  10.330  0.00  0.00    +0.000 C 
ATOM      3  C7  UNL     1      20.465   5.621  10.752  0.00  0.00    +0.000 C 
ATOM      4  O2  UNL     1      20.714   5.192  11.859  0.00  0.00    +0.000 OA
ATOM      5  N1  UNL     1      20.944   5.126   9.547  0.00  0.00    +0.000 N 
ATOM      6  C8  UNL     1      20.501   5.846   8.473  0.00  0.00    +0.000 C 
ATOM      7  C9  UNL     1      19.709   6.844   8.877  0.00  0.00    +0.000 C 
ATOM      8  H5  UNL     1      21.567   4.332   9.508  0.00  0.00    +0.000 HD
ENDROOT
BRANCH   1  13
ATOM      9  O1  UNL     1      19.765   8.069  13.283  0.00  0.00    +0.000 OA
ATOM     10  C1  UNL     1      19.346   8.020  14.569  0.00  0.00    +0.000 A 
ATOM     11  C2  UNL     1      18.035   7.630  14.626  0.00  0.00    +0.000 A 
ATOM     12  C3  UNL     1      17.635   7.427  13.283  0.00  0.00    +0.000 A 
ATOM     13  C4  UNL     1      18.727   7.678  12.460  0.00  0.00    +0.000 A 
ENDBRANCH   1  13
TORSDOF 1
ENDMDL
MODEL 8
REMARK VINA RESULT:    -3.878     14.741     16.166
REMARK INTER + INTRA:          -4.346
REMARK INTER:                  -4.109
REMARK INTRA:                  -0.237
REMARK UNBOUND:                -0.242
REMARK  Name = /home/anacleto/Desktop/manuscript_Mpro/naturecomm/supplementary_file_S2/6-chemical-library/molecular_docking/3D_ligand_structure/1236.pdb
REMARK  1 active torsions:
REMARK  status: ('A' for Active; 'I' for Inactive)
REMARK    1  A    between atoms: C4_5  and  C5_6
REMARK                            x       y       z     vdW  Elec       q    Type
REMARK                         _______ _______ _______ _____ _____    ______ ____
ROOT
ATOM      1  C5  UNL     1      15.760  15.552  -0.397  0.00  0.00    +0.000 C 
ATOM      2  C6  UNL     1      14.790  15.552  -1.319  0.00  0.00    +0.000 C 
ATOM      3  C7  UNL     1      14.731  14.946  -2.697  0.00  0.00    +0.000 C 
ATOM      4  O2  UNL     1      15.560  14.306  -3.307  0.00  0.00    +0.000 OA
ATOM      5  N1  UNL     1      13.468  15.305  -3.148  0.00  0.00    +0.000 N 
ATOM      6  C8  UNL     1      12.779  16.052  -2.234  0.00  0.00    +0.000 C 
ATOM      7  C9  UNL     1      13.514  16.234  -1.133  0.00  0.00    +0.000 C 
ATOM      8  H5  UNL     1      13.136  15.043  -4.065  0.00  0.00    +0.000 HD
ENDROOT
BRANCH   1  13
ATOM      9  O1  UNL     1      17.125  13.538  -0.432  0.00  0.00    +0.000 OA
ATOM     10  C1  UNL     1      18.427  13.188  -0.557  0.00  0.00    +0.000 A 
ATOM     11  C2  UNL     1      19.205  14.303  -0.720  0.00  0.00    +0.000 A 
ATOM     12  C3  UNL     1      18.312  15.402  -0.688  0.00  0.00    +0.000 A 
ATOM     13  C4  UNL     1      17.026  14.915  -0.484  0.00  0.00    +0.000 A 
ENDBRANCH   1  13
TORSDOF 1
ENDMDL
MODEL 9
REMARK VINA RESULT:    -3.841     17.848     19.367
REMARK INTER + INTRA:          -4.307
REMARK INTER:                  -4.065
REMARK INTRA:                  -0.242
REMARK UNBOUND:                -0.242
REMARK  Name = /home/anacleto/Desktop/manuscript_Mpro/naturecomm/supplementary_file_S2/6-chemical-library/molecular_docking/3D_ligand_structure/1236.pdb
REMARK  1 active torsions:
REMARK  status: ('A' for Active; 'I' for Inactive)
REMARK    1  A    between atoms: C4_5  and  C5_6
REMARK                            x       y       z     vdW  Elec       q    Type
REMARK                         _______ _______ _______ _____ _____    ______ ____
ROOT
ATOM      1  C5  UNL     1      15.067  12.383  -7.198  0.00  0.00    +0.000 C 
ATOM      2  C6  UNL     1      14.633  11.656  -6.160  0.00  0.00    +0.000 C 
ATOM      3  C7  UNL     1      15.320  11.237  -4.887  0.00  0.00    +0.000 C 
ATOM      4  O2  UNL     1      16.445  11.461  -4.493  0.00  0.00    +0.000 OA
ATOM      5  N1  UNL     1      14.348  10.492  -4.233  0.00  0.00    +0.000 N 
ATOM      6  C8  UNL     1      13.189  10.399  -4.950  0.00  0.00    +0.000 C 
ATOM      7  C9  UNL     1      13.301  11.066  -6.103  0.00  0.00    +0.000 C 
ATOM      8  H5  UNL     1      14.522  10.062  -3.335  0.00  0.00    +0.000 HD
ENDROOT
BRANCH   1  13
ATOM      9  O1  UNL     1      16.658  14.128  -6.611  0.00  0.00    +0.000 OA
ATOM     10  C1  UNL     1      17.924  14.500  -6.914  0.00  0.00    +0.000 A 
ATOM     11  C2  UNL     1      18.472  13.628  -7.815  0.00  0.00    +0.000 A 
ATOM     12  C3  UNL     1      17.469  12.664  -8.076  0.00  0.00    +0.000 A 
ATOM     13  C4  UNL     1      16.338  13.000  -7.341  0.00  0.00    +0.000 A 
ENDBRANCH   1  13
TORSDOF 1
ENDMDL
