MODEL 1
REMARK VINA RESULT:    -6.272      0.000      0.000
REMARK INTER + INTRA:          -7.453
REMARK INTER:                  -7.004
REMARK INTRA:                  -0.448
REMARK UNBOUND:                -0.448
REMARK  Name = /home/anacleto/Desktop/manuscript_Mpro/naturecomm/supplementary_file_S2/6-chemical-library/molecular_docking/3D_ligand_structure/390.pdb
REMARK  2 active torsions:
REMARK  status: ('A' for Active; 'I' for Inactive)
REMARK    1  A    between atoms: C6_6  and  C7_7
REMARK    2  A    between atoms: C7_7  and  C8_8
REMARK                            x       y       z     vdW  Elec       q    Type
REMARK                         _______ _______ _______ _____ _____    ______ ____
ROOT
ATOM      1  C8  UNL     1     -20.610  -6.764 -31.015  0.00  0.00    +0.000 C 
ATOM      2  C9  UNL     1     -20.253  -6.823 -29.506  0.00  0.00    +0.000 C 
ATOM      3  O1  UNL     1     -20.959  -7.380 -28.661  0.00  0.00    +0.000 OA
ATOM      4  N1  UNL     1     -21.849  -7.513 -31.271  0.00  0.00    +0.000 N 
ATOM      5  C10 UNL     1     -21.883  -8.893 -31.324  0.00  0.00    +0.000 C 
ATOM      6  O2  UNL     1     -20.880  -9.596 -31.283  0.00  0.00    +0.000 OA
ATOM      7  C11 UNL     1     -23.273  -9.447 -31.553  0.00  0.00    +0.000 C 
ATOM      8  C12 UNL     1     -23.423 -10.893 -31.099  0.00  0.00    +0.000 C 
ATOM      9  S1  UNL     1     -23.497 -11.138 -29.284  0.00  0.00    +0.000 S 
ATOM     10  S2  UNL     1     -25.215 -10.150 -28.727  0.00  0.00    +0.000 S 
ATOM     11  C13 UNL     1     -24.575  -8.526 -28.212  0.00  0.00    +0.000 C 
ATOM     12  C14 UNL     1     -25.663  -7.461 -28.324  0.00  0.00    +0.000 C 
ATOM     13  N2  UNL     1     -25.133  -6.144 -28.018  0.00  0.00    +0.000 N 
ATOM     14  C15 UNL     1     -25.959  -5.056 -27.818  0.00  0.00    +0.000 C 
ATOM     15  O3  UNL     1     -27.185  -5.128 -27.845  0.00  0.00    +0.000 OA
ATOM     16  C16 UNL     1     -25.219  -3.714 -27.686  0.00  0.00    +0.000 C 
ATOM     17  N3  UNL     1     -24.050  -3.795 -26.816  0.00  0.00    +0.000 N 
ATOM     18  C17 UNL     1     -22.854  -4.318 -27.258  0.00  0.00    +0.000 C 
ATOM     19  O4  UNL     1     -22.699  -4.689 -28.421  0.00  0.00    +0.000 OA
ATOM     20  C18 UNL     1     -21.793  -4.463 -26.161  0.00  0.00    +0.000 C 
ATOM     21  N4  UNL     1     -20.753  -5.379 -26.580  0.00  0.00    +0.000 N 
ATOM     22  C19 UNL     1     -19.556  -4.911 -27.082  0.00  0.00    +0.000 C 
ATOM     23  O5  UNL     1     -19.223  -3.729 -27.065  0.00  0.00    +0.000 OA
ATOM     24  C20 UNL     1     -18.720  -5.997 -27.758  0.00  0.00    +0.000 C 
ATOM     25  N5  UNL     1     -19.124  -6.115 -29.145  0.00  0.00    +0.000 N 
ATOM     26  H9  UNL     1     -22.701  -7.048 -30.987  0.00  0.00    +0.000 HD
ATOM     27  H18 UNL     1     -24.204  -5.916 -28.371  0.00  0.00    +0.000 HD
ATOM     28  H21 UNL     1     -24.210  -3.709 -25.820  0.00  0.00    +0.000 HD
ATOM     29  H24 UNL     1     -21.063  -6.262 -26.992  0.00  0.00    +0.000 HD
ATOM     30  H27 UNL     1     -18.774  -5.406 -29.781  0.00  0.00    +0.000 HD
ENDROOT
BRANCH   1  31
ATOM     31  C7  UNL     1     -19.451  -7.185 -31.944  0.00  0.00    +0.000 C 
BRANCH  31  37
ATOM     32  C1  UNL     1     -18.596  -6.859 -34.310  0.00  0.00    +0.000 A 
ATOM     33  C2  UNL     1     -18.530  -6.130 -35.497  0.00  0.00    +0.000 A 
ATOM     34  C3  UNL     1     -19.216  -4.923 -35.617  0.00  0.00    +0.000 A 
ATOM     35  C4  UNL     1     -19.962  -4.439 -34.545  0.00  0.00    +0.000 A 
ATOM     36  C5  UNL     1     -20.030  -5.165 -33.356  0.00  0.00    +0.000 A 
ATOM     37  C6  UNL     1     -19.359  -6.390 -33.230  0.00  0.00    +0.000 A 
ENDBRANCH  31  37
ENDBRANCH   1  31
TORSDOF 2
ENDMDL
MODEL 2
REMARK VINA RESULT:    -6.019      3.851      4.945
REMARK INTER + INTRA:          -7.170
REMARK INTER:                  -6.686
REMARK INTRA:                  -0.485
REMARK UNBOUND:                -0.448
REMARK  Name = /home/anacleto/Desktop/manuscript_Mpro/naturecomm/supplementary_file_S2/6-chemical-library/molecular_docking/3D_ligand_structure/390.pdb
REMARK  2 active torsions:
REMARK  status: ('A' for Active; 'I' for Inactive)
REMARK    1  A    between atoms: C6_6  and  C7_7
REMARK    2  A    between atoms: C7_7  and  C8_8
REMARK                            x       y       z     vdW  Elec       q    Type
REMARK                         _______ _______ _______ _____ _____    ______ ____
ROOT
ATOM      1  C8  UNL     1     -24.748  -8.085 -30.330  0.00  0.00    +0.000 C 
ATOM      2  C9  UNL     1     -23.998  -7.078 -29.419  0.00  0.00    +0.000 C 
ATOM      3  O1  UNL     1     -23.908  -7.204 -28.194  0.00  0.00    +0.000 OA
ATOM      4  N1  UNL     1     -25.257  -9.209 -29.530  0.00  0.00    +0.000 N 
ATOM      5  C10 UNL     1     -24.440 -10.230 -29.085  0.00  0.00    +0.000 C 
ATOM      6  O2  UNL     1     -23.266 -10.350 -29.414  0.00  0.00    +0.000 OA
ATOM      7  C11 UNL     1     -25.171 -11.254 -28.241  0.00  0.00    +0.000 C 
ATOM      8  C12 UNL     1     -24.245 -12.053 -27.334  0.00  0.00    +0.000 C 
ATOM      9  S1  UNL     1     -23.599 -11.141 -25.880  0.00  0.00    +0.000 S 
ATOM     10  S2  UNL     1     -25.287 -10.707 -24.786  0.00  0.00    +0.000 S 
ATOM     11  C13 UNL     1     -25.677  -9.016 -25.335  0.00  0.00    +0.000 C 
ATOM     12  C14 UNL     1     -27.160  -8.714 -25.129  0.00  0.00    +0.000 C 
ATOM     13  N2  UNL     1     -27.501  -7.407 -25.663  0.00  0.00    +0.000 N 
ATOM     14  C15 UNL     1     -28.714  -6.806 -25.392  0.00  0.00    +0.000 C 
ATOM     15  O3  UNL     1     -29.564  -7.306 -24.660  0.00  0.00    +0.000 OA
ATOM     16  C16 UNL     1     -28.971  -5.513 -26.186  0.00  0.00    +0.000 C 
ATOM     17  N3  UNL     1     -27.813  -4.627 -26.216  0.00  0.00    +0.000 N 
ATOM     18  C17 UNL     1     -26.756  -4.845 -27.074  0.00  0.00    +0.000 C 
ATOM     19  O4  UNL     1     -26.765  -5.765 -27.892  0.00  0.00    +0.000 OA
ATOM     20  C18 UNL     1     -25.568  -3.903 -26.852  0.00  0.00    +0.000 C 
ATOM     21  N4  UNL     1     -24.373  -4.442 -27.468  0.00  0.00    +0.000 N 
ATOM     22  C19 UNL     1     -23.949  -3.995 -28.703  0.00  0.00    +0.000 C 
ATOM     23  O5  UNL     1     -24.437  -3.031 -29.285  0.00  0.00    +0.000 OA
ATOM     24  C20 UNL     1     -22.874  -4.883 -29.327  0.00  0.00    +0.000 C 
ATOM     25  N5  UNL     1     -23.512  -5.957 -30.063  0.00  0.00    +0.000 N 
ATOM     26  H9  UNL     1     -26.076  -9.006 -28.973  0.00  0.00    +0.000 HD
ATOM     27  H18 UNL     1     -27.077  -7.135 -26.549  0.00  0.00    +0.000 HD
ATOM     28  H21 UNL     1     -27.682  -4.013 -25.423  0.00  0.00    +0.000 HD
ATOM     29  H24 UNL     1     -24.173  -5.428 -27.288  0.00  0.00    +0.000 HD
ATOM     30  H27 UNL     1     -23.890  -5.721 -30.974  0.00  0.00    +0.000 HD
ENDROOT
BRANCH   1  31
ATOM     31  C7  UNL     1     -23.928  -8.542 -31.556  0.00  0.00    +0.000 C 
BRANCH  31  37
ATOM     32  C1  UNL     1     -24.280 -10.335 -33.316  0.00  0.00    +0.000 A 
ATOM     33  C2  UNL     1     -25.049 -10.937 -34.312  0.00  0.00    +0.000 A 
ATOM     34  C3  UNL     1     -26.287 -10.402 -34.660  0.00  0.00    +0.000 A 
ATOM     35  C4  UNL     1     -26.755  -9.257 -34.018  0.00  0.00    +0.000 A 
ATOM     36  C5  UNL     1     -25.988  -8.651 -33.023  0.00  0.00    +0.000 A 
ATOM     37  C6  UNL     1     -24.749  -9.192 -32.651  0.00  0.00    +0.000 A 
ENDBRANCH  31  37
ENDBRANCH   1  31
TORSDOF 2
ENDMDL
MODEL 3
REMARK VINA RESULT:    -5.635      3.540      8.408
REMARK INTER + INTRA:          -6.742
REMARK INTER:                  -6.272
REMARK INTRA:                  -0.469
REMARK UNBOUND:                -0.448
REMARK  Name = /home/anacleto/Desktop/manuscript_Mpro/naturecomm/supplementary_file_S2/6-chemical-library/molecular_docking/3D_ligand_structure/390.pdb
REMARK  2 active torsions:
REMARK  status: ('A' for Active; 'I' for Inactive)
REMARK    1  A    between atoms: C6_6  and  C7_7
REMARK    2  A    between atoms: C7_7  and  C8_8
REMARK                            x       y       z     vdW  Elec       q    Type
REMARK                         _______ _______ _______ _____ _____    ______ ____
ROOT
ATOM      1  C8  UNL     1     -25.295  -6.096 -25.108  0.00  0.00    +0.000 C 
ATOM      2  C9  UNL     1     -25.704  -5.651 -26.537  0.00  0.00    +0.000 C 
ATOM      3  O1  UNL     1     -25.991  -6.442 -27.440  0.00  0.00    +0.000 OA
ATOM      4  N1  UNL     1     -25.370  -7.560 -24.993  0.00  0.00    +0.000 N 
ATOM      5  C10 UNL     1     -26.569  -8.231 -24.853  0.00  0.00    +0.000 C 
ATOM      6  O2  UNL     1     -27.645  -7.668 -24.692  0.00  0.00    +0.000 OA
ATOM      7  C11 UNL     1     -26.407  -9.736 -24.800  0.00  0.00    +0.000 C 
ATOM      8  C12 UNL     1     -27.678 -10.488 -25.173  0.00  0.00    +0.000 C 
ATOM      9  S1  UNL     1     -28.098 -10.477 -26.958  0.00  0.00    +0.000 S 
ATOM     10  S2  UNL     1     -26.527 -11.476 -27.836  0.00  0.00    +0.000 S 
ATOM     11  C13 UNL     1     -25.444 -10.109 -28.356  0.00  0.00    +0.000 C 
ATOM     12  C14 UNL     1     -24.000 -10.589 -28.484  0.00  0.00    +0.000 C 
ATOM     13  N2  UNL     1     -23.113  -9.482 -28.794  0.00  0.00    +0.000 N 
ATOM     14  C15 UNL     1     -21.806  -9.687 -29.191  0.00  0.00    +0.000 C 
ATOM     15  O3  UNL     1     -21.318 -10.803 -29.347  0.00  0.00    +0.000 OA
ATOM     16  C16 UNL     1     -20.968  -8.402 -29.301  0.00  0.00    +0.000 C 
ATOM     17  N3  UNL     1     -21.676  -7.319 -29.974  0.00  0.00    +0.000 N 
ATOM     18  C17 UNL     1     -22.617  -6.552 -29.321  0.00  0.00    +0.000 C 
ATOM     19  O4  UNL     1     -22.862  -6.708 -28.125  0.00  0.00    +0.000 OA
ATOM     20  C18 UNL     1     -23.363  -5.570 -30.231  0.00  0.00    +0.000 C 
ATOM     21  N4  UNL     1     -24.585  -5.120 -29.596  0.00  0.00    +0.000 N 
ATOM     22  C19 UNL     1     -24.640  -3.902 -28.951  0.00  0.00    +0.000 C 
ATOM     23  O5  UNL     1     -23.747  -3.062 -28.998  0.00  0.00    +0.000 OA
ATOM     24  C20 UNL     1     -25.888  -3.737 -28.084  0.00  0.00    +0.000 C 
ATOM     25  N5  UNL     1     -25.630  -4.292 -26.770  0.00  0.00    +0.000 N 
ATOM     26  H9  UNL     1     -24.614  -8.066 -25.436  0.00  0.00    +0.000 HD
ATOM     27  H18 UNL     1     -23.281  -8.596 -28.320  0.00  0.00    +0.000 HD
ATOM     28  H21 UNL     1     -21.658  -7.316 -30.986  0.00  0.00    +0.000 HD
ATOM     29  H24 UNL     1     -25.173  -5.843 -29.178  0.00  0.00    +0.000 HD
ATOM     30  H27 UNL     1     -25.077  -3.723 -26.138  0.00  0.00    +0.000 HD
ENDROOT
BRANCH   1  31
ATOM     31  C7  UNL     1     -26.066  -5.366 -23.987  0.00  0.00    +0.000 C 
BRANCH  31  37
ATOM     32  C1  UNL     1     -26.173  -5.564 -21.461  0.00  0.00    +0.000 A 
ATOM     33  C2  UNL     1     -25.555  -5.641 -20.212  0.00  0.00    +0.000 A 
ATOM     34  C3  UNL     1     -24.167  -5.580 -20.113  0.00  0.00    +0.000 A 
ATOM     35  C4  UNL     1     -23.394  -5.431 -21.263  0.00  0.00    +0.000 A 
ATOM     36  C5  UNL     1     -24.008  -5.352 -22.513  0.00  0.00    +0.000 A 
ATOM     37  C6  UNL     1     -25.404  -5.432 -22.626  0.00  0.00    +0.000 A 
ENDBRANCH  31  37
ENDBRANCH   1  31
TORSDOF 2
ENDMDL
MODEL 4
REMARK VINA RESULT:    -5.534      9.854     12.534
REMARK INTER + INTRA:          -6.629
REMARK INTER:                  -6.146
REMARK INTRA:                  -0.483
REMARK UNBOUND:                -0.448
REMARK  Name = /home/anacleto/Desktop/manuscript_Mpro/naturecomm/supplementary_file_S2/6-chemical-library/molecular_docking/3D_ligand_structure/390.pdb
REMARK  2 active torsions:
REMARK  status: ('A' for Active; 'I' for Inactive)
REMARK    1  A    between atoms: C6_6  and  C7_7
REMARK    2  A    between atoms: C7_7  and  C8_8
REMARK                            x       y       z     vdW  Elec       q    Type
REMARK                         _______ _______ _______ _____ _____    ______ ____
ROOT
ATOM      1  C8  UNL     1     -23.591  -8.161 -18.599  0.00  0.00    +0.000 C 
ATOM      2  C9  UNL     1     -23.997  -6.799 -19.222  0.00  0.00    +0.000 C 
ATOM      3  O1  UNL     1     -24.987  -6.155 -18.864  0.00  0.00    +0.000 OA
ATOM      4  N1  UNL     1     -24.509  -8.510 -17.504  0.00  0.00    +0.000 N 
ATOM      5  C10 UNL     1     -24.430  -7.922 -16.257  0.00  0.00    +0.000 C 
ATOM      6  O2  UNL     1     -23.529  -7.162 -15.922  0.00  0.00    +0.000 OA
ATOM      7  C11 UNL     1     -25.505  -8.401 -15.303  0.00  0.00    +0.000 C 
ATOM      8  C12 UNL     1     -25.767  -7.429 -14.160  0.00  0.00    +0.000 C 
ATOM      9  S1  UNL     1     -26.686  -5.911 -14.621  0.00  0.00    +0.000 S 
ATOM     10  S2  UNL     1     -28.517  -6.618 -15.243  0.00  0.00    +0.000 S 
ATOM     11  C13 UNL     1     -28.300  -6.711 -17.048  0.00  0.00    +0.000 C 
ATOM     12  C14 UNL     1     -29.264  -7.731 -17.651  0.00  0.00    +0.000 C 
ATOM     13  N2  UNL     1     -29.024  -7.891 -19.074  0.00  0.00    +0.000 N 
ATOM     14  C15 UNL     1     -29.909  -8.570 -19.888  0.00  0.00    +0.000 C 
ATOM     15  O3  UNL     1     -30.965  -9.047 -19.483  0.00  0.00    +0.000 OA
ATOM     16  C16 UNL     1     -29.404  -8.794 -21.324  0.00  0.00    +0.000 C 
ATOM     17  N3  UNL     1     -28.792  -7.603 -21.902  0.00  0.00    +0.000 N 
ATOM     18  C17 UNL     1     -27.501  -7.230 -21.595  0.00  0.00    +0.000 C 
ATOM     19  O4  UNL     1     -26.786  -7.914 -20.862  0.00  0.00    +0.000 OA
ATOM     20  C18 UNL     1     -27.089  -5.872 -22.174  0.00  0.00    +0.000 C 
ATOM     21  N4  UNL     1     -25.922  -5.361 -21.485  0.00  0.00    +0.000 N 
ATOM     22  C19 UNL     1     -24.662  -5.497 -22.030  0.00  0.00    +0.000 C 
ATOM     23  O5  UNL     1     -24.449  -5.900 -23.169  0.00  0.00    +0.000 OA
ATOM     24  C20 UNL     1     -23.541  -5.191 -21.037  0.00  0.00    +0.000 C 
ATOM     25  N5  UNL     1     -23.223  -6.393 -20.291  0.00  0.00    +0.000 N 
ATOM     26  H9  UNL     1     -25.419  -8.842 -17.794  0.00  0.00    +0.000 HD
ATOM     27  H18 UNL     1     -28.056  -7.905 -19.391  0.00  0.00    +0.000 HD
ATOM     28  H21 UNL     1     -29.414  -6.920 -22.318  0.00  0.00    +0.000 HD
ATOM     29  H24 UNL     1     -25.944  -5.399 -20.464  0.00  0.00    +0.000 HD
ATOM     30  H27 UNL     1     -22.655  -7.085 -20.768  0.00  0.00    +0.000 HD
ENDROOT
BRANCH   1  31
ATOM     31  C7  UNL     1     -22.106  -8.235 -18.184  0.00  0.00    +0.000 C 
BRANCH  31  37
ATOM     32  C1  UNL     1     -21.853 -10.030 -19.958  0.00  0.00    +0.000 A 
ATOM     33  C2  UNL     1     -21.117 -11.037 -20.584  0.00  0.00    +0.000 A 
ATOM     34  C3  UNL     1     -19.850 -11.373 -20.113  0.00  0.00    +0.000 A 
ATOM     35  C4  UNL     1     -19.319 -10.708 -19.009  0.00  0.00    +0.000 A 
ATOM     36  C5  UNL     1     -20.052  -9.702 -18.381  0.00  0.00    +0.000 A 
ATOM     37  C6  UNL     1     -21.322  -9.342 -18.858  0.00  0.00    +0.000 A 
ENDBRANCH  31  37
ENDBRANCH   1  31
TORSDOF 2
ENDMDL
MODEL 5
REMARK VINA RESULT:    -5.490      7.717     10.020
REMARK INTER + INTRA:          -6.579
REMARK INTER:                  -6.355
REMARK INTRA:                  -0.225
REMARK UNBOUND:                -0.448
REMARK  Name = /home/anacleto/Desktop/manuscript_Mpro/naturecomm/supplementary_file_S2/6-chemical-library/molecular_docking/3D_ligand_structure/390.pdb
REMARK  2 active torsions:
REMARK  status: ('A' for Active; 'I' for Inactive)
REMARK    1  A    between atoms: C6_6  and  C7_7
REMARK    2  A    between atoms: C7_7  and  C8_8
REMARK                            x       y       z     vdW  Elec       q    Type
REMARK                         _______ _______ _______ _____ _____    ______ ____
ROOT
ATOM      1  C8  UNL     1     -25.939  -6.609 -22.831  0.00  0.00    +0.000 C 
ATOM      2  C9  UNL     1     -24.951  -6.902 -21.671  0.00  0.00    +0.000 C 
ATOM      3  O1  UNL     1     -25.085  -7.844 -20.884  0.00  0.00    +0.000 OA
ATOM      4  N1  UNL     1     -26.986  -7.641 -22.877  0.00  0.00    +0.000 N 
ATOM      5  C10 UNL     1     -26.760  -8.901 -23.396  0.00  0.00    +0.000 C 
ATOM      6  O2  UNL     1     -25.724  -9.223 -23.963  0.00  0.00    +0.000 OA
ATOM      7  C11 UNL     1     -27.967  -9.811 -23.296  0.00  0.00    +0.000 C 
ATOM      8  C12 UNL     1     -27.608 -11.290 -23.358  0.00  0.00    +0.000 C 
ATOM      9  S1  UNL     1     -26.824 -11.967 -21.845  0.00  0.00    +0.000 S 
ATOM     10  S2  UNL     1     -28.281 -11.761 -20.406  0.00  0.00    +0.000 S 
ATOM     11  C13 UNL     1     -27.821 -10.187 -19.616  0.00  0.00    +0.000 C 
ATOM     12  C14 UNL     1     -29.037  -9.545 -18.952  0.00  0.00    +0.000 C 
ATOM     13  N2  UNL     1     -28.703  -8.239 -18.412  0.00  0.00    +0.000 N 
ATOM     14  C15 UNL     1     -29.558  -7.563 -17.564  0.00  0.00    +0.000 C 
ATOM     15  O3  UNL     1     -30.627  -8.026 -17.178  0.00  0.00    +0.000 OA
ATOM     16  C16 UNL     1     -29.121  -6.124 -17.239  0.00  0.00    +0.000 C 
ATOM     17  N3  UNL     1     -27.700  -6.019 -16.929  0.00  0.00    +0.000 N 
ATOM     18  C17 UNL     1     -26.742  -5.999 -17.920  0.00  0.00    +0.000 C 
ATOM     19  O4  UNL     1     -27.044  -6.012 -19.113  0.00  0.00    +0.000 OA
ATOM     20  C18 UNL     1     -25.301  -6.042 -17.397  0.00  0.00    +0.000 C 
ATOM     21  N4  UNL     1     -24.391  -6.439 -18.452  0.00  0.00    +0.000 N 
ATOM     22  C19 UNL     1     -23.659  -5.498 -19.146  0.00  0.00    +0.000 C 
ATOM     23  O5  UNL     1     -23.598  -4.312 -18.833  0.00  0.00    +0.000 OA
ATOM     24  C20 UNL     1     -23.006  -6.056 -20.410  0.00  0.00    +0.000 C 
ATOM     25  N5  UNL     1     -23.946  -5.969 -21.509  0.00  0.00    +0.000 N 
ATOM     26  H9  UNL     1     -27.700  -7.563 -22.164  0.00  0.00    +0.000 HD
ATOM     27  H18 UNL     1     -28.092  -7.641 -18.968  0.00  0.00    +0.000 HD
ATOM     28  H21 UNL     1     -27.419  -6.228 -15.980  0.00  0.00    +0.000 HD
ATOM     29  H24 UNL     1     -24.666  -7.250 -19.008  0.00  0.00    +0.000 HD
ATOM     30  H27 UNL     1     -24.062  -5.055 -21.935  0.00  0.00    +0.000 HD
ENDROOT
BRANCH   1  31
ATOM     31  C7  UNL     1     -25.249  -6.393 -24.194  0.00  0.00    +0.000 C 
BRANCH  31  37
ATOM     32  C1  UNL     1     -27.372  -5.953 -25.510  0.00  0.00    +0.000 A 
ATOM     33  C2  UNL     1     -28.118  -5.193 -26.411  0.00  0.00    +0.000 A 
ATOM     34  C3  UNL     1     -27.559  -4.062 -27.004  0.00  0.00    +0.000 A 
ATOM     35  C4  UNL     1     -26.249  -3.696 -26.702  0.00  0.00    +0.000 A 
ATOM     36  C5  UNL     1     -25.500  -4.454 -25.803  0.00  0.00    +0.000 A 
ATOM     37  C6  UNL     1     -26.059  -5.583 -25.186  0.00  0.00    +0.000 A 
ENDBRANCH  31  37
ENDBRANCH   1  31
TORSDOF 2
ENDMDL
MODEL 6
REMARK VINA RESULT:    -5.463      4.919      9.244
REMARK INTER + INTRA:          -6.549
REMARK INTER:                  -6.054
REMARK INTRA:                  -0.496
REMARK UNBOUND:                -0.448
REMARK  Name = /home/anacleto/Desktop/manuscript_Mpro/naturecomm/supplementary_file_S2/6-chemical-library/molecular_docking/3D_ligand_structure/390.pdb
REMARK  2 active torsions:
REMARK  status: ('A' for Active; 'I' for Inactive)
REMARK    1  A    between atoms: C6_6  and  C7_7
REMARK    2  A    between atoms: C7_7  and  C8_8
REMARK                            x       y       z     vdW  Elec       q    Type
REMARK                         _______ _______ _______ _____ _____    ______ ____
ROOT
ATOM      1  C8  UNL     1     -25.691  -6.105 -23.955  0.00  0.00    +0.000 C 
ATOM      2  C9  UNL     1     -26.295  -5.554 -25.274  0.00  0.00    +0.000 C 
ATOM      3  O1  UNL     1     -27.040  -6.210 -26.007  0.00  0.00    +0.000 OA
ATOM      4  N1  UNL     1     -26.190  -7.465 -23.699  0.00  0.00    +0.000 N 
ATOM      5  C10 UNL     1     -27.460  -7.708 -23.212  0.00  0.00    +0.000 C 
ATOM      6  O2  UNL     1     -28.223  -6.824 -22.842  0.00  0.00    +0.000 OA
ATOM      7  C11 UNL     1     -27.772  -9.183 -23.071  0.00  0.00    +0.000 C 
ATOM      8  C12 UNL     1     -29.265  -9.480 -23.054  0.00  0.00    +0.000 C 
ATOM      9  S1  UNL     1     -30.108  -9.336 -24.676  0.00  0.00    +0.000 S 
ATOM     10  S2  UNL     1     -29.216 -10.795 -25.822  0.00  0.00    +0.000 S 
ATOM     11  C13 UNL     1     -27.933  -9.857 -26.708  0.00  0.00    +0.000 C 
ATOM     12  C14 UNL     1     -26.798 -10.782 -27.143  0.00  0.00    +0.000 C 
ATOM     13  N2  UNL     1     -25.720 -10.026 -27.756  0.00  0.00    +0.000 N 
ATOM     14  C15 UNL     1     -24.695 -10.647 -28.441  0.00  0.00    +0.000 C 
ATOM     15  O3  UNL     1     -24.641 -11.861 -28.614  0.00  0.00    +0.000 OA
ATOM     16  C16 UNL     1     -23.553  -9.706 -28.863  0.00  0.00    +0.000 C 
ATOM     17  N3  UNL     1     -24.034  -8.452 -29.434  0.00  0.00    +0.000 N 
ATOM     18  C17 UNL     1     -24.482  -7.419 -28.639  0.00  0.00    +0.000 C 
ATOM     19  O4  UNL     1     -24.445  -7.484 -27.410  0.00  0.00    +0.000 OA
ATOM     20  C18 UNL     1     -25.090  -6.249 -29.421  0.00  0.00    +0.000 C 
ATOM     21  N4  UNL     1     -25.900  -5.424 -28.548  0.00  0.00    +0.000 N 
ATOM     22  C19 UNL     1     -25.400  -4.253 -28.016  0.00  0.00    +0.000 C 
ATOM     23  O5  UNL     1     -24.332  -3.751 -28.353  0.00  0.00    +0.000 OA
ATOM     24  C20 UNL     1     -26.262  -3.689 -26.888  0.00  0.00    +0.000 C 
ATOM     25  N5  UNL     1     -25.860  -4.294 -25.633  0.00  0.00    +0.000 N 
ATOM     26  H9  UNL     1     -25.774  -8.191 -24.267  0.00  0.00    +0.000 HD
ATOM     27  H18 UNL     1     -25.472  -9.132 -27.333  0.00  0.00    +0.000 HD
ATOM     28  H21 UNL     1     -24.279  -8.457 -30.416  0.00  0.00    +0.000 HD
ATOM     29  H24 UNL     1     -26.556  -5.915 -27.937  0.00  0.00    +0.000 HD
ATOM     30  H27 UNL     1     -25.013  -3.936 -25.208  0.00  0.00    +0.000 HD
ENDROOT
BRANCH   1  31
ATOM     31  C7  UNL     1     -25.874  -5.161 -22.747  0.00  0.00    +0.000 C 
BRANCH  31  37
ATOM     32  C1  UNL     1     -23.734  -5.899 -21.602  0.00  0.00    +0.000 A 
ATOM     33  C2  UNL     1     -23.017  -6.253 -20.459  0.00  0.00    +0.000 A 
ATOM     34  C3  UNL     1     -23.650  -6.284 -19.218  0.00  0.00    +0.000 A 
ATOM     35  C4  UNL     1     -25.004  -5.970 -19.120  0.00  0.00    +0.000 A 
ATOM     36  C5  UNL     1     -25.724  -5.617 -20.262  0.00  0.00    +0.000 A 
ATOM     37  C6  UNL     1     -25.093  -5.564 -21.513  0.00  0.00    +0.000 A 
ENDBRANCH  31  37
ENDBRANCH   1  31
TORSDOF 2
ENDMDL
MODEL 7
REMARK VINA RESULT:    -5.379      5.899      9.262
REMARK INTER + INTRA:          -6.456
REMARK INTER:                  -6.000
REMARK INTRA:                  -0.456
REMARK UNBOUND:                -0.448
REMARK  Name = /home/anacleto/Desktop/manuscript_Mpro/naturecomm/supplementary_file_S2/6-chemical-library/molecular_docking/3D_ligand_structure/390.pdb
REMARK  2 active torsions:
REMARK  status: ('A' for Active; 'I' for Inactive)
REMARK    1  A    between atoms: C6_6  and  C7_7
REMARK    2  A    between atoms: C7_7  and  C8_8
REMARK                            x       y       z     vdW  Elec       q    Type
REMARK                         _______ _______ _______ _____ _____    ______ ____
ROOT
ATOM      1  C8  UNL     1     -25.554  -5.969 -24.942  0.00  0.00    +0.000 C 
ATOM      2  C9  UNL     1     -27.023  -6.172 -24.484  0.00  0.00    +0.000 C 
ATOM      3  O1  UNL     1     -27.336  -6.557 -23.354  0.00  0.00    +0.000 OA
ATOM      4  N1  UNL     1     -24.634  -6.236 -23.826  0.00  0.00    +0.000 N 
ATOM      5  C10 UNL     1     -24.433  -5.332 -22.801  0.00  0.00    +0.000 C 
ATOM      6  O2  UNL     1     -24.902  -4.200 -22.795  0.00  0.00    +0.000 OA
ATOM      7  C11 UNL     1     -23.480  -5.838 -21.738  0.00  0.00    +0.000 C 
ATOM      8  C12 UNL     1     -23.648  -5.133 -20.399  0.00  0.00    +0.000 C 
ATOM      9  S1  UNL     1     -25.144  -5.606 -19.450  0.00  0.00    +0.000 S 
ATOM     10  S2  UNL     1     -24.856  -7.604 -19.048  0.00  0.00    +0.000 S 
ATOM     11  C13 UNL     1     -25.785  -8.405 -20.393  0.00  0.00    +0.000 C 
ATOM     12  C14 UNL     1     -25.248  -9.811 -20.652  0.00  0.00    +0.000 C 
ATOM     13  N2  UNL     1     -25.910 -10.416 -21.793  0.00  0.00    +0.000 N 
ATOM     14  C15 UNL     1     -25.775 -11.759 -22.083  0.00  0.00    +0.000 C 
ATOM     15  O3  UNL     1     -25.128 -12.536 -21.387  0.00  0.00    +0.000 OA
ATOM     16  C16 UNL     1     -26.398 -12.183 -23.425  0.00  0.00    +0.000 C 
ATOM     17  N3  UNL     1     -27.724 -11.614 -23.639  0.00  0.00    +0.000 N 
ATOM     18  C17 UNL     1     -27.895 -10.315 -24.064  0.00  0.00    +0.000 C 
ATOM     19  O4  UNL     1     -26.937  -9.591 -24.337  0.00  0.00    +0.000 OA
ATOM     20  C18 UNL     1     -29.356  -9.850 -24.082  0.00  0.00    +0.000 C 
ATOM     21  N4  UNL     1     -29.427  -8.404 -24.122  0.00  0.00    +0.000 N 
ATOM     22  C19 UNL     1     -29.646  -7.738 -25.310  0.00  0.00    +0.000 C 
ATOM     23  O5  UNL     1     -29.948  -8.296 -26.360  0.00  0.00    +0.000 OA
ATOM     24  C20 UNL     1     -29.378  -6.237 -25.216  0.00  0.00    +0.000 C 
ATOM     25  N5  UNL     1     -27.973  -5.988 -25.469  0.00  0.00    +0.000 N 
ATOM     26  H9  UNL     1     -24.497  -7.213 -23.605  0.00  0.00    +0.000 HD
ATOM     27  H18 UNL     1     -26.098  -9.821 -22.599  0.00  0.00    +0.000 HD
ATOM     28  H21 UNL     1     -28.507 -12.100 -23.219  0.00  0.00    +0.000 HD
ATOM     29  H24 UNL     1     -28.829  -7.901 -23.463  0.00  0.00    +0.000 HD
ATOM     30  H27 UNL     1     -27.675  -6.013 -26.438  0.00  0.00    +0.000 HD
ENDROOT
BRANCH   1  31
ATOM     31  C7  UNL     1     -25.299  -4.605 -25.618  0.00  0.00    +0.000 C 
BRANCH  31  37
ATOM     32  C1  UNL     1     -23.523  -4.047 -27.342  0.00  0.00    +0.000 A 
ATOM     33  C2  UNL     1     -22.990  -4.150 -28.627  0.00  0.00    +0.000 A 
ATOM     34  C3  UNL     1     -23.652  -4.895 -29.601  0.00  0.00    +0.000 A 
ATOM     35  C4  UNL     1     -24.853  -5.531 -29.294  0.00  0.00    +0.000 A 
ATOM     36  C5  UNL     1     -25.389  -5.429 -28.010  0.00  0.00    +0.000 A 
ATOM     37  C6  UNL     1     -24.723  -4.697 -27.017  0.00  0.00    +0.000 A 
ENDBRANCH  31  37
ENDBRANCH   1  31
TORSDOF 2
ENDMDL
MODEL 8
REMARK VINA RESULT:    -5.345      3.168      6.437
REMARK INTER + INTRA:          -6.418
REMARK INTER:                  -5.974
REMARK INTRA:                  -0.443
REMARK UNBOUND:                -0.448
REMARK  Name = /home/anacleto/Desktop/manuscript_Mpro/naturecomm/supplementary_file_S2/6-chemical-library/molecular_docking/3D_ligand_structure/390.pdb
REMARK  2 active torsions:
REMARK  status: ('A' for Active; 'I' for Inactive)
REMARK    1  A    between atoms: C6_6  and  C7_7
REMARK    2  A    between atoms: C7_7  and  C8_8
REMARK                            x       y       z     vdW  Elec       q    Type
REMARK                         _______ _______ _______ _____ _____    ______ ____
ROOT
ATOM      1  C8  UNL     1     -19.947  -7.756 -28.203  0.00  0.00    +0.000 C 
ATOM      2  C9  UNL     1     -20.453  -7.989 -29.651  0.00  0.00    +0.000 C 
ATOM      3  O1  UNL     1     -21.547  -7.591 -30.062  0.00  0.00    +0.000 OA
ATOM      4  N1  UNL     1     -20.921  -6.954 -27.449  0.00  0.00    +0.000 N 
ATOM      5  C10 UNL     1     -21.045  -5.588 -27.618  0.00  0.00    +0.000 C 
ATOM      6  O2  UNL     1     -20.285  -4.921 -28.309  0.00  0.00    +0.000 OA
ATOM      7  C11 UNL     1     -22.144  -4.980 -26.772  0.00  0.00    +0.000 C 
ATOM      8  C12 UNL     1     -22.641  -3.644 -27.308  0.00  0.00    +0.000 C 
ATOM      9  S1  UNL     1     -23.690  -3.745 -28.808  0.00  0.00    +0.000 S 
ATOM     10  S2  UNL     1     -25.344  -4.795 -28.178  0.00  0.00    +0.000 S 
ATOM     11  C13 UNL     1     -24.934  -6.496 -28.677  0.00  0.00    +0.000 C 
ATOM     12  C14 UNL     1     -25.696  -7.505 -27.820  0.00  0.00    +0.000 C 
ATOM     13  N2  UNL     1     -25.294  -8.863 -28.138  0.00  0.00    +0.000 N 
ATOM     14  C15 UNL     1     -25.999  -9.956 -27.676  0.00  0.00    +0.000 C 
ATOM     15  O3  UNL     1     -27.024  -9.862 -27.006  0.00  0.00    +0.000 OA
ATOM     16  C16 UNL     1     -25.326 -11.310 -27.961  0.00  0.00    +0.000 C 
ATOM     17  N3  UNL     1     -24.811 -11.412 -29.321  0.00  0.00    +0.000 N 
ATOM     18  C17 UNL     1     -23.615 -10.834 -29.689  0.00  0.00    +0.000 C 
ATOM     19  O4  UNL     1     -22.899 -10.252 -28.873  0.00  0.00    +0.000 OA
ATOM     20  C18 UNL     1     -23.317 -10.915 -31.190  0.00  0.00    +0.000 C 
ATOM     21  N4  UNL     1     -22.300  -9.951 -31.557  0.00  0.00    +0.000 N 
ATOM     22  C19 UNL     1     -20.983 -10.334 -31.709  0.00  0.00    +0.000 C 
ATOM     23  O5  UNL     1     -20.607 -11.503 -31.705  0.00  0.00    +0.000 OA
ATOM     24  C20 UNL     1     -20.017  -9.153 -31.783  0.00  0.00    +0.000 C 
ATOM     25  N5  UNL     1     -19.631  -8.769 -30.439  0.00  0.00    +0.000 N 
ATOM     26  H9  UNL     1     -21.749  -7.452 -27.148  0.00  0.00    +0.000 HD
ATOM     27  H18 UNL     1     -24.304  -9.034 -28.309  0.00  0.00    +0.000 HD
ATOM     28  H21 UNL     1     -25.467 -11.683 -30.043  0.00  0.00    +0.000 HD
ATOM     29  H24 UNL     1     -22.421  -9.002 -31.198  0.00  0.00    +0.000 HD
ATOM     30  H27 UNL     1     -18.935  -9.350 -29.984  0.00  0.00    +0.000 HD
ENDROOT
BRANCH   1  31
ATOM     31  C7  UNL     1     -18.515  -7.185 -28.131  0.00  0.00    +0.000 C 
BRANCH  31  37
ATOM     32  C1  UNL     1     -16.774  -9.029 -28.215  0.00  0.00    +0.000 A 
ATOM     33  C2  UNL     1     -15.837  -9.856 -27.596  0.00  0.00    +0.000 A 
ATOM     34  C3  UNL     1     -15.628  -9.770 -26.221  0.00  0.00    +0.000 A 
ATOM     35  C4  UNL     1     -16.364  -8.863 -25.462  0.00  0.00    +0.000 A 
ATOM     36  C5  UNL     1     -17.303  -8.036 -26.077  0.00  0.00    +0.000 A 
ATOM     37  C6  UNL     1     -17.508  -8.100 -27.463  0.00  0.00    +0.000 A 
ENDBRANCH  31  37
ENDBRANCH   1  31
TORSDOF 2
ENDMDL
MODEL 9
REMARK VINA RESULT:    -5.329      3.877      6.268
REMARK INTER + INTRA:          -6.400
REMARK INTER:                  -5.952
REMARK INTRA:                  -0.448
REMARK UNBOUND:                -0.448
REMARK  Name = /home/anacleto/Desktop/manuscript_Mpro/naturecomm/supplementary_file_S2/6-chemical-library/molecular_docking/3D_ligand_structure/390.pdb
REMARK  2 active torsions:
REMARK  status: ('A' for Active; 'I' for Inactive)
REMARK    1  A    between atoms: C6_6  and  C7_7
REMARK    2  A    between atoms: C7_7  and  C8_8
REMARK                            x       y       z     vdW  Elec       q    Type
REMARK                         _______ _______ _______ _____ _____    ______ ____
ROOT
ATOM      1  C8  UNL     1     -20.365  -7.806 -28.014  0.00  0.00    +0.000 C 
ATOM      2  C9  UNL     1     -21.459  -8.534 -28.839  0.00  0.00    +0.000 C 
ATOM      3  O1  UNL     1     -22.621  -8.128 -28.937  0.00  0.00    +0.000 OA
ATOM      4  N1  UNL     1     -20.904  -6.562 -27.445  0.00  0.00    +0.000 N 
ATOM      5  C10 UNL     1     -21.086  -5.420 -28.200  0.00  0.00    +0.000 C 
ATOM      6  O2  UNL     1     -20.707  -5.309 -29.360  0.00  0.00    +0.000 OA
ATOM      7  C11 UNL     1     -21.697  -4.277 -27.416  0.00  0.00    +0.000 C 
ATOM      8  C12 UNL     1     -22.375  -3.240 -28.301  0.00  0.00    +0.000 C 
ATOM      9  S1  UNL     1     -23.979  -3.758 -29.023  0.00  0.00    +0.000 S 
ATOM     10  S2  UNL     1     -25.189  -4.033 -27.380  0.00  0.00    +0.000 S 
ATOM     11  C13 UNL     1     -25.045  -5.825 -27.093  0.00  0.00    +0.000 C 
ATOM     12  C14 UNL     1     -25.354  -6.160 -25.635  0.00  0.00    +0.000 C 
ATOM     13  N2  UNL     1     -25.138  -7.571 -25.371  0.00  0.00    +0.000 N 
ATOM     14  C15 UNL     1     -25.570  -8.166 -24.203  0.00  0.00    +0.000 C 
ATOM     15  O3  UNL     1     -26.193  -7.565 -23.332  0.00  0.00    +0.000 OA
ATOM     16  C16 UNL     1     -25.095  -9.618 -24.018  0.00  0.00    +0.000 C 
ATOM     17  N3  UNL     1     -25.234 -10.418 -25.230  0.00  0.00    +0.000 N 
ATOM     18  C17 UNL     1     -24.321 -10.337 -26.260  0.00  0.00    +0.000 C 
ATOM     19  O4  UNL     1     -23.317  -9.629 -26.182  0.00  0.00    +0.000 OA
ATOM     20  C18 UNL     1     -24.717 -11.132 -27.509  0.00  0.00    +0.000 C 
ATOM     21  N4  UNL     1     -23.963 -10.677 -28.659  0.00  0.00    +0.000 N 
ATOM     22  C19 UNL     1     -22.850 -11.366 -29.094  0.00  0.00    +0.000 C 
ATOM     23  O5  UNL     1     -22.514 -12.464 -28.662  0.00  0.00    +0.000 OA
ATOM     24  C20 UNL     1     -22.012 -10.580 -30.102  0.00  0.00    +0.000 C 
ATOM     25  N5  UNL     1     -21.071  -9.740 -29.388  0.00  0.00    +0.000 N 
ATOM     26  H9  UNL     1     -21.515  -6.682 -26.648  0.00  0.00    +0.000 HD
ATOM     27  H18 UNL     1     -24.325  -8.011 -25.800  0.00  0.00    +0.000 HD
ATOM     28  H21 UNL     1     -26.142 -10.827 -25.411  0.00  0.00    +0.000 HD
ATOM     29  H24 UNL     1     -23.911  -9.665 -28.797  0.00  0.00    +0.000 HD
ATOM     30  H27 UNL     1     -20.248 -10.199 -29.013  0.00  0.00    +0.000 HD
ENDROOT
BRANCH   1  31
ATOM     31  C7  UNL     1     -19.046  -7.591 -28.787  0.00  0.00    +0.000 C 
BRANCH  31  37
ATOM     32  C1  UNL     1     -17.594  -8.244 -26.812  0.00  0.00    +0.000 A 
ATOM     33  C2  UNL     1     -16.498  -8.913 -26.268  0.00  0.00    +0.000 A 
ATOM     34  C3  UNL     1     -15.639  -9.636 -27.094  0.00  0.00    +0.000 A 
ATOM     35  C4  UNL     1     -15.871  -9.684 -28.467  0.00  0.00    +0.000 A 
ATOM     36  C5  UNL     1     -16.966  -9.015 -29.014  0.00  0.00    +0.000 A 
ATOM     37  C6  UNL     1     -17.847  -8.299 -28.191  0.00  0.00    +0.000 A 
ENDBRANCH  31  37
ENDBRANCH   1  31
TORSDOF 2
ENDMDL
