MODEL 1
REMARK VINA RESULT:    -4.787      0.000      0.000
REMARK INTER + INTRA:          -6.225
REMARK INTER:                  -5.965
REMARK INTRA:                  -0.260
REMARK UNBOUND:                -0.318
REMARK  Name = /home/anacleto/Desktop/manuscript_Mpro/naturecomm/supplementary_file_S2/6-chemical-library/molecular_docking/3D_ligand_structure/986.pdb
REMARK  4 active torsions:
REMARK  status: ('A' for Active; 'I' for Inactive)
REMARK    1  A    between atoms: N2_5  and  C4_6
REMARK    2  A    between atoms: C4_6  and  C5_7
REMARK    3  A    between atoms: C5_7  and  C6_8
REMARK    4  A    between atoms: C6_8  and  C7_9
REMARK                            x       y       z     vdW  Elec       q    Type
REMARK                         _______ _______ _______ _____ _____    ______ ____
ROOT
ATOM      1  C5  UNL     1     -23.589   5.601 -37.985  0.00  0.00    +0.000 C 
ENDROOT
BRANCH   1   2
ATOM      2  C4  UNL     1     -22.329   6.387 -38.334  0.00  0.00    +0.000 C 
BRANCH   2   7
ATOM      3  C1  UNL     1     -21.307   8.366 -37.186  0.00  0.00    +0.000 A 
ATOM      4  N1  UNL     1     -21.649   9.569 -36.781  0.00  0.00    +0.000 NA
ATOM      5  C2  UNL     1     -22.966   9.709 -37.137  0.00  0.00    +0.000 A 
ATOM      6  C3  UNL     1     -23.427   8.574 -37.763  0.00  0.00    +0.000 A 
ATOM      7  N2  UNL     1     -22.353   7.730 -37.789  0.00  0.00    +0.000 N 
ENDBRANCH   2   7
ENDBRANCH   1   2
BRANCH   1   8
ATOM      8  C6  UNL     1     -24.312   5.137 -39.249  0.00  0.00    +0.000 C 
BRANCH   8   9
ATOM      9  C7  UNL     1     -25.565   4.368 -38.922  0.00  0.00    +0.000 A 
ATOM     10  C8  UNL     1     -26.824   4.966 -39.064  0.00  0.00    +0.000 A 
ATOM     11  C9  UNL     1     -27.984   4.258 -38.743  0.00  0.00    +0.000 A 
ATOM     12  C10 UNL     1     -27.896   2.948 -38.275  0.00  0.00    +0.000 A 
ATOM     13  C11 UNL     1     -26.648   2.346 -38.125  0.00  0.00    +0.000 A 
ATOM     14  C12 UNL     1     -25.488   3.052 -38.445  0.00  0.00    +0.000 A 
ENDBRANCH   8   9
ENDBRANCH   1   8
TORSDOF 4
ENDMDL
MODEL 2
REMARK VINA RESULT:    -4.287     13.053     14.312
REMARK INTER + INTRA:          -5.607
REMARK INTER:                  -5.231
REMARK INTRA:                  -0.376
REMARK UNBOUND:                -0.318
REMARK  Name = /home/anacleto/Desktop/manuscript_Mpro/naturecomm/supplementary_file_S2/6-chemical-library/molecular_docking/3D_ligand_structure/986.pdb
REMARK  4 active torsions:
REMARK  status: ('A' for Active; 'I' for Inactive)
REMARK    1  A    between atoms: N2_5  and  C4_6
REMARK    2  A    between atoms: C4_6  and  C5_7
REMARK    3  A    between atoms: C5_7  and  C6_8
REMARK    4  A    between atoms: C6_8  and  C7_9
REMARK                            x       y       z     vdW  Elec       q    Type
REMARK                         _______ _______ _______ _____ _____    ______ ____
ROOT
ATOM      1  C5  UNL     1     -35.507  10.927 -33.483  0.00  0.00    +0.000 C 
ENDROOT
BRANCH   1   2
ATOM      2  C4  UNL     1     -34.033  10.757 -33.127  0.00  0.00    +0.000 C 
BRANCH   2   7
ATOM      3  C1  UNL     1     -33.293  13.103 -32.649  0.00  0.00    +0.000 A 
ATOM      4  N1  UNL     1     -32.497  14.018 -33.154  0.00  0.00    +0.000 NA
ATOM      5  C2  UNL     1     -31.937  13.438 -34.263  0.00  0.00    +0.000 A 
ATOM      6  C3  UNL     1     -32.403  12.154 -34.432  0.00  0.00    +0.000 A 
ATOM      7  N2  UNL     1     -33.264  11.957 -33.390  0.00  0.00    +0.000 N 
ENDBRANCH   2   7
ENDBRANCH   1   2
BRANCH   1   8
ATOM      8  C6  UNL     1     -36.404  10.378 -32.373  0.00  0.00    +0.000 C 
BRANCH   8   9
ATOM      9  C7  UNL     1     -36.996  11.485 -31.540  0.00  0.00    +0.000 A 
ATOM     10  C8  UNL     1     -37.477  11.224 -30.250  0.00  0.00    +0.000 A 
ATOM     11  C9  UNL     1     -38.043  12.245 -29.486  0.00  0.00    +0.000 A 
ATOM     12  C10 UNL     1     -38.136  13.536 -30.004  0.00  0.00    +0.000 A 
ATOM     13  C11 UNL     1     -37.666  13.805 -31.289  0.00  0.00    +0.000 A 
ATOM     14  C12 UNL     1     -37.100  12.785 -32.054  0.00  0.00    +0.000 A 
ENDBRANCH   8   9
ENDBRANCH   1   8
TORSDOF 4
ENDMDL
MODEL 3
REMARK VINA RESULT:    -4.263     17.323     19.119
REMARK INTER + INTRA:          -5.578
REMARK INTER:                  -5.207
REMARK INTRA:                  -0.371
REMARK UNBOUND:                -0.318
REMARK  Name = /home/anacleto/Desktop/manuscript_Mpro/naturecomm/supplementary_file_S2/6-chemical-library/molecular_docking/3D_ligand_structure/986.pdb
REMARK  4 active torsions:
REMARK  status: ('A' for Active; 'I' for Inactive)
REMARK    1  A    between atoms: N2_5  and  C4_6
REMARK    2  A    between atoms: C4_6  and  C5_7
REMARK    3  A    between atoms: C5_7  and  C6_8
REMARK    4  A    between atoms: C6_8  and  C7_9
REMARK                            x       y       z     vdW  Elec       q    Type
REMARK                         _______ _______ _______ _____ _____    ______ ____
ROOT
ATOM      1  C5  UNL     1     -37.937  -3.311 -26.357  0.00  0.00    +0.000 C 
ENDROOT
BRANCH   1   2
ATOM      2  C4  UNL     1     -37.173  -3.429 -25.042  0.00  0.00    +0.000 C 
BRANCH   2   7
ATOM      3  C1  UNL     1     -34.848  -4.359 -25.142  0.00  0.00    +0.000 A 
ATOM      4  N1  UNL     1     -33.618  -3.945 -25.348  0.00  0.00    +0.000 NA
ATOM      5  C2  UNL     1     -33.724  -2.597 -25.575  0.00  0.00    +0.000 A 
ATOM      6  C3  UNL     1     -35.037  -2.190 -25.504  0.00  0.00    +0.000 A 
ATOM      7  N2  UNL     1     -35.740  -3.329 -25.231  0.00  0.00    +0.000 N 
ENDBRANCH   2   7
ENDBRANCH   1   2
BRANCH   1   8
ATOM      8  C6  UNL     1     -38.922  -2.143 -26.314  0.00  0.00    +0.000 C 
BRANCH   8   9
ATOM      9  C7  UNL     1     -38.599  -1.104 -27.356  0.00  0.00    +0.000 A 
ATOM     10  C8  UNL     1     -37.402  -1.171 -28.079  0.00  0.00    +0.000 A 
ATOM     11  C9  UNL     1     -37.095  -0.198 -29.031  0.00  0.00    +0.000 A 
ATOM     12  C10 UNL     1     -37.980   0.852 -29.267  0.00  0.00    +0.000 A 
ATOM     13  C11 UNL     1     -39.172   0.932 -28.548  0.00  0.00    +0.000 A 
ATOM     14  C12 UNL     1     -39.480  -0.041 -27.596  0.00  0.00    +0.000 A 
ENDBRANCH   8   9
ENDBRANCH   1   8
TORSDOF 4
ENDMDL
MODEL 4
REMARK VINA RESULT:    -4.257      2.391      6.760
REMARK INTER + INTRA:          -5.571
REMARK INTER:                  -5.296
REMARK INTRA:                  -0.275
REMARK UNBOUND:                -0.318
REMARK  Name = /home/anacleto/Desktop/manuscript_Mpro/naturecomm/supplementary_file_S2/6-chemical-library/molecular_docking/3D_ligand_structure/986.pdb
REMARK  4 active torsions:
REMARK  status: ('A' for Active; 'I' for Inactive)
REMARK    1  A    between atoms: N2_5  and  C4_6
REMARK    2  A    between atoms: C4_6  and  C5_7
REMARK    3  A    between atoms: C5_7  and  C6_8
REMARK    4  A    between atoms: C6_8  and  C7_9
REMARK                            x       y       z     vdW  Elec       q    Type
REMARK                         _______ _______ _______ _____ _____    ______ ____
ROOT
ATOM      1  C5  UNL     1     -23.050   6.080 -39.061  0.00  0.00    +0.000 C 
ENDROOT
BRANCH   1   2
ATOM      2  C4  UNL     1     -24.459   6.320 -38.527  0.00  0.00    +0.000 C 
BRANCH   2   7
ATOM      3  C1  UNL     1     -25.150   3.919 -38.732  0.00  0.00    +0.000 A 
ATOM      4  N1  UNL     1     -26.160   3.210 -39.182  0.00  0.00    +0.000 NA
ATOM      5  C2  UNL     1     -27.064   4.126 -39.654  0.00  0.00    +0.000 A 
ATOM      6  C3  UNL     1     -26.592   5.408 -39.490  0.00  0.00    +0.000 A 
ATOM      7  N2  UNL     1     -25.372   5.257 -38.896  0.00  0.00    +0.000 N 
ENDBRANCH   2   7
ENDBRANCH   1   2
BRANCH   1   8
ATOM      8  C6  UNL     1     -22.018   6.161 -37.935  0.00  0.00    +0.000 C 
BRANCH   8   9
ATOM      9  C7  UNL     1     -21.193   7.418 -38.026  0.00  0.00    +0.000 A 
ATOM     10  C8  UNL     1     -19.980   7.423 -38.728  0.00  0.00    +0.000 A 
ATOM     11  C9  UNL     1     -19.207   8.583 -38.796  0.00  0.00    +0.000 A 
ATOM     12  C10 UNL     1     -19.638   9.748 -38.162  0.00  0.00    +0.000 A 
ATOM     13  C11 UNL     1     -20.840   9.752 -37.456  0.00  0.00    +0.000 A 
ATOM     14  C12 UNL     1     -21.614   8.592 -37.387  0.00  0.00    +0.000 A 
ENDBRANCH   8   9
ENDBRANCH   1   8
TORSDOF 4
ENDMDL
MODEL 5
REMARK VINA RESULT:    -4.218      2.645      6.486
REMARK INTER + INTRA:          -5.523
REMARK INTER:                  -5.255
REMARK INTRA:                  -0.268
REMARK UNBOUND:                -0.318
REMARK  Name = /home/anacleto/Desktop/manuscript_Mpro/naturecomm/supplementary_file_S2/6-chemical-library/molecular_docking/3D_ligand_structure/986.pdb
REMARK  4 active torsions:
REMARK  status: ('A' for Active; 'I' for Inactive)
REMARK    1  A    between atoms: N2_5  and  C4_6
REMARK    2  A    between atoms: C4_6  and  C5_7
REMARK    3  A    between atoms: C5_7  and  C6_8
REMARK    4  A    between atoms: C6_8  and  C7_9
REMARK                            x       y       z     vdW  Elec       q    Type
REMARK                         _______ _______ _______ _____ _____    ______ ____
ROOT
ATOM      1  C5  UNL     1     -25.053   6.219 -38.986  0.00  0.00    +0.000 C 
ENDROOT
BRANCH   1   2
ATOM      2  C4  UNL     1     -25.536   5.081 -39.881  0.00  0.00    +0.000 C 
BRANCH   2   7
ATOM      3  C1  UNL     1     -25.721   3.046 -38.430  0.00  0.00    +0.000 A 
ATOM      4  N1  UNL     1     -26.650   2.294 -37.885  0.00  0.00    +0.000 NA
ATOM      5  C2  UNL     1     -27.841   2.861 -38.260  0.00  0.00    +0.000 A 
ATOM      6  C3  UNL     1     -27.628   3.970 -39.047  0.00  0.00    +0.000 A 
ATOM      7  N2  UNL     1     -26.269   4.075 -39.140  0.00  0.00    +0.000 N 
ENDBRANCH   2   7
ENDBRANCH   1   2
BRANCH   1   8
ATOM      8  C6  UNL     1     -23.526   6.266 -38.938  0.00  0.00    +0.000 C 
BRANCH   8   9
ATOM      9  C7  UNL     1     -23.031   7.476 -38.189  0.00  0.00    +0.000 A 
ATOM     10  C8  UNL     1     -21.709   7.537 -37.731  0.00  0.00    +0.000 A 
ATOM     11  C9  UNL     1     -21.256   8.649 -37.020  0.00  0.00    +0.000 A 
ATOM     12  C10 UNL     1     -22.121   9.711 -36.760  0.00  0.00    +0.000 A 
ATOM     13  C11 UNL     1     -23.441   9.658 -37.206  0.00  0.00    +0.000 A 
ATOM     14  C12 UNL     1     -23.895   8.546 -37.916  0.00  0.00    +0.000 A 
ENDBRANCH   8   9
ENDBRANCH   1   8
TORSDOF 4
ENDMDL
MODEL 6
REMARK VINA RESULT:    -4.122     11.926     13.088
REMARK INTER + INTRA:          -5.404
REMARK INTER:                  -5.145
REMARK INTRA:                  -0.259
REMARK UNBOUND:                -0.318
REMARK  Name = /home/anacleto/Desktop/manuscript_Mpro/naturecomm/supplementary_file_S2/6-chemical-library/molecular_docking/3D_ligand_structure/986.pdb
REMARK  4 active torsions:
REMARK  status: ('A' for Active; 'I' for Inactive)
REMARK    1  A    between atoms: N2_5  and  C4_6
REMARK    2  A    between atoms: C4_6  and  C5_7
REMARK    3  A    between atoms: C5_7  and  C6_8
REMARK    4  A    between atoms: C6_8  and  C7_9
REMARK                            x       y       z     vdW  Elec       q    Type
REMARK                         _______ _______ _______ _____ _____    ______ ____
ROOT
ATOM      1  C5  UNL     1     -33.998  11.606 -33.707  0.00  0.00    +0.000 C 
ENDROOT
BRANCH   1   2
ATOM      2  C4  UNL     1     -33.792  12.622 -34.826  0.00  0.00    +0.000 C 
BRANCH   2   7
ATOM      3  C1  UNL     1     -31.301  12.502 -34.576  0.00  0.00    +0.000 A 
ATOM      4  N1  UNL     1     -30.223  12.546 -35.324  0.00  0.00    +0.000 NA
ATOM      5  C2  UNL     1     -30.680  12.693 -36.608  0.00  0.00    +0.000 A 
ATOM      6  C3  UNL     1     -32.054  12.742 -36.636  0.00  0.00    +0.000 A 
ATOM      7  N2  UNL     1     -32.434  12.615 -35.330  0.00  0.00    +0.000 N 
ENDBRANCH   2   7
ENDBRANCH   1   2
BRANCH   1   8
ATOM      8  C6  UNL     1     -35.483  11.303 -33.510  0.00  0.00    +0.000 C 
BRANCH   8   9
ATOM      9  C7  UNL     1     -35.936  11.631 -32.111  0.00  0.00    +0.000 A 
ATOM     10  C8  UNL     1     -36.975  10.907 -31.513  0.00  0.00    +0.000 A 
ATOM     11  C9  UNL     1     -37.408  11.224 -30.224  0.00  0.00    +0.000 A 
ATOM     12  C10 UNL     1     -36.807  12.269 -29.523  0.00  0.00    +0.000 A 
ATOM     13  C11 UNL     1     -35.777  13.000 -30.112  0.00  0.00    +0.000 A 
ATOM     14  C12 UNL     1     -35.344  12.684 -31.401  0.00  0.00    +0.000 A 
ENDBRANCH   8   9
ENDBRANCH   1   8
TORSDOF 4
ENDMDL
MODEL 7
REMARK VINA RESULT:    -4.088     14.396     15.915
REMARK INTER + INTRA:          -5.361
REMARK INTER:                  -5.128
REMARK INTRA:                  -0.233
REMARK UNBOUND:                -0.318
REMARK  Name = /home/anacleto/Desktop/manuscript_Mpro/naturecomm/supplementary_file_S2/6-chemical-library/molecular_docking/3D_ligand_structure/986.pdb
REMARK  4 active torsions:
REMARK  status: ('A' for Active; 'I' for Inactive)
REMARK    1  A    between atoms: N2_5  and  C4_6
REMARK    2  A    between atoms: C4_6  and  C5_7
REMARK    3  A    between atoms: C5_7  and  C6_8
REMARK    4  A    between atoms: C6_8  and  C7_9
REMARK                            x       y       z     vdW  Elec       q    Type
REMARK                         _______ _______ _______ _____ _____    ______ ____
ROOT
ATOM      1  C5  UNL     1     -37.293  11.419 -31.635  0.00  0.00    +0.000 C 
ENDROOT
BRANCH   1   2
ATOM      2  C4  UNL     1     -37.259  11.142 -30.136  0.00  0.00    +0.000 C 
BRANCH   2   7
ATOM      3  C1  UNL     1     -38.241  13.099 -28.916  0.00  0.00    +0.000 A 
ATOM      4  N1  UNL     1     -39.358  13.438 -28.314  0.00  0.00    +0.000 NA
ATOM      5  C2  UNL     1     -40.181  12.348 -28.440  0.00  0.00    +0.000 A 
ATOM      6  C3  UNL     1     -39.551  11.336 -29.127  0.00  0.00    +0.000 A 
ATOM      7  N2  UNL     1     -38.315  11.835 -29.426  0.00  0.00    +0.000 N 
ENDBRANCH   2   7
ENDBRANCH   1   2
BRANCH   1   8
ATOM      8  C6  UNL     1     -36.371  10.461 -32.389  0.00  0.00    +0.000 C 
BRANCH   8   9
ATOM      9  C7  UNL     1     -35.362  11.204 -33.226  0.00  0.00    +0.000 A 
ATOM     10  C8  UNL     1     -35.781  12.065 -34.248  0.00  0.00    +0.000 A 
ATOM     11  C9  UNL     1     -34.846  12.739 -35.034  0.00  0.00    +0.000 A 
ATOM     12  C10 UNL     1     -33.483  12.555 -34.809  0.00  0.00    +0.000 A 
ATOM     13  C11 UNL     1     -33.054  11.695 -33.798  0.00  0.00    +0.000 A 
ATOM     14  C12 UNL     1     -33.989  11.021 -33.011  0.00  0.00    +0.000 A 
ENDBRANCH   8   9
ENDBRANCH   1   8
TORSDOF 4
ENDMDL
MODEL 8
REMARK VINA RESULT:    -4.027      3.375      6.257
REMARK INTER + INTRA:          -5.287
REMARK INTER:                  -4.776
REMARK INTRA:                  -0.510
REMARK UNBOUND:                -0.318
REMARK  Name = /home/anacleto/Desktop/manuscript_Mpro/naturecomm/supplementary_file_S2/6-chemical-library/molecular_docking/3D_ligand_structure/986.pdb
REMARK  4 active torsions:
REMARK  status: ('A' for Active; 'I' for Inactive)
REMARK    1  A    between atoms: N2_5  and  C4_6
REMARK    2  A    between atoms: C4_6  and  C5_7
REMARK    3  A    between atoms: C5_7  and  C6_8
REMARK    4  A    between atoms: C6_8  and  C7_9
REMARK                            x       y       z     vdW  Elec       q    Type
REMARK                         _______ _______ _______ _____ _____    ______ ____
ROOT
ATOM      1  C5  UNL     1     -21.938  10.064 -37.057  0.00  0.00    +0.000 C 
ENDROOT
BRANCH   1   2
ATOM      2  C4  UNL     1     -23.449   9.870 -37.137  0.00  0.00    +0.000 C 
BRANCH   2   7
ATOM      3  C1  UNL     1     -23.618   9.351 -39.583  0.00  0.00    +0.000 A 
ATOM      4  N1  UNL     1     -24.104   8.419 -40.371  0.00  0.00    +0.000 NA
ATOM      5  C2  UNL     1     -24.657   7.487 -39.530  0.00  0.00    +0.000 A 
ATOM      6  C3  UNL     1     -24.506   7.863 -38.215  0.00  0.00    +0.000 A 
ATOM      7  N2  UNL     1     -23.837   9.053 -38.268  0.00  0.00    +0.000 N 
ENDBRANCH   2   7
ENDBRANCH   1   2
BRANCH   1   8
ATOM      8  C6  UNL     1     -21.232   8.742 -36.756  0.00  0.00    +0.000 C 
BRANCH   8   9
ATOM      9  C7  UNL     1     -20.426   8.261 -37.935  0.00  0.00    +0.000 A 
ATOM     10  C8  UNL     1     -19.315   8.989 -38.381  0.00  0.00    +0.000 A 
ATOM     11  C9  UNL     1     -18.580   8.553 -39.484  0.00  0.00    +0.000 A 
ATOM     12  C10 UNL     1     -18.950   7.387 -40.153  0.00  0.00    +0.000 A 
ATOM     13  C11 UNL     1     -20.058   6.659 -39.721  0.00  0.00    +0.000 A 
ATOM     14  C12 UNL     1     -20.794   7.094 -38.618  0.00  0.00    +0.000 A 
ENDBRANCH   8   9
ENDBRANCH   1   8
TORSDOF 4
ENDMDL
MODEL 9
REMARK VINA RESULT:    -3.933      2.988      4.157
REMARK INTER + INTRA:          -5.171
REMARK INTER:                  -4.853
REMARK INTRA:                  -0.318
REMARK UNBOUND:                -0.318
REMARK  Name = /home/anacleto/Desktop/manuscript_Mpro/naturecomm/supplementary_file_S2/6-chemical-library/molecular_docking/3D_ligand_structure/986.pdb
REMARK  4 active torsions:
REMARK  status: ('A' for Active; 'I' for Inactive)
REMARK    1  A    between atoms: N2_5  and  C4_6
REMARK    2  A    between atoms: C4_6  and  C5_7
REMARK    3  A    between atoms: C5_7  and  C6_8
REMARK    4  A    between atoms: C6_8  and  C7_9
REMARK                            x       y       z     vdW  Elec       q    Type
REMARK                         _______ _______ _______ _____ _____    ______ ____
ROOT
ATOM      1  C5  UNL     1     -28.151   6.951 -39.320  0.00  0.00    +0.000 C 
ENDROOT
BRANCH   1   2
ATOM      2  C4  UNL     1     -28.729   8.157 -38.586  0.00  0.00    +0.000 C 
BRANCH   2   7
ATOM      3  C1  UNL     1     -27.911  10.283 -37.540  0.00  0.00    +0.000 A 
ATOM      4  N1  UNL     1     -26.783  10.932 -37.356  0.00  0.00    +0.000 NA
ATOM      5  C2  UNL     1     -25.816  10.143 -37.924  0.00  0.00    +0.000 A 
ATOM      6  C3  UNL     1     -26.367   9.003 -38.461  0.00  0.00    +0.000 A 
ATOM      7  N2  UNL     1     -27.704   9.108 -38.204  0.00  0.00    +0.000 N 
ENDBRANCH   2   7
ENDBRANCH   1   2
BRANCH   1   8
ATOM      8  C6  UNL     1     -28.714   5.647 -38.755  0.00  0.00    +0.000 C 
BRANCH   8   9
ATOM      9  C7  UNL     1     -27.646   4.592 -38.622  0.00  0.00    +0.000 A 
ATOM     10  C8  UNL     1     -27.982   3.281 -38.264  0.00  0.00    +0.000 A 
ATOM     11  C9  UNL     1     -26.991   2.309 -38.122  0.00  0.00    +0.000 A 
ATOM     12  C10 UNL     1     -25.654   2.639 -38.336  0.00  0.00    +0.000 A 
ATOM     13  C11 UNL     1     -25.307   3.943 -38.687  0.00  0.00    +0.000 A 
ATOM     14  C12 UNL     1     -26.297   4.916 -38.829  0.00  0.00    +0.000 A 
ENDBRANCH   8   9
ENDBRANCH   1   8
TORSDOF 4
ENDMDL
