MODEL 1
REMARK VINA RESULT:    -5.174      0.000      0.000
REMARK INTER + INTRA:          -7.564
REMARK INTER:                  -7.022
REMARK INTRA:                  -0.543
REMARK UNBOUND:                -0.575
REMARK  Name = /home/anacleto/Desktop/manuscript_Mpro/naturecomm/supplementary_file_S2/6-chemical-library/molecular_docking/3D_ligand_structure/556.pdb
REMARK  6 active torsions:
REMARK  status: ('A' for Active; 'I' for Inactive)
REMARK    1  A    between atoms: C3_5  and  N3_6
REMARK    2  A    between atoms: N3_6  and  C4_7
REMARK    3  A    between atoms: C4_7  and  C5_8
REMARK    4  A    between atoms: N4_10  and  C6_11
REMARK    5  A    between atoms: C6_11  and  C7_12
REMARK    6  A    between atoms: C7_12  and  C8_13
REMARK                            x       y       z     vdW  Elec       q    Type
REMARK                         _______ _______ _______ _____ _____    ______ ____
ROOT
ATOM      1  C5  UNL     1      16.169  13.909  -1.387  0.00  0.00    +0.000 C 
ATOM      2  O1  UNL     1      16.888  13.522  -0.469  0.00  0.00    +0.000 OA
ATOM      3  N4  UNL     1      15.556  13.057  -2.283  0.00  0.00    +0.000 N 
ATOM      4  H7  UNL     1      14.824  13.492  -2.840  0.00  0.00    +0.000 HD
ENDROOT
BRANCH   1   5
ATOM      5  C4  UNL     1      15.922  15.399  -1.663  0.00  0.00    +0.000 C 
BRANCH   5   6
ATOM      6  N3  UNL     1      14.775  15.936  -0.907  0.00  0.00    +0.000 N 
ATOM      7  H4  UNL     1      14.700  15.535   0.026  0.00  0.00    +0.000 HD
BRANCH   6  12
ATOM      8  C1  UNL     1      13.403  17.550  -2.136  0.00  0.00    +0.000 A 
ATOM      9  N1  UNL     1      12.116  17.490  -2.588  0.00  0.00    +0.000 N 
ATOM     10  N2  UNL     1      11.498  16.329  -2.302  0.00  0.00    +0.000 NA
ATOM     11  C2  UNL     1      12.433  15.632  -1.648  0.00  0.00    +0.000 A 
ATOM     12  C3  UNL     1      13.643  16.348  -1.523  0.00  0.00    +0.000 A 
ATOM     13  H2  UNL     1      11.595  18.199  -3.094  0.00  0.00    +0.000 HD
ENDBRANCH   6  12
ENDBRANCH   5   6
ENDBRANCH   1   5
BRANCH   3  14
ATOM     14  C6  UNL     1      15.561  11.620  -2.109  0.00  0.00    +0.000 C 
BRANCH  14  15
ATOM     15  C7  UNL     1      16.186  10.889  -3.299  0.00  0.00    +0.000 C 
BRANCH  15  16
ATOM     16  C8  UNL     1      15.357  11.052  -4.549  0.00  0.00    +0.000 A 
ATOM     17  C9  UNL     1      13.998  10.715  -4.554  0.00  0.00    +0.000 A 
ATOM     18  C10 UNL     1      13.241  10.849  -5.719  0.00  0.00    +0.000 A 
ATOM     19  C11 UNL     1      13.837  11.316  -6.890  0.00  0.00    +0.000 A 
ATOM     20  C12 UNL     1      15.190  11.650  -6.896  0.00  0.00    +0.000 A 
ATOM     21  C13 UNL     1      15.948  11.517  -5.732  0.00  0.00    +0.000 A 
ENDBRANCH  15  16
ENDBRANCH  14  15
ENDBRANCH   3  14
TORSDOF 6
ENDMDL
MODEL 2
REMARK VINA RESULT:    -5.134      2.355      5.799
REMARK INTER + INTRA:          -7.510
REMARK INTER:                  -7.030
REMARK INTRA:                  -0.480
REMARK UNBOUND:                -0.575
REMARK  Name = /home/anacleto/Desktop/manuscript_Mpro/naturecomm/supplementary_file_S2/6-chemical-library/molecular_docking/3D_ligand_structure/556.pdb
REMARK  6 active torsions:
REMARK  status: ('A' for Active; 'I' for Inactive)
REMARK    1  A    between atoms: C3_5  and  N3_6
REMARK    2  A    between atoms: N3_6  and  C4_7
REMARK    3  A    between atoms: C4_7  and  C5_8
REMARK    4  A    between atoms: N4_10  and  C6_11
REMARK    5  A    between atoms: C6_11  and  C7_12
REMARK    6  A    between atoms: C7_12  and  C8_13
REMARK                            x       y       z     vdW  Elec       q    Type
REMARK                         _______ _______ _______ _____ _____    ______ ____
ROOT
ATOM      1  C5  UNL     1      16.397  12.238  -2.168  0.00  0.00    +0.000 C 
ATOM      2  O1  UNL     1      16.153  11.713  -1.083  0.00  0.00    +0.000 OA
ATOM      3  N4  UNL     1      16.499  13.603  -2.345  0.00  0.00    +0.000 N 
ATOM      4  H7  UNL     1      16.920  13.879  -3.229  0.00  0.00    +0.000 HD
ENDROOT
BRANCH   1   5
ATOM      5  C4  UNL     1      16.561  11.420  -3.456  0.00  0.00    +0.000 C 
BRANCH   5   6
ATOM      6  N3  UNL     1      15.363  10.626  -3.783  0.00  0.00    +0.000 N 
ATOM      7  H4  UNL     1      15.558   9.627  -3.834  0.00  0.00    +0.000 HD
BRANCH   6  12
ATOM      8  C1  UNL     1      14.143  12.428  -4.906  0.00  0.00    +0.000 A 
ATOM      9  N1  UNL     1      13.002  12.423  -5.656  0.00  0.00    +0.000 N 
ATOM     10  N2  UNL     1      12.456  11.201  -5.798  0.00  0.00    +0.000 NA
ATOM     11  C2  UNL     1      13.287  10.408  -5.114  0.00  0.00    +0.000 A 
ATOM     12  C3  UNL     1      14.360  11.124  -4.544  0.00  0.00    +0.000 A 
ATOM     13  H2  UNL     1      12.538  13.210  -6.098  0.00  0.00    +0.000 HD
ENDBRANCH   6  12
ENDBRANCH   5   6
ENDBRANCH   1   5
BRANCH   3  14
ATOM     14  C6  UNL     1      16.507  14.528  -1.232  0.00  0.00    +0.000 C 
BRANCH  14  15
ATOM     15  C7  UNL     1      16.376  15.985  -1.680  0.00  0.00    +0.000 C 
BRANCH  15  16
ATOM     16  C8  UNL     1      14.947  16.463  -1.605  0.00  0.00    +0.000 A 
ATOM     17  C9  UNL     1      13.999  15.766  -0.846  0.00  0.00    +0.000 A 
ATOM     18  C10 UNL     1      12.675  16.202  -0.797  0.00  0.00    +0.000 A 
ATOM     19  C11 UNL     1      12.285  17.335  -1.510  0.00  0.00    +0.000 A 
ATOM     20  C12 UNL     1      13.220  18.033  -2.272  0.00  0.00    +0.000 A 
ATOM     21  C13 UNL     1      14.544  17.599  -2.321  0.00  0.00    +0.000 A 
ENDBRANCH  15  16
ENDBRANCH  14  15
ENDBRANCH   3  14
TORSDOF 6
ENDMDL
MODEL 3
REMARK VINA RESULT:    -5.099      3.515      6.534
REMARK INTER + INTRA:          -7.463
REMARK INTER:                  -7.005
REMARK INTRA:                  -0.458
REMARK UNBOUND:                -0.575
REMARK  Name = /home/anacleto/Desktop/manuscript_Mpro/naturecomm/supplementary_file_S2/6-chemical-library/molecular_docking/3D_ligand_structure/556.pdb
REMARK  6 active torsions:
REMARK  status: ('A' for Active; 'I' for Inactive)
REMARK    1  A    between atoms: C3_5  and  N3_6
REMARK    2  A    between atoms: N3_6  and  C4_7
REMARK    3  A    between atoms: C4_7  and  C5_8
REMARK    4  A    between atoms: N4_10  and  C6_11
REMARK    5  A    between atoms: C6_11  and  C7_12
REMARK    6  A    between atoms: C7_12  and  C8_13
REMARK                            x       y       z     vdW  Elec       q    Type
REMARK                         _______ _______ _______ _____ _____    ______ ____
ROOT
ATOM      1  C5  UNL     1      17.328  12.166  -3.373  0.00  0.00    +0.000 C 
ATOM      2  O1  UNL     1      17.347  13.394  -3.367  0.00  0.00    +0.000 OA
ATOM      3  N4  UNL     1      17.560  11.397  -2.251  0.00  0.00    +0.000 N 
ATOM      4  H7  UNL     1      17.294  10.419  -2.352  0.00  0.00    +0.000 HD
ENDROOT
BRANCH   1   5
ATOM      5  C4  UNL     1      17.093  11.355  -4.656  0.00  0.00    +0.000 C 
BRANCH   5   6
ATOM      6  N3  UNL     1      15.842  10.574  -4.616  0.00  0.00    +0.000 N 
ATOM      7  H4  UNL     1      16.002   9.575  -4.724  0.00  0.00    +0.000 HD
BRANCH   6  12
ATOM      8  C1  UNL     1      14.398  12.372  -5.441  0.00  0.00    +0.000 A 
ATOM      9  N1  UNL     1      13.071  12.396  -5.763  0.00  0.00    +0.000 N 
ATOM     10  N2  UNL     1      12.454  11.213  -5.592  0.00  0.00    +0.000 NA
ATOM     11  C2  UNL     1      13.431  10.414  -5.150  0.00  0.00    +0.000 A 
ATOM     12  C3  UNL     1      14.665  11.088  -5.044  0.00  0.00    +0.000 A 
ATOM     13  H2  UNL     1      12.522  13.180  -6.101  0.00  0.00    +0.000 HD
ENDBRANCH   6  12
ENDBRANCH   5   6
ENDBRANCH   1   5
BRANCH   3  14
ATOM     14  C6  UNL     1      17.668  11.974  -0.928  0.00  0.00    +0.000 C 
BRANCH  14  15
ATOM     15  C7  UNL     1      19.080  12.479  -0.624  0.00  0.00    +0.000 C 
BRANCH  15  16
ATOM     16  C8  UNL     1      19.065  13.901  -0.120  0.00  0.00    +0.000 A 
ATOM     17  C9  UNL     1      17.877  14.641  -0.107  0.00  0.00    +0.000 A 
ATOM     18  C10 UNL     1      17.874  15.963   0.342  0.00  0.00    +0.000 A 
ATOM     19  C11 UNL     1      19.058  16.557   0.776  0.00  0.00    +0.000 A 
ATOM     20  C12 UNL     1      20.246  15.829   0.762  0.00  0.00    +0.000 A 
ATOM     21  C13 UNL     1      20.251  14.508   0.315  0.00  0.00    +0.000 A 
ENDBRANCH  15  16
ENDBRANCH  14  15
ENDBRANCH   3  14
TORSDOF 6
ENDMDL
MODEL 4
REMARK VINA RESULT:    -4.982     15.507     16.689
REMARK INTER + INTRA:          -7.305
REMARK INTER:                  -6.980
REMARK INTRA:                  -0.325
REMARK UNBOUND:                -0.575
REMARK  Name = /home/anacleto/Desktop/manuscript_Mpro/naturecomm/supplementary_file_S2/6-chemical-library/molecular_docking/3D_ligand_structure/556.pdb
REMARK  6 active torsions:
REMARK  status: ('A' for Active; 'I' for Inactive)
REMARK    1  A    between atoms: C3_5  and  N3_6
REMARK    2  A    between atoms: N3_6  and  C4_7
REMARK    3  A    between atoms: C4_7  and  C5_8
REMARK    4  A    between atoms: N4_10  and  C6_11
REMARK    5  A    between atoms: C6_11  and  C7_12
REMARK    6  A    between atoms: C7_12  and  C8_13
REMARK                            x       y       z     vdW  Elec       q    Type
REMARK                         _______ _______ _______ _____ _____    ______ ____
ROOT
ATOM      1  C5  UNL     1      18.899   4.352   9.125  0.00  0.00    +0.000 C 
ATOM      2  O1  UNL     1      19.461   3.427   9.708  0.00  0.00    +0.000 OA
ATOM      3  N4  UNL     1      17.622   4.262   8.610  0.00  0.00    +0.000 N 
ATOM      4  H7  UNL     1      17.208   5.157   8.360  0.00  0.00    +0.000 HD
ENDROOT
BRANCH   1   5
ATOM      5  C4  UNL     1      19.592   5.696   8.862  0.00  0.00    +0.000 C 
BRANCH   5   6
ATOM      6  N3  UNL     1      19.011   6.800   9.648  0.00  0.00    +0.000 N 
ATOM      7  H4  UNL     1      18.631   7.541   9.061  0.00  0.00    +0.000 HD
BRANCH   6  12
ATOM      8  C1  UNL     1      20.770   7.048  11.335  0.00  0.00    +0.000 A 
ATOM      9  N1  UNL     1      20.731   7.476  12.631  0.00  0.00    +0.000 N 
ATOM     10  N2  UNL     1      19.500   7.821  13.048  0.00  0.00    +0.000 NA
ATOM     11  C2  UNL     1      18.736   7.606  11.972  0.00  0.00    +0.000 A 
ATOM     12  C3  UNL     1      19.481   7.129  10.874  0.00  0.00    +0.000 A 
ATOM     13  H2  UNL     1      21.501   7.555  13.288  0.00  0.00    +0.000 HD
ENDBRANCH   6  12
ENDBRANCH   5   6
ENDBRANCH   1   5
BRANCH   3  14
ATOM     14  C6  UNL     1      16.762   3.127   8.872  0.00  0.00    +0.000 C 
BRANCH  14  15
ATOM     15  C7  UNL     1      16.060   2.621   7.610  0.00  0.00    +0.000 C 
BRANCH  15  16
ATOM     16  C8  UNL     1      15.185   1.428   7.901  0.00  0.00    +0.000 A 
ATOM     17  C9  UNL     1      15.569   0.144   7.494  0.00  0.00    +0.000 A 
ATOM     18  C10 UNL     1      14.745  -0.953   7.749  0.00  0.00    +0.000 A 
ATOM     19  C11 UNL     1      13.529  -0.777   8.408  0.00  0.00    +0.000 A 
ATOM     20  C12 UNL     1      13.136   0.498   8.812  0.00  0.00    +0.000 A 
ATOM     21  C13 UNL     1      13.959   1.596   8.559  0.00  0.00    +0.000 A 
ENDBRANCH  15  16
ENDBRANCH  14  15
ENDBRANCH   3  14
TORSDOF 6
ENDMDL
MODEL 5
REMARK VINA RESULT:    -4.971     14.878     16.714
REMARK INTER + INTRA:          -7.289
REMARK INTER:                  -6.802
REMARK INTRA:                  -0.487
REMARK UNBOUND:                -0.575
REMARK  Name = /home/anacleto/Desktop/manuscript_Mpro/naturecomm/supplementary_file_S2/6-chemical-library/molecular_docking/3D_ligand_structure/556.pdb
REMARK  6 active torsions:
REMARK  status: ('A' for Active; 'I' for Inactive)
REMARK    1  A    between atoms: C3_5  and  N3_6
REMARK    2  A    between atoms: N3_6  and  C4_7
REMARK    3  A    between atoms: C4_7  and  C5_8
REMARK    4  A    between atoms: N4_10  and  C6_11
REMARK    5  A    between atoms: C6_11  and  C7_12
REMARK    6  A    between atoms: C7_12  and  C8_13
REMARK                            x       y       z     vdW  Elec       q    Type
REMARK                         _______ _______ _______ _____ _____    ______ ____
ROOT
ATOM      1  C5  UNL     1      16.984   3.485   9.933  0.00  0.00    +0.000 C 
ATOM      2  O1  UNL     1      15.901   3.423  10.510  0.00  0.00    +0.000 OA
ATOM      3  N4  UNL     1      17.163   3.129   8.611  0.00  0.00    +0.000 N 
ATOM      4  H7  UNL     1      18.045   3.440   8.211  0.00  0.00    +0.000 HD
ENDROOT
BRANCH   1   5
ATOM      5  C4  UNL     1      18.271   3.920  10.649  0.00  0.00    +0.000 C 
BRANCH   5   6
ATOM      6  N3  UNL     1      19.312   4.387   9.715  0.00  0.00    +0.000 N 
ATOM      7  H4  UNL     1      20.065   3.712   9.600  0.00  0.00    +0.000 HD
BRANCH   6  12
ATOM      8  C1  UNL     1      20.270   6.526  10.428  0.00  0.00    +0.000 A 
ATOM      9  N1  UNL     1      20.287   7.756   9.835  0.00  0.00    +0.000 N 
ATOM     10  N2  UNL     1      19.662   7.790   8.644  0.00  0.00    +0.000 NA
ATOM     11  C2  UNL     1      19.239   6.532   8.480  0.00  0.00    +0.000 A 
ATOM     12  C3  UNL     1      19.598   5.702   9.563  0.00  0.00    +0.000 A 
ATOM     13  H2  UNL     1      20.702   8.614  10.184  0.00  0.00    +0.000 HD
ENDBRANCH   6  12
ENDBRANCH   5   6
ENDBRANCH   1   5
BRANCH   3  14
ATOM     14  C6  UNL     1      16.051   2.822   7.737  0.00  0.00    +0.000 C 
BRANCH  14  15
ATOM     15  C7  UNL     1      15.959   1.330   7.410  0.00  0.00    +0.000 C 
BRANCH  15  16
ATOM     16  C8  UNL     1      14.748   0.695   8.046  0.00  0.00    +0.000 A 
ATOM     17  C9  UNL     1      13.798   1.478   8.713  0.00  0.00    +0.000 A 
ATOM     18  C10 UNL     1      12.690   0.883   9.317  0.00  0.00    +0.000 A 
ATOM     19  C11 UNL     1      12.524  -0.500   9.264  0.00  0.00    +0.000 A 
ATOM     20  C12 UNL     1      13.467  -1.289   8.607  0.00  0.00    +0.000 A 
ATOM     21  C13 UNL     1      14.574  -0.695   8.002  0.00  0.00    +0.000 A 
ENDBRANCH  15  16
ENDBRANCH  14  15
ENDBRANCH   3  14
TORSDOF 6
ENDMDL
MODEL 6
REMARK VINA RESULT:    -4.920      3.340      6.840
REMARK INTER + INTRA:          -7.221
REMARK INTER:                  -6.852
REMARK INTRA:                  -0.369
REMARK UNBOUND:                -0.575
REMARK  Name = /home/anacleto/Desktop/manuscript_Mpro/naturecomm/supplementary_file_S2/6-chemical-library/molecular_docking/3D_ligand_structure/556.pdb
REMARK  6 active torsions:
REMARK  status: ('A' for Active; 'I' for Inactive)
REMARK    1  A    between atoms: C3_5  and  N3_6
REMARK    2  A    between atoms: N3_6  and  C4_7
REMARK    3  A    between atoms: C4_7  and  C5_8
REMARK    4  A    between atoms: N4_10  and  C6_11
REMARK    5  A    between atoms: C6_11  and  C7_12
REMARK    6  A    between atoms: C7_12  and  C8_13
REMARK                            x       y       z     vdW  Elec       q    Type
REMARK                         _______ _______ _______ _____ _____    ______ ____
ROOT
ATOM      1  C5  UNL     1      15.404  13.880  -2.807  0.00  0.00    +0.000 C 
ATOM      2  O1  UNL     1      15.543  12.825  -2.193  0.00  0.00    +0.000 OA
ATOM      3  N4  UNL     1      15.489  15.122  -2.211  0.00  0.00    +0.000 N 
ATOM      4  H7  UNL     1      15.577  15.895  -2.867  0.00  0.00    +0.000 HD
ENDROOT
BRANCH   1   5
ATOM      5  C4  UNL     1      15.066  13.920  -4.304  0.00  0.00    +0.000 C 
BRANCH   5   6
ATOM      6  N3  UNL     1      13.779  13.271  -4.615  0.00  0.00    +0.000 N 
ATOM      7  H4  UNL     1      13.178  13.182  -3.798  0.00  0.00    +0.000 HD
BRANCH   6  12
ATOM      8  C1  UNL     1      12.651  11.449  -5.801  0.00  0.00    +0.000 A 
ATOM      9  N1  UNL     1      12.998  10.737  -6.913  0.00  0.00    +0.000 N 
ATOM     10  N2  UNL     1      14.175  11.111  -7.447  0.00  0.00    +0.000 NA
ATOM     11  C2  UNL     1      14.581  12.099  -6.642  0.00  0.00    +0.000 A 
ATOM     12  C3  UNL     1      13.662  12.353  -5.602  0.00  0.00    +0.000 A 
ATOM     13  H2  UNL     1      12.486   9.984  -7.360  0.00  0.00    +0.000 HD
ENDBRANCH   6  12
ENDBRANCH   5   6
ENDBRANCH   1   5
BRANCH   3  14
ATOM     14  C6  UNL     1      15.929  15.294  -0.843  0.00  0.00    +0.000 C 
BRANCH  14  15
ATOM     15  C7  UNL     1      16.983  16.394  -0.701  0.00  0.00    +0.000 C 
BRANCH  15  16
ATOM     16  C8  UNL     1      18.313  15.834  -0.258  0.00  0.00    +0.000 A 
ATOM     17  C9  UNL     1      19.353  16.688   0.129  0.00  0.00    +0.000 A 
ATOM     18  C10 UNL     1      20.587  16.165   0.518  0.00  0.00    +0.000 A 
ATOM     19  C11 UNL     1      20.793  14.786   0.519  0.00  0.00    +0.000 A 
ATOM     20  C12 UNL     1      19.765  13.929   0.131  0.00  0.00    +0.000 A 
ATOM     21  C13 UNL     1      18.531  14.450  -0.258  0.00  0.00    +0.000 A 
ENDBRANCH  15  16
ENDBRANCH  14  15
ENDBRANCH   3  14
TORSDOF 6
ENDMDL
MODEL 7
REMARK VINA RESULT:    -4.847      1.797      2.322
REMARK INTER + INTRA:          -7.122
REMARK INTER:                  -6.225
REMARK INTRA:                  -0.897
REMARK UNBOUND:                -0.575
REMARK  Name = /home/anacleto/Desktop/manuscript_Mpro/naturecomm/supplementary_file_S2/6-chemical-library/molecular_docking/3D_ligand_structure/556.pdb
REMARK  6 active torsions:
REMARK  status: ('A' for Active; 'I' for Inactive)
REMARK    1  A    between atoms: C3_5  and  N3_6
REMARK    2  A    between atoms: N3_6  and  C4_7
REMARK    3  A    between atoms: C4_7  and  C5_8
REMARK    4  A    between atoms: N4_10  and  C6_11
REMARK    5  A    between atoms: C6_11  and  C7_12
REMARK    6  A    between atoms: C7_12  and  C8_13
REMARK                            x       y       z     vdW  Elec       q    Type
REMARK                         _______ _______ _______ _____ _____    ______ ____
ROOT
ATOM      1  C5  UNL     1      17.107  12.203  -1.418  0.00  0.00    +0.000 C 
ATOM      2  O1  UNL     1      16.225  11.547  -0.868  0.00  0.00    +0.000 OA
ATOM      3  N4  UNL     1      17.877  11.720  -2.457  0.00  0.00    +0.000 N 
ATOM      4  H7  UNL     1      18.403  12.435  -2.955  0.00  0.00    +0.000 HD
ENDROOT
BRANCH   1   5
ATOM      5  C4  UNL     1      17.479  13.621  -0.964  0.00  0.00    +0.000 C 
BRANCH   5   6
ATOM      6  N3  UNL     1      17.130  14.649  -1.961  0.00  0.00    +0.000 N 
ATOM      7  H4  UNL     1      17.640  15.520  -1.820  0.00  0.00    +0.000 HD
BRANCH   6  12
ATOM      8  C1  UNL     1      15.563  14.472  -3.835  0.00  0.00    +0.000 A 
ATOM      9  N1  UNL     1      14.214  14.672  -3.913  0.00  0.00    +0.000 N 
ATOM     10  N2  UNL     1      13.654  15.032  -2.744  0.00  0.00    +0.000 NA
ATOM     11  C2  UNL     1      14.689  15.055  -1.898  0.00  0.00    +0.000 A 
ATOM     12  C3  UNL     1      15.902  14.707  -2.528  0.00  0.00    +0.000 A 
ATOM     13  H2  UNL     1      13.614  14.584  -4.727  0.00  0.00    +0.000 HD
ENDBRANCH   6  12
ENDBRANCH   5   6
ENDBRANCH   1   5
BRANCH   3  14
ATOM     14  C6  UNL     1      17.590  10.461  -3.110  0.00  0.00    +0.000 C 
BRANCH  14  15
ATOM     15  C7  UNL     1      17.568  10.584  -4.635  0.00  0.00    +0.000 C 
BRANCH  15  16
ATOM     16  C8  UNL     1      16.208  11.000  -5.139  0.00  0.00    +0.000 A 
ATOM     17  C9  UNL     1      15.061  10.779  -4.366  0.00  0.00    +0.000 A 
ATOM     18  C10 UNL     1      13.804  11.148  -4.846  0.00  0.00    +0.000 A 
ATOM     19  C11 UNL     1      13.681  11.735  -6.104  0.00  0.00    +0.000 A 
ATOM     20  C12 UNL     1      14.815  11.954  -6.883  0.00  0.00    +0.000 A 
ATOM     21  C13 UNL     1      16.073  11.587  -6.404  0.00  0.00    +0.000 A 
ENDBRANCH  15  16
ENDBRANCH  14  15
ENDBRANCH   3  14
TORSDOF 6
ENDMDL
MODEL 8
REMARK VINA RESULT:    -4.807      1.586      1.984
REMARK INTER + INTRA:          -7.068
REMARK INTER:                  -6.635
REMARK INTRA:                  -0.432
REMARK UNBOUND:                -0.575
REMARK  Name = /home/anacleto/Desktop/manuscript_Mpro/naturecomm/supplementary_file_S2/6-chemical-library/molecular_docking/3D_ligand_structure/556.pdb
REMARK  6 active torsions:
REMARK  status: ('A' for Active; 'I' for Inactive)
REMARK    1  A    between atoms: C3_5  and  N3_6
REMARK    2  A    between atoms: N3_6  and  C4_7
REMARK    3  A    between atoms: C4_7  and  C5_8
REMARK    4  A    between atoms: N4_10  and  C6_11
REMARK    5  A    between atoms: C6_11  and  C7_12
REMARK    6  A    between atoms: C7_12  and  C8_13
REMARK                            x       y       z     vdW  Elec       q    Type
REMARK                         _______ _______ _______ _____ _____    ______ ____
ROOT
ATOM      1  C5  UNL     1      15.456  14.781  -2.663  0.00  0.00    +0.000 C 
ATOM      2  O1  UNL     1      15.888  15.053  -3.781  0.00  0.00    +0.000 OA
ATOM      3  N4  UNL     1      15.498  13.512  -2.121  0.00  0.00    +0.000 N 
ATOM      4  H7  UNL     1      15.315  13.479  -1.121  0.00  0.00    +0.000 HD
ENDROOT
BRANCH   1   5
ATOM      5  C4  UNL     1      14.772  15.826  -1.771  0.00  0.00    +0.000 C 
BRANCH   5   6
ATOM      6  N3  UNL     1      15.095  17.210  -2.165  0.00  0.00    +0.000 N 
ATOM      7  H4  UNL     1      15.994  17.521  -1.801  0.00  0.00    +0.000 HD
BRANCH   6  12
ATOM      8  C1  UNL     1      12.775  17.991  -2.238  0.00  0.00    +0.000 A 
ATOM      9  N1  UNL     1      12.232  19.198  -2.575  0.00  0.00    +0.000 N 
ATOM     10  N2  UNL     1      13.147  20.119  -2.931  0.00  0.00    +0.000 NA
ATOM     11  C2  UNL     1      14.308  19.467  -2.808  0.00  0.00    +0.000 A 
ATOM     12  C3  UNL     1      14.131  18.137  -2.373  0.00  0.00    +0.000 A 
ATOM     13  H2  UNL     1      11.253  19.464  -2.588  0.00  0.00    +0.000 HD
ENDBRANCH   6  12
ENDBRANCH   5   6
ENDBRANCH   1   5
BRANCH   3  14
ATOM     14  C6  UNL     1      16.219  12.427  -2.751  0.00  0.00    +0.000 C 
BRANCH  14  15
ATOM     15  C7  UNL     1      15.314  11.238  -3.082  0.00  0.00    +0.000 C 
BRANCH  15  16
ATOM     16  C8  UNL     1      14.947  11.210  -4.545  0.00  0.00    +0.000 A 
ATOM     17  C9  UNL     1      13.682  10.771  -4.956  0.00  0.00    +0.000 A 
ATOM     18  C10 UNL     1      13.356  10.728  -6.313  0.00  0.00    +0.000 A 
ATOM     19  C11 UNL     1      14.292  11.119  -7.269  0.00  0.00    +0.000 A 
ATOM     20  C12 UNL     1      15.554  11.553  -6.870  0.00  0.00    +0.000 A 
ATOM     21  C13 UNL     1      15.882  11.597  -5.515  0.00  0.00    +0.000 A 
ENDBRANCH  15  16
ENDBRANCH  14  15
ENDBRANCH   3  14
TORSDOF 6
ENDMDL
MODEL 9
REMARK VINA RESULT:    -4.772      3.397      4.715
REMARK INTER + INTRA:          -7.020
REMARK INTER:                  -6.445
REMARK INTRA:                  -0.575
REMARK UNBOUND:                -0.575
REMARK  Name = /home/anacleto/Desktop/manuscript_Mpro/naturecomm/supplementary_file_S2/6-chemical-library/molecular_docking/3D_ligand_structure/556.pdb
REMARK  6 active torsions:
REMARK  status: ('A' for Active; 'I' for Inactive)
REMARK    1  A    between atoms: C3_5  and  N3_6
REMARK    2  A    between atoms: N3_6  and  C4_7
REMARK    3  A    between atoms: C4_7  and  C5_8
REMARK    4  A    between atoms: N4_10  and  C6_11
REMARK    5  A    between atoms: C6_11  and  C7_12
REMARK    6  A    between atoms: C7_12  and  C8_13
REMARK                            x       y       z     vdW  Elec       q    Type
REMARK                         _______ _______ _______ _____ _____    ______ ____
ROOT
ATOM      1  C5  UNL     1      15.906  10.792  -3.102  0.00  0.00    +0.000 C 
ATOM      2  O1  UNL     1      16.791  10.668  -3.946  0.00  0.00    +0.000 OA
ATOM      3  N4  UNL     1      14.564  10.881  -3.415  0.00  0.00    +0.000 N 
ATOM      4  H7  UNL     1      13.941  10.756  -2.621  0.00  0.00    +0.000 HD
ENDROOT
BRANCH   1   5
ATOM      5  C4  UNL     1      16.213  10.917  -1.603  0.00  0.00    +0.000 C 
BRANCH   5   6
ATOM      6  N3  UNL     1      17.604  11.331  -1.339  0.00  0.00    +0.000 N 
ATOM      7  H4  UNL     1      18.194  10.553  -1.049  0.00  0.00    +0.000 HD
BRANCH   6  12
ATOM      8  C1  UNL     1      19.144  13.088  -0.606  0.00  0.00    +0.000 A 
ATOM      9  N1  UNL     1      18.926  14.365  -0.174  0.00  0.00    +0.000 N 
ATOM     10  N2  UNL     1      17.626  14.711  -0.149  0.00  0.00    +0.000 NA
ATOM     11  C2  UNL     1      17.003  13.611  -0.586  0.00  0.00    +0.000 A 
ATOM     12  C3  UNL     1      17.907  12.571  -0.891  0.00  0.00    +0.000 A 
ATOM     13  H2  UNL     1      19.611  15.053   0.121  0.00  0.00    +0.000 HD
ENDBRANCH   6  12
ENDBRANCH   5   6
ENDBRANCH   1   5
BRANCH   3  14
ATOM     14  C6  UNL     1      14.068  10.653  -4.755  0.00  0.00    +0.000 C 
BRANCH  14  15
ATOM     15  C7  UNL     1      13.516  11.926  -5.400  0.00  0.00    +0.000 C 
BRANCH  15  16
ATOM     16  C8  UNL     1      14.624  12.817  -5.906  0.00  0.00    +0.000 A 
ATOM     17  C9  UNL     1      15.100  13.878  -5.125  0.00  0.00    +0.000 A 
ATOM     18  C10 UNL     1      16.111  14.711  -5.607  0.00  0.00    +0.000 A 
ATOM     19  C11 UNL     1      16.650  14.495  -6.875  0.00  0.00    +0.000 A 
ATOM     20  C12 UNL     1      16.179  13.445  -7.661  0.00  0.00    +0.000 A 
ATOM     21  C13 UNL     1      15.170  12.610  -7.180  0.00  0.00    +0.000 A 
ENDBRANCH  15  16
ENDBRANCH  14  15
ENDBRANCH   3  14
TORSDOF 6
ENDMDL
