MODEL 1
REMARK VINA RESULT:    -3.231      0.000      0.000
REMARK INTER + INTRA:          -3.231
REMARK INTER:                  -3.231
REMARK INTRA:                   0.000
REMARK UNBOUND:                 0.000
REMARK  Name = /home/anacleto/Desktop/manuscript_Mpro/naturecomm/supplementary_file_S2/6-chemical-library/molecular_docking/3D_ligand_structure/321.pdb
REMARK  0 active torsions:
REMARK  status: ('A' for Active; 'I' for Inactive)
REMARK                            x       y       z     vdW  Elec       q    Type
REMARK                         _______ _______ _______ _____ _____    ______ ____
ROOT
ATOM      1  N1  UNL     1     -21.955   6.400 -38.268  0.00  0.00    +0.000 NA
ATOM      2  C1  UNL     1     -23.259   6.050 -38.533  0.00  0.00    +0.000 A 
ATOM      3  C2  UNL     1     -24.123   7.094 -38.268  0.00  0.00    +0.000 A 
ATOM      4  N2  UNL     1     -23.323   8.111 -37.829  0.00  0.00    +0.000 N 
ATOM      5  C3  UNL     1     -22.036   7.643 -37.848  0.00  0.00    +0.000 A 
ATOM      6  C4  UNL     1     -23.589   9.401 -37.413  0.00  0.00    +0.000 A 
ATOM      7  C5  UNL     1     -22.552  10.170 -37.033  0.00  0.00    +0.000 A 
ATOM      8  N3  UNL     1     -21.230   9.749 -37.031  0.00  0.00    +0.000 NA
ATOM      9  C6  UNL     1     -20.984   8.526 -37.427  0.00  0.00    +0.000 A 
ENDROOT
TORSDOF 0
ENDMDL
MODEL 2
REMARK VINA RESULT:    -3.187      0.630      3.039
REMARK INTER + INTRA:          -3.187
REMARK INTER:                  -3.187
REMARK INTRA:                   0.000
REMARK UNBOUND:                 0.000
REMARK  Name = /home/anacleto/Desktop/manuscript_Mpro/naturecomm/supplementary_file_S2/6-chemical-library/molecular_docking/3D_ligand_structure/321.pdb
REMARK  0 active torsions:
REMARK  status: ('A' for Active; 'I' for Inactive)
REMARK                            x       y       z     vdW  Elec       q    Type
REMARK                         _______ _______ _______ _____ _____    ______ ____
ROOT
ATOM      1  N1  UNL     1     -21.313   9.202 -36.962  0.00  0.00    +0.000 NA
ATOM      2  C1  UNL     1     -22.233  10.211 -36.780  0.00  0.00    +0.000 A 
ATOM      3  C2  UNL     1     -23.486   9.831 -37.216  0.00  0.00    +0.000 A 
ATOM      4  N2  UNL     1     -23.328   8.555 -37.678  0.00  0.00    +0.000 N 
ATOM      5  C3  UNL     1     -22.010   8.228 -37.502  0.00  0.00    +0.000 A 
ATOM      6  C4  UNL     1     -24.204   7.644 -38.236  0.00  0.00    +0.000 A 
ATOM      7  C5  UNL     1     -23.722   6.440 -38.594  0.00  0.00    +0.000 A 
ATOM      8  N3  UNL     1     -22.398   6.054 -38.441  0.00  0.00    +0.000 NA
ATOM      9  C6  UNL     1     -21.573   6.922 -37.912  0.00  0.00    +0.000 A 
ENDROOT
TORSDOF 0
ENDMDL
MODEL 3
REMARK VINA RESULT:    -3.126     27.556     28.276
REMARK INTER + INTRA:          -3.126
REMARK INTER:                  -3.126
REMARK INTRA:                   0.000
REMARK UNBOUND:                 0.000
REMARK  Name = /home/anacleto/Desktop/manuscript_Mpro/naturecomm/supplementary_file_S2/6-chemical-library/molecular_docking/3D_ligand_structure/321.pdb
REMARK  0 active torsions:
REMARK  status: ('A' for Active; 'I' for Inactive)
REMARK                            x       y       z     vdW  Elec       q    Type
REMARK                         _______ _______ _______ _____ _____    ______ ____
ROOT
ATOM      1  N1  UNL     1     -37.306   8.194 -15.596  0.00  0.00    +0.000 NA
ATOM      2  C1  UNL     1     -38.169   9.266 -15.556  0.00  0.00    +0.000 A 
ATOM      3  C2  UNL     1     -39.339   8.945 -14.899  0.00  0.00    +0.000 A 
ATOM      4  N2  UNL     1     -39.187   7.638 -14.526  0.00  0.00    +0.000 N 
ATOM      5  C3  UNL     1     -37.954   7.238 -14.968  0.00  0.00    +0.000 A 
ATOM      6  C4  UNL     1     -40.004   6.757 -13.845  0.00  0.00    +0.000 A 
ATOM      7  C5  UNL     1     -39.549   5.508 -13.634  0.00  0.00    +0.000 A 
ATOM      8  N3  UNL     1     -38.311   5.048 -14.058  0.00  0.00    +0.000 NA
ATOM      9  C6  UNL     1     -37.542   5.888 -14.703  0.00  0.00    +0.000 A 
ENDROOT
TORSDOF 0
ENDMDL
MODEL 4
REMARK VINA RESULT:    -3.123     16.498     17.529
REMARK INTER + INTRA:          -3.123
REMARK INTER:                  -3.123
REMARK INTRA:                   0.000
REMARK UNBOUND:                 0.000
REMARK  Name = /home/anacleto/Desktop/manuscript_Mpro/naturecomm/supplementary_file_S2/6-chemical-library/molecular_docking/3D_ligand_structure/321.pdb
REMARK  0 active torsions:
REMARK  status: ('A' for Active; 'I' for Inactive)
REMARK                            x       y       z     vdW  Elec       q    Type
REMARK                         _______ _______ _______ _____ _____    ______ ____
ROOT
ATOM      1  N1  UNL     1     -28.761  -5.294 -26.406  0.00  0.00    +0.000 NA
ATOM      2  C1  UNL     1     -28.177  -6.028 -25.398  0.00  0.00    +0.000 A 
ATOM      3  C2  UNL     1     -26.805  -5.873 -25.395  0.00  0.00    +0.000 A 
ATOM      4  N2  UNL     1     -26.544  -5.020 -26.431  0.00  0.00    +0.000 N 
ATOM      5  C3  UNL     1     -27.749  -4.705 -27.001  0.00  0.00    +0.000 A 
ATOM      6  C4  UNL     1     -25.374  -4.487 -26.934  0.00  0.00    +0.000 A 
ATOM      7  C5  UNL     1     -25.459  -3.657 -27.991  0.00  0.00    +0.000 A 
ATOM      8  N3  UNL     1     -26.650  -3.304 -28.609  0.00  0.00    +0.000 NA
ATOM      9  C6  UNL     1     -27.756  -3.813 -28.127  0.00  0.00    +0.000 A 
ENDROOT
TORSDOF 0
ENDMDL
MODEL 5
REMARK VINA RESULT:    -3.123      2.217      3.668
REMARK INTER + INTRA:          -3.123
REMARK INTER:                  -3.123
REMARK INTRA:                   0.000
REMARK UNBOUND:                 0.000
REMARK  Name = /home/anacleto/Desktop/manuscript_Mpro/naturecomm/supplementary_file_S2/6-chemical-library/molecular_docking/3D_ligand_structure/321.pdb
REMARK  0 active torsions:
REMARK  status: ('A' for Active; 'I' for Inactive)
REMARK                            x       y       z     vdW  Elec       q    Type
REMARK                         _______ _______ _______ _____ _____    ______ ____
ROOT
ATOM      1  N1  UNL     1     -18.724   7.758 -39.032  0.00  0.00    +0.000 NA
ATOM      2  C1  UNL     1     -17.983   8.915 -38.962  0.00  0.00    +0.000 A 
ATOM      3  C2  UNL     1     -18.692   9.930 -38.353  0.00  0.00    +0.000 A 
ATOM      4  N2  UNL     1     -19.903   9.377 -38.042  0.00  0.00    +0.000 N 
ATOM      5  C3  UNL     1     -19.868   8.077 -38.469  0.00  0.00    +0.000 A 
ATOM      6  C4  UNL     1     -21.033   9.880 -37.428  0.00  0.00    +0.000 A 
ATOM      7  C5  UNL     1     -22.085   9.056 -37.267  0.00  0.00    +0.000 A 
ATOM      8  N3  UNL     1     -22.107   7.731 -37.680  0.00  0.00    +0.000 NA
ATOM      9  C6  UNL     1     -21.032   7.261 -38.261  0.00  0.00    +0.000 A 
ENDROOT
TORSDOF 0
ENDMDL
MODEL 6
REMARK VINA RESULT:    -3.110     16.742     17.780
REMARK INTER + INTRA:          -3.110
REMARK INTER:                  -3.110
REMARK INTRA:                   0.000
REMARK UNBOUND:                 0.000
REMARK  Name = /home/anacleto/Desktop/manuscript_Mpro/naturecomm/supplementary_file_S2/6-chemical-library/molecular_docking/3D_ligand_structure/321.pdb
REMARK  0 active torsions:
REMARK  status: ('A' for Active; 'I' for Inactive)
REMARK                            x       y       z     vdW  Elec       q    Type
REMARK                         _______ _______ _______ _____ _____    ______ ____
ROOT
ATOM      1  N1  UNL     1     -25.742  -3.720 -27.497  0.00  0.00    +0.000 NA
ATOM      2  C1  UNL     1     -26.655  -3.388 -28.472  0.00  0.00    +0.000 A 
ATOM      3  C2  UNL     1     -27.880  -3.977 -28.235  0.00  0.00    +0.000 A 
ATOM      4  N2  UNL     1     -27.711  -4.691 -27.082  0.00  0.00    +0.000 N 
ATOM      5  C3  UNL     1     -26.415  -4.503 -26.683  0.00  0.00    +0.000 A 
ATOM      6  C4  UNL     1     -28.561  -5.488 -26.340  0.00  0.00    +0.000 A 
ATOM      7  C5  UNL     1     -28.075  -6.064 -25.225  0.00  0.00    +0.000 A 
ATOM      8  N3  UNL     1     -26.772  -5.910 -24.773  0.00  0.00    +0.000 NA
ATOM      9  C6  UNL     1     -25.972  -5.153 -25.481  0.00  0.00    +0.000 A 
ENDROOT
TORSDOF 0
ENDMDL
MODEL 7
REMARK VINA RESULT:    -3.104     27.564     28.214
REMARK INTER + INTRA:          -3.104
REMARK INTER:                  -3.104
REMARK INTRA:                   0.000
REMARK UNBOUND:                 0.000
REMARK  Name = /home/anacleto/Desktop/manuscript_Mpro/naturecomm/supplementary_file_S2/6-chemical-library/molecular_docking/3D_ligand_structure/321.pdb
REMARK  0 active torsions:
REMARK  status: ('A' for Active; 'I' for Inactive)
REMARK                            x       y       z     vdW  Elec       q    Type
REMARK                         _______ _______ _______ _____ _____    ______ ____
ROOT
ATOM      1  N1  UNL     1     -39.506   5.662 -13.843  0.00  0.00    +0.000 NA
ATOM      2  C1  UNL     1     -38.401   4.882 -14.093  0.00  0.00    +0.000 A 
ATOM      3  C2  UNL     1     -37.409   5.603 -14.726  0.00  0.00    +0.000 A 
ATOM      4  N2  UNL     1     -37.924   6.861 -14.868  0.00  0.00    +0.000 N 
ATOM      5  C3  UNL     1     -39.179   6.842 -14.323  0.00  0.00    +0.000 A 
ATOM      6  C4  UNL     1     -37.421   8.024 -15.419  0.00  0.00    +0.000 A 
ATOM      7  C5  UNL     1     -38.200   9.121 -15.400  0.00  0.00    +0.000 A 
ATOM      8  N3  UNL     1     -39.478   9.160 -14.863  0.00  0.00    +0.000 NA
ATOM      9  C6  UNL     1     -39.949   8.055 -14.342  0.00  0.00    +0.000 A 
ENDROOT
TORSDOF 0
ENDMDL
MODEL 8
REMARK VINA RESULT:    -3.032     15.253     16.339
REMARK INTER + INTRA:          -3.032
REMARK INTER:                  -3.032
REMARK INTRA:                   0.000
REMARK UNBOUND:                 0.000
REMARK  Name = /home/anacleto/Desktop/manuscript_Mpro/naturecomm/supplementary_file_S2/6-chemical-library/molecular_docking/3D_ligand_structure/321.pdb
REMARK  0 active torsions:
REMARK  status: ('A' for Active; 'I' for Inactive)
REMARK                            x       y       z     vdW  Elec       q    Type
REMARK                         _______ _______ _______ _____ _____    ______ ____
ROOT
ATOM      1  N1  UNL     1     -23.810  -4.728 -27.252  0.00  0.00    +0.000 NA
ATOM      2  C1  UNL     1     -23.322  -4.025 -28.330  0.00  0.00    +0.000 A 
ATOM      3  C2  UNL     1     -24.335  -3.380 -29.009  0.00  0.00    +0.000 A 
ATOM      4  N2  UNL     1     -25.476  -3.698 -28.326  0.00  0.00    +0.000 N 
ATOM      5  C3  UNL     1     -25.105  -4.505 -27.285  0.00  0.00    +0.000 A 
ATOM      6  C4  UNL     1     -26.803  -3.363 -28.510  0.00  0.00    +0.000 A 
ATOM      7  C5  UNL     1     -27.706  -3.852 -27.640  0.00  0.00    +0.000 A 
ATOM      8  N3  UNL     1     -27.388  -4.674 -26.568  0.00  0.00    +0.000 NA
ATOM      9  C6  UNL     1     -26.128  -4.988 -26.399  0.00  0.00    +0.000 A 
ENDROOT
TORSDOF 0
ENDMDL
MODEL 9
REMARK VINA RESULT:    -3.004      1.221      2.384
REMARK INTER + INTRA:          -3.004
REMARK INTER:                  -3.004
REMARK INTRA:                   0.000
REMARK UNBOUND:                 0.000
REMARK  Name = /home/anacleto/Desktop/manuscript_Mpro/naturecomm/supplementary_file_S2/6-chemical-library/molecular_docking/3D_ligand_structure/321.pdb
REMARK  0 active torsions:
REMARK  status: ('A' for Active; 'I' for Inactive)
REMARK                            x       y       z     vdW  Elec       q    Type
REMARK                         _______ _______ _______ _____ _____    ______ ____
ROOT
ATOM      1  N1  UNL     1     -20.509   8.799 -37.798  0.00  0.00    +0.000 NA
ATOM      2  C1  UNL     1     -20.285   7.537 -38.302  0.00  0.00    +0.000 A 
ATOM      3  C2  UNL     1     -21.471   6.871 -38.533  0.00  0.00    +0.000 A 
ATOM      4  N2  UNL     1     -22.448   7.750 -38.159  0.00  0.00    +0.000 N 
ATOM      5  C3  UNL     1     -21.818   8.887 -37.728  0.00  0.00    +0.000 A 
ATOM      6  C4  UNL     1     -23.827   7.671 -38.152  0.00  0.00    +0.000 A 
ATOM      7  C5  UNL     1     -24.519   8.739 -37.712  0.00  0.00    +0.000 A 
ATOM      8  N3  UNL     1     -23.936   9.914 -37.264  0.00  0.00    +0.000 NA
ATOM      9  C6  UNL     1     -22.628   9.982 -37.273  0.00  0.00    +0.000 A 
ENDROOT
TORSDOF 0
ENDMDL
