MODEL 1
REMARK VINA RESULT:    -4.736      0.000      0.000
REMARK INTER + INTRA:          -5.127
REMARK INTER:                  -5.031
REMARK INTRA:                  -0.095
REMARK UNBOUND:                -0.114
REMARK  Name = /home/anacleto/Desktop/manuscript_Mpro/naturecomm/supplementary_file_S2/6-chemical-library/molecular_docking/3D_ligand_structure/1235.pdb
REMARK  1 active torsions:
REMARK  status: ('A' for Active; 'I' for Inactive)
REMARK    1  A    between atoms: C2_6  and  C3_7
REMARK                            x       y       z     vdW  Elec       q    Type
REMARK                         _______ _______ _______ _____ _____    ______ ____
ROOT
ATOM      1  N1  UNL     1     -30.245   4.305 -39.576  0.00  0.00    +0.000 N 
ATOM      2  C1  UNL     1     -31.404   4.977 -39.325  0.00  0.00    +0.000 A 
ATOM      3  O1  UNL     1     -32.434   4.918 -39.970  0.00  0.00    +0.000 OA
ATOM      4  N2  UNL     1     -31.155   5.729 -38.191  0.00  0.00    +0.000 N 
ATOM      5  N3  UNL     1     -29.873   5.529 -37.750  0.00  0.00    +0.000 NA
ATOM      6  C2  UNL     1     -29.373   4.678 -38.603  0.00  0.00    +0.000 A 
ATOM      7  H1  UNL     1     -30.133   3.676 -40.349  0.00  0.00    +0.000 HD
ATOM      8  H2  UNL     1     -31.805   6.349 -37.728  0.00  0.00    +0.000 HD
ENDROOT
BRANCH   6   9
ATOM      9  C3  UNL     1     -27.998   4.142 -38.556  0.00  0.00    +0.000 A 
ATOM     10  C4  UNL     1     -26.885   4.902 -38.941  0.00  0.00    +0.000 A 
ATOM     11  C5  UNL     1     -25.604   4.348 -38.879  0.00  0.00    +0.000 A 
ATOM     12  C6  UNL     1     -25.425   3.039 -38.435  0.00  0.00    +0.000 A 
ATOM     13  C7  UNL     1     -26.527   2.277 -38.050  0.00  0.00    +0.000 A 
ATOM     14  C8  UNL     1     -27.809   2.827 -38.110  0.00  0.00    +0.000 A 
ENDBRANCH   6   9
TORSDOF 1
ENDMDL
MODEL 2
REMARK VINA RESULT:    -4.729      4.687      5.860
REMARK INTER + INTRA:          -5.119
REMARK INTER:                  -5.022
REMARK INTRA:                  -0.098
REMARK UNBOUND:                -0.114
REMARK  Name = /home/anacleto/Desktop/manuscript_Mpro/naturecomm/supplementary_file_S2/6-chemical-library/molecular_docking/3D_ligand_structure/1235.pdb
REMARK  1 active torsions:
REMARK  status: ('A' for Active; 'I' for Inactive)
REMARK    1  A    between atoms: C2_6  and  C3_7
REMARK                            x       y       z     vdW  Elec       q    Type
REMARK                         _______ _______ _______ _____ _____    ______ ____
ROOT
ATOM      1  N1  UNL     1     -23.727   5.263 -37.742  0.00  0.00    +0.000 N 
ATOM      2  C1  UNL     1     -22.725   6.029 -38.259  0.00  0.00    +0.000 A 
ATOM      3  O1  UNL     1     -21.783   6.502 -37.650  0.00  0.00    +0.000 OA
ATOM      4  N2  UNL     1     -23.010   6.148 -39.608  0.00  0.00    +0.000 N 
ATOM      5  N3  UNL     1     -24.161   5.472 -39.919  0.00  0.00    +0.000 NA
ATOM      6  C2  UNL     1     -24.550   4.965 -38.782  0.00  0.00    +0.000 A 
ATOM      7  H1  UNL     1     -23.779   5.012 -36.773  0.00  0.00    +0.000 HD
ATOM      8  H2  UNL     1     -22.467   6.654 -40.293  0.00  0.00    +0.000 HD
ENDROOT
BRANCH   6   9
ATOM      9  C3  UNL     1     -25.759   4.139 -38.593  0.00  0.00    +0.000 A 
ATOM     10  C4  UNL     1     -25.697   2.807 -38.165  0.00  0.00    +0.000 A 
ATOM     11  C5  UNL     1     -26.872   2.068 -38.002  0.00  0.00    +0.000 A 
ATOM     12  C6  UNL     1     -28.111   2.651 -38.264  0.00  0.00    +0.000 A 
ATOM     13  C7  UNL     1     -28.180   3.976 -38.690  0.00  0.00    +0.000 A 
ATOM     14  C8  UNL     1     -27.008   4.718 -38.854  0.00  0.00    +0.000 A 
ENDBRANCH   6   9
TORSDOF 1
ENDMDL
MODEL 3
REMARK VINA RESULT:    -4.703     10.044     11.974
REMARK INTER + INTRA:          -5.092
REMARK INTER:                  -4.979
REMARK INTRA:                  -0.113
REMARK UNBOUND:                -0.114
REMARK  Name = /home/anacleto/Desktop/manuscript_Mpro/naturecomm/supplementary_file_S2/6-chemical-library/molecular_docking/3D_ligand_structure/1235.pdb
REMARK  1 active torsions:
REMARK  status: ('A' for Active; 'I' for Inactive)
REMARK    1  A    between atoms: C2_6  and  C3_7
REMARK                            x       y       z     vdW  Elec       q    Type
REMARK                         _______ _______ _______ _____ _____    ______ ____
ROOT
ATOM      1  N1  UNL     1     -32.842  11.702 -34.091  0.00  0.00    +0.000 N 
ATOM      2  C1  UNL     1     -31.717  12.392 -34.430  0.00  0.00    +0.000 A 
ATOM      3  O1  UNL     1     -30.907  12.088 -35.286  0.00  0.00    +0.000 OA
ATOM      4  N2  UNL     1     -31.700  13.499 -33.600  0.00  0.00    +0.000 N 
ATOM      5  N3  UNL     1     -32.787  13.495 -32.767  0.00  0.00    +0.000 NA
ATOM      6  C2  UNL     1     -33.435  12.411 -33.095  0.00  0.00    +0.000 A 
ATOM      7  H1  UNL     1     -33.113  10.845 -34.535  0.00  0.00    +0.000 HD
ATOM      8  H2  UNL     1     -30.999  14.227 -33.586  0.00  0.00    +0.000 HD
ENDROOT
BRANCH   6   9
ATOM      9  C3  UNL     1     -34.694  11.957 -32.471  0.00  0.00    +0.000 A 
ATOM     10  C4  UNL     1     -35.389  10.829 -32.925  0.00  0.00    +0.000 A 
ATOM     11  C5  UNL     1     -36.578  10.440 -32.301  0.00  0.00    +0.000 A 
ATOM     12  C6  UNL     1     -37.078  11.172 -31.225  0.00  0.00    +0.000 A 
ATOM     13  C7  UNL     1     -36.392  12.296 -30.768  0.00  0.00    +0.000 A 
ATOM     14  C8  UNL     1     -35.203  12.687 -31.389  0.00  0.00    +0.000 A 
ENDBRANCH   6   9
TORSDOF 1
ENDMDL
MODEL 4
REMARK VINA RESULT:    -4.653     10.315     11.710
REMARK INTER + INTRA:          -5.039
REMARK INTER:                  -4.925
REMARK INTRA:                  -0.114
REMARK UNBOUND:                -0.114
REMARK  Name = /home/anacleto/Desktop/manuscript_Mpro/naturecomm/supplementary_file_S2/6-chemical-library/molecular_docking/3D_ligand_structure/1235.pdb
REMARK  1 active torsions:
REMARK  status: ('A' for Active; 'I' for Inactive)
REMARK    1  A    between atoms: C2_6  and  C3_7
REMARK                            x       y       z     vdW  Elec       q    Type
REMARK                         _______ _______ _______ _____ _____    ______ ____
ROOT
ATOM      1  N1  UNL     1     -17.324   8.799 -39.107  0.00  0.00    +0.000 N 
ATOM      2  C1  UNL     1     -16.328   9.723 -39.210  0.00  0.00    +0.000 A 
ATOM      3  O1  UNL     1     -15.201   9.535 -39.630  0.00  0.00    +0.000 OA
ATOM      4  N2  UNL     1     -16.872  10.905 -38.740  0.00  0.00    +0.000 N 
ATOM      5  N3  UNL     1     -18.173  10.718 -38.355  0.00  0.00    +0.000 NA
ATOM      6  C2  UNL     1     -18.396   9.454 -38.591  0.00  0.00    +0.000 A 
ATOM      7  H1  UNL     1     -17.212   7.840 -39.379  0.00  0.00    +0.000 HD
ATOM      8  H2  UNL     1     -16.403  11.798 -38.676  0.00  0.00    +0.000 HD
ENDROOT
BRANCH   6   9
ATOM      9  C3  UNL     1     -19.674   8.759 -38.337  0.00  0.00    +0.000 A 
ATOM     10  C4  UNL     1     -20.706   9.339 -37.588  0.00  0.00    +0.000 A 
ATOM     11  C5  UNL     1     -21.897   8.638 -37.376  0.00  0.00    +0.000 A 
ATOM     12  C6  UNL     1     -22.064   7.360 -37.907  0.00  0.00    +0.000 A 
ATOM     13  C7  UNL     1     -21.042   6.777 -38.654  0.00  0.00    +0.000 A 
ATOM     14  C8  UNL     1     -19.850   7.474 -38.868  0.00  0.00    +0.000 A 
ENDBRANCH   6   9
TORSDOF 1
ENDMDL
MODEL 5
REMARK VINA RESULT:    -4.507      2.913      3.281
REMARK INTER + INTRA:          -4.885
REMARK INTER:                  -4.789
REMARK INTRA:                  -0.096
REMARK UNBOUND:                -0.114
REMARK  Name = /home/anacleto/Desktop/manuscript_Mpro/naturecomm/supplementary_file_S2/6-chemical-library/molecular_docking/3D_ligand_structure/1235.pdb
REMARK  1 active torsions:
REMARK  status: ('A' for Active; 'I' for Inactive)
REMARK    1  A    between atoms: C2_6  and  C3_7
REMARK                            x       y       z     vdW  Elec       q    Type
REMARK                         _______ _______ _______ _____ _____    ______ ____
ROOT
ATOM      1  N1  UNL     1     -29.796   0.828 -40.545  0.00  0.00    +0.000 N 
ATOM      2  C1  UNL     1     -30.992   0.950 -41.187  0.00  0.00    +0.000 A 
ATOM      3  O1  UNL     1     -31.801   0.065 -41.394  0.00  0.00    +0.000 OA
ATOM      4  N2  UNL     1     -31.083   2.284 -41.545  0.00  0.00    +0.000 N 
ATOM      5  N3  UNL     1     -29.970   2.970 -41.135  0.00  0.00    +0.000 NA
ATOM      6  C2  UNL     1     -29.236   2.066 -40.547  0.00  0.00    +0.000 A 
ATOM      7  H1  UNL     1     -29.462  -0.041 -40.171  0.00  0.00    +0.000 HD
ATOM      8  H2  UNL     1     -31.847   2.721 -42.039  0.00  0.00    +0.000 HD
ENDROOT
BRANCH   6   9
ATOM      9  C3  UNL     1     -27.918   2.315 -39.931  0.00  0.00    +0.000 A 
ATOM     10  C4  UNL     1     -26.767   2.549 -40.694  0.00  0.00    +0.000 A 
ATOM     11  C5  UNL     1     -25.542   2.779 -40.062  0.00  0.00    +0.000 A 
ATOM     12  C6  UNL     1     -25.459   2.777 -38.670  0.00  0.00    +0.000 A 
ATOM     13  C7  UNL     1     -26.599   2.545 -37.905  0.00  0.00    +0.000 A 
ATOM     14  C8  UNL     1     -27.826   2.315 -38.533  0.00  0.00    +0.000 A 
ENDBRANCH   6   9
TORSDOF 1
ENDMDL
MODEL 6
REMARK VINA RESULT:    -4.453      1.641      2.130
REMARK INTER + INTRA:          -4.827
REMARK INTER:                  -4.723
REMARK INTRA:                  -0.104
REMARK UNBOUND:                -0.114
REMARK  Name = /home/anacleto/Desktop/manuscript_Mpro/naturecomm/supplementary_file_S2/6-chemical-library/molecular_docking/3D_ligand_structure/1235.pdb
REMARK  1 active torsions:
REMARK  status: ('A' for Active; 'I' for Inactive)
REMARK    1  A    between atoms: C2_6  and  C3_7
REMARK                            x       y       z     vdW  Elec       q    Type
REMARK                         _______ _______ _______ _____ _____    ______ ____
ROOT
ATOM      1  N1  UNL     1     -28.817   6.331 -39.899  0.00  0.00    +0.000 N 
ATOM      2  C1  UNL     1     -29.883   7.156 -39.692  0.00  0.00    +0.000 A 
ATOM      3  O1  UNL     1     -30.293   8.018 -40.447  0.00  0.00    +0.000 OA
ATOM      4  N2  UNL     1     -30.387   6.801 -38.453  0.00  0.00    +0.000 N 
ATOM      5  N3  UNL     1     -29.652   5.783 -37.906  0.00  0.00    +0.000 NA
ATOM      6  C2  UNL     1     -28.733   5.538 -38.799  0.00  0.00    +0.000 A 
ATOM      7  H1  UNL     1     -28.253   6.363 -40.727  0.00  0.00    +0.000 HD
ATOM      8  H2  UNL     1     -31.183   7.216 -37.989  0.00  0.00    +0.000 HD
ENDROOT
BRANCH   6   9
ATOM      9  C3  UNL     1     -27.682   4.509 -38.671  0.00  0.00    +0.000 A 
ATOM     10  C4  UNL     1     -27.959   3.206 -38.237  0.00  0.00    +0.000 A 
ATOM     11  C5  UNL     1     -26.928   2.268 -38.132  0.00  0.00    +0.000 A 
ATOM     12  C6  UNL     1     -25.620   2.624 -38.459  0.00  0.00    +0.000 A 
ATOM     13  C7  UNL     1     -25.337   3.918 -38.891  0.00  0.00    +0.000 A 
ATOM     14  C8  UNL     1     -26.365   4.858 -38.998  0.00  0.00    +0.000 A 
ENDBRANCH   6   9
TORSDOF 1
ENDMDL
MODEL 7
REMARK VINA RESULT:    -4.447      9.015     10.429
REMARK INTER + INTRA:          -4.821
REMARK INTER:                  -4.708
REMARK INTRA:                  -0.114
REMARK UNBOUND:                -0.114
REMARK  Name = /home/anacleto/Desktop/manuscript_Mpro/naturecomm/supplementary_file_S2/6-chemical-library/molecular_docking/3D_ligand_structure/1235.pdb
REMARK  1 active torsions:
REMARK  status: ('A' for Active; 'I' for Inactive)
REMARK    1  A    between atoms: C2_6  and  C3_7
REMARK                            x       y       z     vdW  Elec       q    Type
REMARK                         _______ _______ _______ _____ _____    ______ ____
ROOT
ATOM      1  N1  UNL     1     -19.504  10.006 -38.087  0.00  0.00    +0.000 N 
ATOM      2  C1  UNL     1     -18.188  10.284 -38.306  0.00  0.00    +0.000 A 
ATOM      3  O1  UNL     1     -17.635  11.357 -38.155  0.00  0.00    +0.000 OA
ATOM      4  N2  UNL     1     -17.627   9.092 -38.732  0.00  0.00    +0.000 N 
ATOM      5  N3  UNL     1     -18.572   8.101 -38.775  0.00  0.00    +0.000 NA
ATOM      6  C2  UNL     1     -19.669   8.691 -38.385  0.00  0.00    +0.000 A 
ATOM      7  H1  UNL     1     -20.163  10.692 -37.769  0.00  0.00    +0.000 HD
ATOM      8  H2  UNL     1     -16.660   8.941 -38.982  0.00  0.00    +0.000 HD
ENDROOT
BRANCH   6   9
ATOM      9  C3  UNL     1     -20.985   8.033 -38.263  0.00  0.00    +0.000 A 
ATOM     10  C4  UNL     1     -21.136   6.642 -38.326  0.00  0.00    +0.000 A 
ATOM     11  C5  UNL     1     -22.405   6.068 -38.205  0.00  0.00    +0.000 A 
ATOM     12  C6  UNL     1     -23.526   6.876 -38.023  0.00  0.00    +0.000 A 
ATOM     13  C7  UNL     1     -23.384   8.261 -37.959  0.00  0.00    +0.000 A 
ATOM     14  C8  UNL     1     -22.117   8.838 -38.079  0.00  0.00    +0.000 A 
ENDBRANCH   6   9
TORSDOF 1
ENDMDL
MODEL 8
REMARK VINA RESULT:    -4.355     14.079     15.120
REMARK INTER + INTRA:          -4.723
REMARK INTER:                  -4.614
REMARK INTRA:                  -0.109
REMARK UNBOUND:                -0.114
REMARK  Name = /home/anacleto/Desktop/manuscript_Mpro/naturecomm/supplementary_file_S2/6-chemical-library/molecular_docking/3D_ligand_structure/1235.pdb
REMARK  1 active torsions:
REMARK  status: ('A' for Active; 'I' for Inactive)
REMARK    1  A    between atoms: C2_6  and  C3_7
REMARK                            x       y       z     vdW  Elec       q    Type
REMARK                         _______ _______ _______ _____ _____    ______ ____
ROOT
ATOM      1  N1  UNL     1     -27.050  -5.556 -25.846  0.00  0.00    +0.000 N 
ATOM      2  C1  UNL     1     -28.399  -5.688 -25.705  0.00  0.00    +0.000 A 
ATOM      3  O1  UNL     1     -28.982  -6.402 -24.910  0.00  0.00    +0.000 OA
ATOM      4  N2  UNL     1     -28.953  -4.842 -26.650  0.00  0.00    +0.000 N 
ATOM      5  N3  UNL     1     -27.971  -4.202 -27.360  0.00  0.00    +0.000 NA
ATOM      6  C2  UNL     1     -26.860  -4.657 -26.848  0.00  0.00    +0.000 A 
ATOM      7  H1  UNL     1     -26.389  -6.058 -25.284  0.00  0.00    +0.000 HD
ATOM      8  H2  UNL     1     -29.938  -4.694 -26.819  0.00  0.00    +0.000 HD
ENDROOT
BRANCH   6   9
ATOM      9  C3  UNL     1     -25.505  -4.263 -27.281  0.00  0.00    +0.000 A 
ATOM     10  C4  UNL     1     -24.392  -4.357 -26.436  0.00  0.00    +0.000 A 
ATOM     11  C5  UNL     1     -23.129  -3.971 -26.895  0.00  0.00    +0.000 A 
ATOM     12  C6  UNL     1     -22.971  -3.491 -28.194  0.00  0.00    +0.000 A 
ATOM     13  C7  UNL     1     -24.074  -3.395 -29.040  0.00  0.00    +0.000 A 
ATOM     14  C8  UNL     1     -25.337  -3.780 -28.586  0.00  0.00    +0.000 A 
ENDBRANCH   6   9
TORSDOF 1
ENDMDL
MODEL 9
REMARK VINA RESULT:    -4.307     15.307     16.670
REMARK INTER + INTRA:          -4.673
REMARK INTER:                  -4.559
REMARK INTRA:                  -0.114
REMARK UNBOUND:                -0.114
REMARK  Name = /home/anacleto/Desktop/manuscript_Mpro/naturecomm/supplementary_file_S2/6-chemical-library/molecular_docking/3D_ligand_structure/1235.pdb
REMARK  1 active torsions:
REMARK  status: ('A' for Active; 'I' for Inactive)
REMARK    1  A    between atoms: C2_6  and  C3_7
REMARK                            x       y       z     vdW  Elec       q    Type
REMARK                         _______ _______ _______ _____ _____    ______ ____
ROOT
ATOM      1  N1  UNL     1     -20.325  -4.830 -26.319  0.00  0.00    +0.000 N 
ATOM      2  C1  UNL     1     -18.986  -4.793 -26.566  0.00  0.00    +0.000 A 
ATOM      3  O1  UNL     1     -18.099  -5.210 -25.844  0.00  0.00    +0.000 OA
ATOM      4  N2  UNL     1     -18.857  -4.185 -27.803  0.00  0.00    +0.000 N 
ATOM      5  N3  UNL     1     -20.087  -3.854 -28.309  0.00  0.00    +0.000 NA
ATOM      6  C2  UNL     1     -20.926  -4.256 -27.394  0.00  0.00    +0.000 A 
ATOM      7  H1  UNL     1     -20.716  -5.221 -25.482  0.00  0.00    +0.000 HD
ATOM      8  H2  UNL     1     -17.993  -3.997 -28.291  0.00  0.00    +0.000 HD
ENDROOT
BRANCH   6   9
ATOM      9  C3  UNL     1     -22.394  -4.121 -27.474  0.00  0.00    +0.000 A 
ATOM     10  C4  UNL     1     -23.044  -3.707 -28.644  0.00  0.00    +0.000 A 
ATOM     11  C5  UNL     1     -24.437  -3.595 -28.668  0.00  0.00    +0.000 A 
ATOM     12  C6  UNL     1     -25.186  -3.892 -27.530  0.00  0.00    +0.000 A 
ATOM     13  C7  UNL     1     -24.545  -4.304 -26.363  0.00  0.00    +0.000 A 
ATOM     14  C8  UNL     1     -23.153  -4.418 -26.335  0.00  0.00    +0.000 A 
ENDBRANCH   6   9
TORSDOF 1
ENDMDL
