MODEL 1
REMARK VINA RESULT:    -4.652      0.000      0.000
REMARK INTER + INTRA:          -5.018
REMARK INTER:                  -4.934
REMARK INTRA:                  -0.084
REMARK UNBOUND:                -0.093
REMARK  Name = /home/anacleto/Desktop/manuscript_Mpro/naturecomm/supplementary_file_S2/6-chemical-library/molecular_docking/3D_ligand_structure/1282.pdb
REMARK  1 active torsions:
REMARK  status: ('A' for Active; 'I' for Inactive)
REMARK    1  A    between atoms: C2_5  and  C3_6
REMARK                            x       y       z     vdW  Elec       q    Type
REMARK                         _______ _______ _______ _____ _____    ______ ____
ROOT
ATOM      1  C3  UNL     1      15.416  11.335  -4.432  0.00  0.00    +0.000 C 
ATOM      2  C4  UNL     1      15.763  11.326  -5.925  0.00  0.00    +0.000 C 
ATOM      3  C5  UNL     1      14.611  11.879  -6.766  0.00  0.00    +0.000 C 
ATOM      4  C6  UNL     1      13.258  11.728  -6.073  0.00  0.00    +0.000 C 
ATOM      5  C7  UNL     1      13.228  10.488  -5.188  0.00  0.00    +0.000 C 
ATOM      6  N4  UNL     1      14.246  10.488  -4.127  0.00  0.00    +0.000 NA
ATOM      7  H12 UNL     1      14.570   9.522  -4.026  0.00  0.00    +0.000 HD
ENDROOT
BRANCH   1  12
ATOM      8  N1  UNL     1      17.283   9.772  -3.815  0.00  0.00    +0.000 N 
ATOM      9  C1  UNL     1      18.254   9.723  -2.865  0.00  0.00    +0.000 A 
ATOM     10  N2  UNL     1      18.154  10.772  -2.083  0.00  0.00    +0.000 NA
ATOM     11  N3  UNL     1      17.098  11.531  -2.535  0.00  0.00    +0.000 NA
ATOM     12  C2  UNL     1      16.574  10.921  -3.578  0.00  0.00    +0.000 A 
ATOM     13  H1  UNL     1      17.123   9.123  -4.573  0.00  0.00    +0.000 HD
ENDBRANCH   1  12
TORSDOF 1
ENDMDL
MODEL 2
REMARK VINA RESULT:    -4.437      1.538      4.624
REMARK INTER + INTRA:          -4.790
REMARK INTER:                  -4.702
REMARK INTRA:                  -0.088
REMARK UNBOUND:                -0.093
REMARK  Name = /home/anacleto/Desktop/manuscript_Mpro/naturecomm/supplementary_file_S2/6-chemical-library/molecular_docking/3D_ligand_structure/1282.pdb
REMARK  1 active torsions:
REMARK  status: ('A' for Active; 'I' for Inactive)
REMARK    1  A    between atoms: C2_5  and  C3_6
REMARK                            x       y       z     vdW  Elec       q    Type
REMARK                         _______ _______ _______ _____ _____    ______ ____
ROOT
ATOM      1  C3  UNL     1      15.921  11.417  -3.553  0.00  0.00    +0.000 C 
ATOM      2  C4  UNL     1      15.591  11.471  -2.057  0.00  0.00    +0.000 C 
ATOM      3  C5  UNL     1      16.862  11.562  -1.210  0.00  0.00    +0.000 C 
ATOM      4  C6  UNL     1      18.081  10.979  -1.924  0.00  0.00    +0.000 C 
ATOM      5  C7  UNL     1      17.681   9.839  -2.853  0.00  0.00    +0.000 C 
ATOM      6  N4  UNL     1      16.728  10.230  -3.901  0.00  0.00    +0.000 NA
ATOM      7  H12 UNL     1      16.090   9.440  -4.032  0.00  0.00    +0.000 HD
ENDROOT
BRANCH   1  12
ATOM      8  N1  UNL     1      13.886  10.364  -4.583  0.00  0.00    +0.000 N 
ATOM      9  C1  UNL     1      12.875  10.766  -5.397  0.00  0.00    +0.000 A 
ATOM     10  N2  UNL     1      13.042  12.029  -5.711  0.00  0.00    +0.000 NA
ATOM     11  N3  UNL     1      14.185  12.469  -5.082  0.00  0.00    +0.000 NA
ATOM     12  C2  UNL     1      14.693  11.459  -4.407  0.00  0.00    +0.000 A 
ATOM     13  H1  UNL     1      14.016   9.459  -4.155  0.00  0.00    +0.000 HD
ENDBRANCH   1  12
TORSDOF 1
ENDMDL
MODEL 3
REMARK VINA RESULT:    -4.363      2.780      3.725
REMARK INTER + INTRA:          -4.711
REMARK INTER:                  -4.632
REMARK INTRA:                  -0.080
REMARK UNBOUND:                -0.093
REMARK  Name = /home/anacleto/Desktop/manuscript_Mpro/naturecomm/supplementary_file_S2/6-chemical-library/molecular_docking/3D_ligand_structure/1282.pdb
REMARK  1 active torsions:
REMARK  status: ('A' for Active; 'I' for Inactive)
REMARK    1  A    between atoms: C2_5  and  C3_6
REMARK                            x       y       z     vdW  Elec       q    Type
REMARK                         _______ _______ _______ _____ _____    ______ ____
ROOT
ATOM      1  C3  UNL     1      14.640  13.128  -5.149  0.00  0.00    +0.000 C 
ATOM      2  C4  UNL     1      15.781  12.107  -5.222  0.00  0.00    +0.000 C 
ATOM      3  C5  UNL     1      15.824  11.417  -6.587  0.00  0.00    +0.000 C 
ATOM      4  C6  UNL     1      14.464  11.417  -7.282  0.00  0.00    +0.000 C 
ATOM      5  C7  UNL     1      13.327  11.367  -6.268  0.00  0.00    +0.000 C 
ATOM      6  N4  UNL     1      13.317  12.496  -5.327  0.00  0.00    +0.000 NA
ATOM      7  H12 UNL     1      13.018  12.125  -4.421  0.00  0.00    +0.000 HD
ENDROOT
BRANCH   1  12
ATOM      8  N1  UNL     1      13.728  14.877  -3.594  0.00  0.00    +0.000 N 
ATOM      9  C1  UNL     1      14.041  15.359  -2.362  0.00  0.00    +0.000 A 
ATOM     10  N2  UNL     1      15.099  14.734  -1.904  0.00  0.00    +0.000 NA
ATOM     11  N3  UNL     1      15.486  13.814  -2.852  0.00  0.00    +0.000 NA
ATOM     12  C2  UNL     1      14.658  13.908  -3.872  0.00  0.00    +0.000 A 
ATOM     13  H1  UNL     1      12.952  15.140  -4.185  0.00  0.00    +0.000 HD
ENDBRANCH   1  12
TORSDOF 1
ENDMDL
MODEL 4
REMARK VINA RESULT:    -4.196     17.173     18.077
REMARK INTER + INTRA:          -4.534
REMARK INTER:                  -4.442
REMARK INTRA:                  -0.092
REMARK UNBOUND:                -0.093
REMARK  Name = /home/anacleto/Desktop/manuscript_Mpro/naturecomm/supplementary_file_S2/6-chemical-library/molecular_docking/3D_ligand_structure/1282.pdb
REMARK  1 active torsions:
REMARK  status: ('A' for Active; 'I' for Inactive)
REMARK    1  A    between atoms: C2_5  and  C3_6
REMARK                            x       y       z     vdW  Elec       q    Type
REMARK                         _______ _______ _______ _____ _____    ______ ____
ROOT
ATOM      1  C3  UNL     1      25.508  16.287   9.252  0.00  0.00    +0.000 C 
ATOM      2  C4  UNL     1      26.809  16.814   9.868  0.00  0.00    +0.000 C 
ATOM      3  C5  UNL     1      27.910  16.946   8.814  0.00  0.00    +0.000 C 
ATOM      4  C6  UNL     1      27.698  16.004   7.629  0.00  0.00    +0.000 C 
ATOM      5  C7  UNL     1      26.997  14.722   8.063  0.00  0.00    +0.000 C 
ATOM      6  N4  UNL     1      25.675  14.941   8.668  0.00  0.00    +0.000 NA
ATOM      7  H12 UNL     1      25.575  14.254   9.420  0.00  0.00    +0.000 HD
ENDROOT
BRANCH   1  12
ATOM      8  N1  UNL     1      23.565  15.182  10.397  0.00  0.00    +0.000 N 
ATOM      9  C1  UNL     1      22.673  15.518  11.367  0.00  0.00    +0.000 A 
ATOM     10  N2  UNL     1      22.913  16.740  11.779  0.00  0.00    +0.000 NA
ATOM     11  N3  UNL     1      23.993  17.215  11.070  0.00  0.00    +0.000 NA
ATOM     12  C2  UNL     1      24.380  16.273  10.235  0.00  0.00    +0.000 A 
ATOM     13  H1  UNL     1      23.650  14.302   9.910  0.00  0.00    +0.000 HD
ENDBRANCH   1  12
TORSDOF 1
ENDMDL
MODEL 5
REMARK VINA RESULT:    -4.142     17.182     18.354
REMARK INTER + INTRA:          -4.477
REMARK INTER:                  -4.403
REMARK INTRA:                  -0.075
REMARK UNBOUND:                -0.093
REMARK  Name = /home/anacleto/Desktop/manuscript_Mpro/naturecomm/supplementary_file_S2/6-chemical-library/molecular_docking/3D_ligand_structure/1282.pdb
REMARK  1 active torsions:
REMARK  status: ('A' for Active; 'I' for Inactive)
REMARK    1  A    between atoms: C2_5  and  C3_6
REMARK                            x       y       z     vdW  Elec       q    Type
REMARK                         _______ _______ _______ _____ _____    ______ ____
ROOT
ATOM      1  C3  UNL     1      24.042  15.466  10.968  0.00  0.00    +0.000 C 
ATOM      2  C4  UNL     1      24.565  15.147  12.373  0.00  0.00    +0.000 C 
ATOM      3  C5  UNL     1      23.416  14.920  13.357  0.00  0.00    +0.000 C 
ATOM      4  C6  UNL     1      22.133  15.628  12.927  0.00  0.00    +0.000 C 
ATOM      5  C7  UNL     1      22.441  16.911  12.162  0.00  0.00    +0.000 C 
ATOM      6  N4  UNL     1      23.234  16.702  10.943  0.00  0.00    +0.000 NA
ATOM      7  H12 UNL     1      23.874  17.497  10.864  0.00  0.00    +0.000 HD
ENDROOT
BRANCH   1  12
ATOM      8  N1  UNL     1      25.475  14.521   9.135  0.00  0.00    +0.000 N 
ATOM      9  C1  UNL     1      26.496  14.964   8.355  0.00  0.00    +0.000 A 
ATOM     10  N2  UNL     1      26.787  16.202   8.678  0.00  0.00    +0.000 NA
ATOM     11  N3  UNL     1      25.930  16.584   9.686  0.00  0.00    +0.000 NA
ATOM     12  C2  UNL     1      25.144  15.564   9.961  0.00  0.00    +0.000 A 
ATOM     13  H1  UNL     1      25.015  13.622   9.102  0.00  0.00    +0.000 HD
ENDBRANCH   1  12
TORSDOF 1
ENDMDL
MODEL 6
REMARK VINA RESULT:    -4.141      1.438      2.120
REMARK INTER + INTRA:          -4.477
REMARK INTER:                  -4.393
REMARK INTRA:                  -0.084
REMARK UNBOUND:                -0.093
REMARK  Name = /home/anacleto/Desktop/manuscript_Mpro/naturecomm/supplementary_file_S2/6-chemical-library/molecular_docking/3D_ligand_structure/1282.pdb
REMARK  1 active torsions:
REMARK  status: ('A' for Active; 'I' for Inactive)
REMARK    1  A    between atoms: C2_5  and  C3_6
REMARK                            x       y       z     vdW  Elec       q    Type
REMARK                         _______ _______ _______ _____ _____    ______ ____
ROOT
ATOM      1  C3  UNL     1      15.399  10.976  -4.839  0.00  0.00    +0.000 C 
ATOM      2  C4  UNL     1      13.874  10.820  -4.854  0.00  0.00    +0.000 C 
ATOM      3  C5  UNL     1      13.346  10.670  -6.282  0.00  0.00    +0.000 C 
ATOM      4  C6  UNL     1      14.277  11.298  -7.317  0.00  0.00    +0.000 C 
ATOM      5  C7  UNL     1      15.013  12.500  -6.738  0.00  0.00    +0.000 C 
ATOM      6  N4  UNL     1      15.841  12.183  -5.566  0.00  0.00    +0.000 NA
ATOM      7  H12 UNL     1      15.772  12.981  -4.928  0.00  0.00    +0.000 HD
ENDROOT
BRANCH   1  12
ATOM      8  N1  UNL     1      15.175  11.274  -2.355  0.00  0.00    +0.000 N 
ATOM      9  C1  UNL     1      15.996  11.191  -1.275  0.00  0.00    +0.000 A 
ATOM     10  N2  UNL     1      17.208  10.882  -1.670  0.00  0.00    +0.000 NA
ATOM     11  N3  UNL     1      17.181  10.752  -3.040  0.00  0.00    +0.000 NA
ATOM     12  C2  UNL     1      15.953  10.994  -3.448  0.00  0.00    +0.000 A 
ATOM     13  H1  UNL     1      14.183  11.466  -2.367  0.00  0.00    +0.000 HD
ENDBRANCH   1  12
TORSDOF 1
ENDMDL
MODEL 7
REMARK VINA RESULT:    -3.985     14.010     15.416
REMARK INTER + INTRA:          -4.311
REMARK INTER:                  -4.219
REMARK INTRA:                  -0.092
REMARK UNBOUND:                -0.093
REMARK  Name = /home/anacleto/Desktop/manuscript_Mpro/naturecomm/supplementary_file_S2/6-chemical-library/molecular_docking/3D_ligand_structure/1282.pdb
REMARK  1 active torsions:
REMARK  status: ('A' for Active; 'I' for Inactive)
REMARK    1  A    between atoms: C2_5  and  C3_6
REMARK                            x       y       z     vdW  Elec       q    Type
REMARK                         _______ _______ _______ _____ _____    ______ ____
ROOT
ATOM      1  C3  UNL     1      18.837   4.977   9.313  0.00  0.00    +0.000 C 
ATOM      2  C4  UNL     1      20.339   4.700   9.198  0.00  0.00    +0.000 C 
ATOM      3  C5  UNL     1      21.164   5.893   9.685  0.00  0.00    +0.000 C 
ATOM      4  C6  UNL     1      20.400   7.211   9.578  0.00  0.00    +0.000 C 
ATOM      5  C7  UNL     1      19.428   7.191   8.404  0.00  0.00    +0.000 C 
ATOM      6  N4  UNL     1      18.418   6.126   8.485  0.00  0.00    +0.000 NA
ATOM      7  H12 UNL     1      18.263   5.790   7.531  0.00  0.00    +0.000 HD
ENDROOT
BRANCH   1  12
ATOM      8  N1  UNL     1      16.922   3.857   8.135  0.00  0.00    +0.000 N 
ATOM      9  C1  UNL     1      16.429   2.593   8.037  0.00  0.00    +0.000 A 
ATOM     10  N2  UNL     1      17.161   1.781   8.763  0.00  0.00    +0.000 NA
ATOM     11  N3  UNL     1      18.162   2.527   9.345  0.00  0.00    +0.000 NA
ATOM     12  C2  UNL     1      18.010   3.779   8.966  0.00  0.00    +0.000 A 
ATOM     13  H1  UNL     1      16.590   4.690   7.670  0.00  0.00    +0.000 HD
ENDBRANCH   1  12
TORSDOF 1
ENDMDL
MODEL 8
REMARK VINA RESULT:    -3.919     14.600     16.796
REMARK INTER + INTRA:          -4.242
REMARK INTER:                  -4.171
REMARK INTRA:                  -0.071
REMARK UNBOUND:                -0.093
REMARK  Name = /home/anacleto/Desktop/manuscript_Mpro/naturecomm/supplementary_file_S2/6-chemical-library/molecular_docking/3D_ligand_structure/1282.pdb
REMARK  1 active torsions:
REMARK  status: ('A' for Active; 'I' for Inactive)
REMARK    1  A    between atoms: C2_5  and  C3_6
REMARK                            x       y       z     vdW  Elec       q    Type
REMARK                         _______ _______ _______ _____ _____    ______ ____
ROOT
ATOM      1  C3  UNL     1      20.834   6.755  10.585  0.00  0.00    +0.000 C 
ATOM      2  C4  UNL     1      20.188   5.366  10.639  0.00  0.00    +0.000 C 
ATOM      3  C5  UNL     1      19.881   4.840   9.235  0.00  0.00    +0.000 C 
ATOM      4  C6  UNL     1      19.701   5.965   8.218  0.00  0.00    +0.000 C 
ATOM      5  C7  UNL     1      19.120   7.213   8.873  0.00  0.00    +0.000 C 
ATOM      6  N4  UNL     1      19.947   7.756   9.959  0.00  0.00    +0.000 NA
ATOM      7  H12 UNL     1      19.305   8.104  10.677  0.00  0.00    +0.000 HD
ENDROOT
BRANCH   1  12
ATOM      8  N1  UNL     1      22.482   7.821  12.152  0.00  0.00    +0.000 N 
ATOM      9  C1  UNL     1      22.522   8.137  13.474  0.00  0.00    +0.000 A 
ATOM     10  N2  UNL     1      21.400   7.768  14.046  0.00  0.00    +0.000 NA
ATOM     11  N3  UNL     1      20.602   7.205  13.076  0.00  0.00    +0.000 NA
ATOM     12  C2  UNL     1      21.261   7.235  11.936  0.00  0.00    +0.000 A 
ATOM     13  H1  UNL     1      23.183   8.005  11.449  0.00  0.00    +0.000 HD
ENDBRANCH   1  12
TORSDOF 1
ENDMDL
MODEL 9
REMARK VINA RESULT:    -3.847     15.048     16.671
REMARK INTER + INTRA:          -4.166
REMARK INTER:                  -4.072
REMARK INTRA:                  -0.093
REMARK UNBOUND:                -0.093
REMARK  Name = /home/anacleto/Desktop/manuscript_Mpro/naturecomm/supplementary_file_S2/6-chemical-library/molecular_docking/3D_ligand_structure/1282.pdb
REMARK  1 active torsions:
REMARK  status: ('A' for Active; 'I' for Inactive)
REMARK    1  A    between atoms: C2_5  and  C3_6
REMARK                            x       y       z     vdW  Elec       q    Type
REMARK                         _______ _______ _______ _____ _____    ______ ____
ROOT
ATOM      1  C3  UNL     1      19.647   6.471  10.866  0.00  0.00    +0.000 C 
ATOM      2  C4  UNL     1      18.731   6.435   9.638  0.00  0.00    +0.000 C 
ATOM      3  C5  UNL     1      19.446   5.827   8.430  0.00  0.00    +0.000 C 
ATOM      4  C6  UNL     1      20.964   5.973   8.516  0.00  0.00    +0.000 C 
ATOM      5  C7  UNL     1      21.353   7.243   9.264  0.00  0.00    +0.000 C 
ATOM      6  N4  UNL     1      20.846   7.303  10.642  0.00  0.00    +0.000 NA
ATOM      7  H12 UNL     1      20.595   8.278  10.824  0.00  0.00    +0.000 HD
ENDROOT
BRANCH   1  12
ATOM      8  N1  UNL     1      19.279   8.095  12.747  0.00  0.00    +0.000 N 
ATOM      9  C1  UNL     1      18.421   8.211  13.795  0.00  0.00    +0.000 A 
ATOM     10  N2  UNL     1      17.593   7.193  13.797  0.00  0.00    +0.000 NA
ATOM     11  N3  UNL     1      17.910   6.394  12.721  0.00  0.00    +0.000 NA
ATOM     12  C2  UNL     1      18.931   6.941  12.094  0.00  0.00    +0.000 A 
ATOM     13  H1  UNL     1      20.008   8.736  12.468  0.00  0.00    +0.000 HD
ENDBRANCH   1  12
TORSDOF 1
ENDMDL
