MODEL 1
REMARK VINA RESULT:    -3.628      0.000      0.000
REMARK INTER + INTRA:          -3.628
REMARK INTER:                  -3.628
REMARK INTRA:                   0.000
REMARK UNBOUND:                 0.000
REMARK  Name = /home/anacleto/Desktop/manuscript_Mpro/naturecomm/supplementary_file_S2/6-chemical-library/molecular_docking/3D_ligand_structure/315.pdb
REMARK  0 active torsions:
REMARK  status: ('A' for Active; 'I' for Inactive)
REMARK                            x       y       z     vdW  Elec       q    Type
REMARK                         _______ _______ _______ _____ _____    ______ ____
ROOT
ATOM      1  C1  UNL     1      12.969  11.098  -5.871  0.00  0.00    +0.000 A 
ATOM      2  N1  UNL     1      13.108  10.441  -7.027  0.00  0.00    +0.000 NA
ATOM      3  O1  UNL     1      14.156  11.076  -7.684  0.00  0.00    +0.000 OA
ATOM      4  C2  UNL     1      14.621  12.097  -6.912  0.00  0.00    +0.000 A 
ATOM      5  C3  UNL     1      13.893  12.151  -5.739  0.00  0.00    +0.000 A 
ATOM      6  C4  UNL     1      15.658  12.959  -7.228  0.00  0.00    +0.000 A 
ATOM      7  C5  UNL     1      15.905  13.900  -6.243  0.00  0.00    +0.000 A 
ATOM      8  N2  UNL     1      15.225  14.002  -5.072  0.00  0.00    +0.000 NA
ATOM      9  C6  UNL     1      14.214  13.132  -4.807  0.00  0.00    +0.000 A 
ENDROOT
TORSDOF 0
ENDMDL
MODEL 2
REMARK VINA RESULT:    -3.489      2.398      3.731
REMARK INTER + INTRA:          -3.489
REMARK INTER:                  -3.489
REMARK INTRA:                   0.000
REMARK UNBOUND:                 0.000
REMARK  Name = /home/anacleto/Desktop/manuscript_Mpro/naturecomm/supplementary_file_S2/6-chemical-library/molecular_docking/3D_ligand_structure/315.pdb
REMARK  0 active torsions:
REMARK  status: ('A' for Active; 'I' for Inactive)
REMARK                            x       y       z     vdW  Elec       q    Type
REMARK                         _______ _______ _______ _____ _____    ______ ____
ROOT
ATOM      1  C1  UNL     1      16.832  11.598  -4.631  0.00  0.00    +0.000 A 
ATOM      2  N1  UNL     1      16.522  11.283  -3.369  0.00  0.00    +0.000 NA
ATOM      3  O1  UNL     1      15.194  10.873  -3.410  0.00  0.00    +0.000 OA
ATOM      4  C2  UNL     1      14.736  10.950  -4.690  0.00  0.00    +0.000 A 
ATOM      5  C3  UNL     1      15.749  11.409  -5.510  0.00  0.00    +0.000 A 
ATOM      6  C4  UNL     1      13.464  10.626  -5.129  0.00  0.00    +0.000 A 
ATOM      7  C5  UNL     1      13.292  10.807  -6.491  0.00  0.00    +0.000 A 
ATOM      8  N2  UNL     1      14.248  11.253  -7.346  0.00  0.00    +0.000 NA
ATOM      9  C6  UNL     1      15.483  11.559  -6.867  0.00  0.00    +0.000 A 
ENDROOT
TORSDOF 0
ENDMDL
MODEL 3
REMARK VINA RESULT:    -3.475      2.042      2.396
REMARK INTER + INTRA:          -3.475
REMARK INTER:                  -3.475
REMARK INTRA:                   0.000
REMARK UNBOUND:                 0.000
REMARK  Name = /home/anacleto/Desktop/manuscript_Mpro/naturecomm/supplementary_file_S2/6-chemical-library/molecular_docking/3D_ligand_structure/315.pdb
REMARK  0 active torsions:
REMARK  status: ('A' for Active; 'I' for Inactive)
REMARK                            x       y       z     vdW  Elec       q    Type
REMARK                         _______ _______ _______ _____ _____    ______ ____
ROOT
ATOM      1  C1  UNL     1      13.617  10.374  -5.051  0.00  0.00    +0.000 A 
ATOM      2  N1  UNL     1      12.852  11.048  -5.916  0.00  0.00    +0.000 NA
ATOM      3  O1  UNL     1      13.214  12.382  -5.761  0.00  0.00    +0.000 OA
ATOM      4  C2  UNL     1      14.183  12.480  -4.811  0.00  0.00    +0.000 A 
ATOM      5  C3  UNL     1      14.477  11.220  -4.326  0.00  0.00    +0.000 A 
ATOM      6  C4  UNL     1      14.796  13.645  -4.380  0.00  0.00    +0.000 A 
ATOM      7  C5  UNL     1      15.749  13.430  -3.399  0.00  0.00    +0.000 A 
ATOM      8  N2  UNL     1      16.080  12.219  -2.884  0.00  0.00    +0.000 NA
ATOM      9  C6  UNL     1      15.450  11.103  -3.339  0.00  0.00    +0.000 A 
ENDROOT
TORSDOF 0
ENDMDL
MODEL 4
REMARK VINA RESULT:    -3.433     17.220     17.860
REMARK INTER + INTRA:          -3.433
REMARK INTER:                  -3.433
REMARK INTRA:                   0.000
REMARK UNBOUND:                 0.000
REMARK  Name = /home/anacleto/Desktop/manuscript_Mpro/naturecomm/supplementary_file_S2/6-chemical-library/molecular_docking/3D_ligand_structure/315.pdb
REMARK  0 active torsions:
REMARK  status: ('A' for Active; 'I' for Inactive)
REMARK                            x       y       z     vdW  Elec       q    Type
REMARK                         _______ _______ _______ _____ _____    ______ ____
ROOT
ATOM      1  C1  UNL     1      21.296   4.067   8.815  0.00  0.00    +0.000 A 
ATOM      2  N1  UNL     1      22.556   4.260   9.220  0.00  0.00    +0.000 NA
ATOM      3  O1  UNL     1      22.670   5.632   9.415  0.00  0.00    +0.000 OA
ATOM      4  C2  UNL     1      21.483   6.231   9.125  0.00  0.00    +0.000 A 
ATOM      5  C3  UNL     1      20.570   5.269   8.736  0.00  0.00    +0.000 A 
ATOM      6  C4  UNL     1      21.205   7.585   9.199  0.00  0.00    +0.000 A 
ATOM      7  C5  UNL     1      19.905   7.898   8.840  0.00  0.00    +0.000 A 
ATOM      8  N2  UNL     1      18.965   6.999   8.451  0.00  0.00    +0.000 NA
ATOM      9  C6  UNL     1      19.285   5.678   8.394  0.00  0.00    +0.000 A 
ENDROOT
TORSDOF 0
ENDMDL
MODEL 5
REMARK VINA RESULT:    -3.373      2.091      3.232
REMARK INTER + INTRA:          -3.373
REMARK INTER:                  -3.373
REMARK INTRA:                   0.000
REMARK UNBOUND:                 0.000
REMARK  Name = /home/anacleto/Desktop/manuscript_Mpro/naturecomm/supplementary_file_S2/6-chemical-library/molecular_docking/3D_ligand_structure/315.pdb
REMARK  0 active torsions:
REMARK  status: ('A' for Active; 'I' for Inactive)
REMARK                            x       y       z     vdW  Elec       q    Type
REMARK                         _______ _______ _______ _____ _____    ______ ____
ROOT
ATOM      1  C1  UNL     1      16.994  11.762  -5.100  0.00  0.00    +0.000 A 
ATOM      2  N1  UNL     1      17.575  12.109  -6.253  0.00  0.00    +0.000 NA
ATOM      3  O1  UNL     1      16.592  11.942  -7.222  0.00  0.00    +0.000 OA
ATOM      4  C2  UNL     1      15.447  11.499  -6.634  0.00  0.00    +0.000 A 
ATOM      5  C3  UNL     1      15.654  11.369  -5.274  0.00  0.00    +0.000 A 
ATOM      6  C4  UNL     1      14.251  11.218  -7.272  0.00  0.00    +0.000 A 
ATOM      7  C5  UNL     1      13.259  10.784  -6.408  0.00  0.00    +0.000 A 
ATOM      8  N2  UNL     1      13.402  10.636  -5.067  0.00  0.00    +0.000 NA
ATOM      9  C6  UNL     1      14.597  10.925  -4.485  0.00  0.00    +0.000 A 
ENDROOT
TORSDOF 0
ENDMDL
MODEL 6
REMARK VINA RESULT:    -3.345     17.182     17.763
REMARK INTER + INTRA:          -3.345
REMARK INTER:                  -3.345
REMARK INTRA:                   0.000
REMARK UNBOUND:                 0.000
REMARK  Name = /home/anacleto/Desktop/manuscript_Mpro/naturecomm/supplementary_file_S2/6-chemical-library/molecular_docking/3D_ligand_structure/315.pdb
REMARK  0 active torsions:
REMARK  status: ('A' for Active; 'I' for Inactive)
REMARK                            x       y       z     vdW  Elec       q    Type
REMARK                         _______ _______ _______ _____ _____    ______ ____
ROOT
ATOM      1  C1  UNL     1      20.054   3.804   9.680  0.00  0.00    +0.000 A 
ATOM      2  N1  UNL     1      18.824   3.473   9.274  0.00  0.00    +0.000 NA
ATOM      3  O1  UNL     1      18.261   4.658   8.810  0.00  0.00    +0.000 OA
ATOM      4  C2  UNL     1      19.161   5.670   8.948  0.00  0.00    +0.000 A 
ATOM      5  C3  UNL     1      20.326   5.173   9.500  0.00  0.00    +0.000 A 
ATOM      6  C4  UNL     1      18.966   6.995   8.598  0.00  0.00    +0.000 A 
ATOM      7  C5  UNL     1      20.066   7.796   8.856  0.00  0.00    +0.000 A 
ATOM      8  N2  UNL     1      21.235   7.367   9.396  0.00  0.00    +0.000 NA
ATOM      9  C6  UNL     1      21.379   6.055   9.724  0.00  0.00    +0.000 A 
ENDROOT
TORSDOF 0
ENDMDL
MODEL 7
REMARK VINA RESULT:    -3.342      2.148      2.697
REMARK INTER + INTRA:          -3.342
REMARK INTER:                  -3.342
REMARK INTRA:                   0.000
REMARK UNBOUND:                 0.000
REMARK  Name = /home/anacleto/Desktop/manuscript_Mpro/naturecomm/supplementary_file_S2/6-chemical-library/molecular_docking/3D_ligand_structure/315.pdb
REMARK  0 active torsions:
REMARK  status: ('A' for Active; 'I' for Inactive)
REMARK                            x       y       z     vdW  Elec       q    Type
REMARK                         _______ _______ _______ _____ _____    ______ ____
ROOT
ATOM      1  C1  UNL     1      14.251  11.291  -7.021  0.00  0.00    +0.000 A 
ATOM      2  N1  UNL     1      13.115  10.806  -6.511  0.00  0.00    +0.000 NA
ATOM      3  O1  UNL     1      13.369  10.632  -5.155  0.00  0.00    +0.000 OA
ATOM      4  C2  UNL     1      14.646  11.014  -4.881  0.00  0.00    +0.000 A 
ATOM      5  C3  UNL     1      15.253  11.445  -6.045  0.00  0.00    +0.000 A 
ATOM      6  C4  UNL     1      15.264  10.986  -3.642  0.00  0.00    +0.000 A 
ATOM      7  C5  UNL     1      16.573  11.438  -3.674  0.00  0.00    +0.000 A 
ATOM      8  N2  UNL     1      17.222  11.874  -4.784  0.00  0.00    +0.000 NA
ATOM      9  C6  UNL     1      16.572  11.882  -5.979  0.00  0.00    +0.000 A 
ENDROOT
TORSDOF 0
ENDMDL
MODEL 8
REMARK VINA RESULT:    -3.241     17.897     18.438
REMARK INTER + INTRA:          -3.241
REMARK INTER:                  -3.241
REMARK INTRA:                   0.000
REMARK UNBOUND:                 0.000
REMARK  Name = /home/anacleto/Desktop/manuscript_Mpro/naturecomm/supplementary_file_S2/6-chemical-library/molecular_docking/3D_ligand_structure/315.pdb
REMARK  0 active torsions:
REMARK  status: ('A' for Active; 'I' for Inactive)
REMARK                            x       y       z     vdW  Elec       q    Type
REMARK                         _______ _______ _______ _____ _____    ______ ____
ROOT
ATOM      1  C1  UNL     1      13.413   1.686  10.113  0.00  0.00    +0.000 A 
ATOM      2  N1  UNL     1      12.884   0.984   9.106  0.00  0.00    +0.000 NA
ATOM      3  O1  UNL     1      13.796   1.098   8.062  0.00  0.00    +0.000 OA
ATOM      4  C2  UNL     1      14.849   1.863   8.463  0.00  0.00    +0.000 A 
ATOM      5  C3  UNL     1      14.650   2.263   9.770  0.00  0.00    +0.000 A 
ATOM      6  C4  UNL     1      15.955   2.201   7.703  0.00  0.00    +0.000 A 
ATOM      7  C5  UNL     1      16.865   2.993   8.383  0.00  0.00    +0.000 A 
ATOM      8  N2  UNL     1      16.725   3.417   9.665  0.00  0.00    +0.000 NA
ATOM      9  C6  UNL     1      15.620   3.059  10.372  0.00  0.00    +0.000 A 
ENDROOT
TORSDOF 0
ENDMDL
MODEL 9
REMARK VINA RESULT:    -3.161      2.327      3.502
REMARK INTER + INTRA:          -3.161
REMARK INTER:                  -3.161
REMARK INTRA:                   0.000
REMARK UNBOUND:                 0.000
REMARK  Name = /home/anacleto/Desktop/manuscript_Mpro/naturecomm/supplementary_file_S2/6-chemical-library/molecular_docking/3D_ligand_structure/315.pdb
REMARK  0 active torsions:
REMARK  status: ('A' for Active; 'I' for Inactive)
REMARK                            x       y       z     vdW  Elec       q    Type
REMARK                         _______ _______ _______ _____ _____    ______ ____
ROOT
ATOM      1  C1  UNL     1      16.833  11.538  -7.371  0.00  0.00    +0.000 A 
ATOM      2  N1  UNL     1      17.831  11.252  -6.529  0.00  0.00    +0.000 NA
ATOM      3  O1  UNL     1      17.216  10.985  -5.311  0.00  0.00    +0.000 OA
ATOM      4  C2  UNL     1      15.868  11.116  -5.447  0.00  0.00    +0.000 A 
ATOM      5  C3  UNL     1      15.572  11.469  -6.749  0.00  0.00    +0.000 A 
ATOM      6  C4  UNL     1      14.921  10.930  -4.454  0.00  0.00    +0.000 A 
ATOM      7  C5  UNL     1      13.623  11.135  -4.892  0.00  0.00    +0.000 A 
ATOM      8  N2  UNL     1      13.271  11.482  -6.156  0.00  0.00    +0.000 NA
ATOM      9  C6  UNL     1      14.238  11.653  -7.097  0.00  0.00    +0.000 A 
ENDROOT
TORSDOF 0
ENDMDL
