MODEL 1
REMARK VINA RESULT:    -4.193      0.000      0.000
REMARK INTER + INTRA:          -4.193
REMARK INTER:                  -4.193
REMARK INTRA:                   0.000
REMARK UNBOUND:                 0.000
REMARK  Name = /home/anacleto/Desktop/manuscript_Mpro/naturecomm/supplementary_file_S2/6-chemical-library/molecular_docking/3D_ligand_structure/152.pdb
REMARK  0 active torsions:
REMARK  status: ('A' for Active; 'I' for Inactive)
REMARK                            x       y       z     vdW  Elec       q    Type
REMARK                         _______ _______ _______ _____ _____    ______ ____
ROOT
ATOM      1  C1  UNL     1      16.245  11.677  -7.333  0.00  0.00    +0.000 A 
ATOM      2  C2  UNL     1      17.639  11.517  -7.248  0.00  0.00    +0.000 A 
ATOM      3  N1  UNL     1      18.032  11.142  -6.029  0.00  0.00    +0.000 NA
ATOM      4  N2  UNL     1      16.882  11.081  -5.330  0.00  0.00    +0.000 N 
ATOM      5  C3  UNL     1      15.772  11.381  -6.070  0.00  0.00    +0.000 A 
ATOM      6  C4  UNL     1      16.917  10.626  -3.951  0.00  0.00    +0.000 C 
ATOM      7  C5  UNL     1      15.673  11.012  -3.154  0.00  0.00    +0.000 C 
ATOM      8  N3  UNL     1      14.444  10.579  -3.849  0.00  0.00    +0.000 NA
ATOM      9  S1  UNL     1      14.190  11.351  -5.326  0.00  0.00    +0.000 S 
ATOM     10  O1  UNL     1      13.875  12.736  -5.078  0.00  0.00    +0.000 OA
ATOM     11  O2  UNL     1      13.387  10.473  -6.140  0.00  0.00    +0.000 OA
ATOM     12  H7  UNL     1      14.284   9.574  -3.926  0.00  0.00    +0.000 HD
ENDROOT
TORSDOF 0
ENDMDL
MODEL 2
REMARK VINA RESULT:    -4.138      2.897      3.660
REMARK INTER + INTRA:          -4.138
REMARK INTER:                  -4.138
REMARK INTRA:                   0.000
REMARK UNBOUND:                 0.000
REMARK  Name = /home/anacleto/Desktop/manuscript_Mpro/naturecomm/supplementary_file_S2/6-chemical-library/molecular_docking/3D_ligand_structure/152.pdb
REMARK  0 active torsions:
REMARK  status: ('A' for Active; 'I' for Inactive)
REMARK                            x       y       z     vdW  Elec       q    Type
REMARK                         _______ _______ _______ _____ _____    ______ ____
ROOT
ATOM      1  C1  UNL     1      16.008  10.531  -2.459  0.00  0.00    +0.000 A 
ATOM      2  C2  UNL     1      16.496  11.321  -1.403  0.00  0.00    +0.000 A 
ATOM      3  N1  UNL     1      16.195  12.612  -1.555  0.00  0.00    +0.000 NA
ATOM      4  N2  UNL     1      15.528  12.646  -2.725  0.00  0.00    +0.000 N 
ATOM      5  C3  UNL     1      15.374  11.418  -3.307  0.00  0.00    +0.000 A 
ATOM      6  C4  UNL     1      14.972  13.907  -3.185  0.00  0.00    +0.000 C 
ATOM      7  C5  UNL     1      14.642  13.916  -4.676  0.00  0.00    +0.000 C 
ATOM      8  N3  UNL     1      13.785  12.769  -5.035  0.00  0.00    +0.000 NA
ATOM      9  S1  UNL     1      14.530  11.271  -4.831  0.00  0.00    +0.000 S 
ATOM     10  O1  UNL     1      15.574  11.134  -5.816  0.00  0.00    +0.000 OA
ATOM     11  O2  UNL     1      13.490  10.296  -4.615  0.00  0.00    +0.000 OA
ATOM     12  H7  UNL     1      12.836  12.763  -4.657  0.00  0.00    +0.000 HD
ENDROOT
TORSDOF 0
ENDMDL
MODEL 3
REMARK VINA RESULT:    -3.931      2.601      3.492
REMARK INTER + INTRA:          -3.931
REMARK INTER:                  -3.931
REMARK INTRA:                   0.000
REMARK UNBOUND:                 0.000
REMARK  Name = /home/anacleto/Desktop/manuscript_Mpro/naturecomm/supplementary_file_S2/6-chemical-library/molecular_docking/3D_ligand_structure/152.pdb
REMARK  0 active torsions:
REMARK  status: ('A' for Active; 'I' for Inactive)
REMARK                            x       y       z     vdW  Elec       q    Type
REMARK                         _______ _______ _______ _____ _____    ______ ____
ROOT
ATOM      1  C1  UNL     1      14.443  13.934  -4.119  0.00  0.00    +0.000 A 
ATOM      2  C2  UNL     1      14.670  14.768  -3.010  0.00  0.00    +0.000 A 
ATOM      3  N1  UNL     1      15.359  14.154  -2.047  0.00  0.00    +0.000 NA
ATOM      4  N2  UNL     1      15.557  12.914  -2.539  0.00  0.00    +0.000 N 
ATOM      5  C3  UNL     1      15.037  12.731  -3.791  0.00  0.00    +0.000 A 
ATOM      6  C4  UNL     1      16.353  11.970  -1.775  0.00  0.00    +0.000 C 
ATOM      7  C5  UNL     1      16.140  10.518  -2.198  0.00  0.00    +0.000 C 
ATOM      8  N3  UNL     1      16.334  10.357  -3.653  0.00  0.00    +0.000 NA
ATOM      9  S1  UNL     1      15.200  11.183  -4.587  0.00  0.00    +0.000 S 
ATOM     10  O1  UNL     1      13.915  10.550  -4.425  0.00  0.00    +0.000 OA
ATOM     11  O2  UNL     1      15.810  11.458  -5.864  0.00  0.00    +0.000 OA
ATOM     12  H7  UNL     1      17.280  10.496  -4.012  0.00  0.00    +0.000 HD
ENDROOT
TORSDOF 0
ENDMDL
MODEL 4
REMARK VINA RESULT:    -3.839      2.290      3.280
REMARK INTER + INTRA:          -3.839
REMARK INTER:                  -3.839
REMARK INTRA:                   0.000
REMARK UNBOUND:                 0.000
REMARK  Name = /home/anacleto/Desktop/manuscript_Mpro/naturecomm/supplementary_file_S2/6-chemical-library/molecular_docking/3D_ligand_structure/152.pdb
REMARK  0 active torsions:
REMARK  status: ('A' for Active; 'I' for Inactive)
REMARK                            x       y       z     vdW  Elec       q    Type
REMARK                         _______ _______ _______ _____ _____    ______ ____
ROOT
ATOM      1  C1  UNL     1      14.373  11.391  -7.109  0.00  0.00    +0.000 A 
ATOM      2  C2  UNL     1      13.197  10.940  -6.485  0.00  0.00    +0.000 A 
ATOM      3  N1  UNL     1      13.372  10.708  -5.183  0.00  0.00    +0.000 NA
ATOM      4  N2  UNL     1      14.673  10.995  -4.982  0.00  0.00    +0.000 N 
ATOM      5  C3  UNL     1      15.321  11.425  -6.106  0.00  0.00    +0.000 A 
ATOM      6  C4  UNL     1      15.211  10.924  -3.634  0.00  0.00    +0.000 C 
ATOM      7  C5  UNL     1      16.735  10.835  -3.596  0.00  0.00    +0.000 C 
ATOM      8  N3  UNL     1      17.349  11.924  -4.381  0.00  0.00    +0.000 NA
ATOM      9  S1  UNL     1      17.017  11.845  -6.031  0.00  0.00    +0.000 S 
ATOM     10  O1  UNL     1      17.702  10.706  -6.589  0.00  0.00    +0.000 OA
ATOM     11  O2  UNL     1      17.116  13.184  -6.557  0.00  0.00    +0.000 OA
ATOM     12  H7  UNL     1      17.231  12.874  -4.026  0.00  0.00    +0.000 HD
ENDROOT
TORSDOF 0
ENDMDL
MODEL 5
REMARK VINA RESULT:    -3.790      2.094      2.701
REMARK INTER + INTRA:          -3.790
REMARK INTER:                  -3.790
REMARK INTRA:                   0.000
REMARK UNBOUND:                 0.000
REMARK  Name = /home/anacleto/Desktop/manuscript_Mpro/naturecomm/supplementary_file_S2/6-chemical-library/molecular_docking/3D_ligand_structure/152.pdb
REMARK  0 active torsions:
REMARK  status: ('A' for Active; 'I' for Inactive)
REMARK                            x       y       z     vdW  Elec       q    Type
REMARK                         _______ _______ _______ _____ _____    ______ ____
ROOT
ATOM      1  C1  UNL     1      17.289  12.454  -5.435  0.00  0.00    +0.000 A 
ATOM      2  C2  UNL     1      17.781  11.899  -6.629  0.00  0.00    +0.000 A 
ATOM      3  N1  UNL     1      16.807  11.419  -7.404  0.00  0.00    +0.000 NA
ATOM      4  N2  UNL     1      15.688  11.654  -6.689  0.00  0.00    +0.000 N 
ATOM      5  C3  UNL     1      15.920  12.289  -5.499  0.00  0.00    +0.000 A 
ATOM      6  C4  UNL     1      14.398  11.321  -7.267  0.00  0.00    +0.000 C 
ATOM      7  C5  UNL     1      13.280  11.217  -6.232  0.00  0.00    +0.000 C 
ATOM      8  N3  UNL     1      13.217  12.433  -5.397  0.00  0.00    +0.000 NA
ATOM      9  S1  UNL     1      14.583  12.675  -4.441  0.00  0.00    +0.000 S 
ATOM     10  O1  UNL     1      14.620  11.661  -3.418  0.00  0.00    +0.000 OA
ATOM     11  O2  UNL     1      14.683  14.090  -4.180  0.00  0.00    +0.000 OA
ATOM     12  H7  UNL     1      12.932  13.298  -5.859  0.00  0.00    +0.000 HD
ENDROOT
TORSDOF 0
ENDMDL
MODEL 6
REMARK VINA RESULT:    -3.784     16.216     17.052
REMARK INTER + INTRA:          -3.784
REMARK INTER:                  -3.784
REMARK INTRA:                   0.000
REMARK UNBOUND:                 0.000
REMARK  Name = /home/anacleto/Desktop/manuscript_Mpro/naturecomm/supplementary_file_S2/6-chemical-library/molecular_docking/3D_ligand_structure/152.pdb
REMARK  0 active torsions:
REMARK  status: ('A' for Active; 'I' for Inactive)
REMARK                            x       y       z     vdW  Elec       q    Type
REMARK                         _______ _______ _______ _____ _____    ______ ____
ROOT
ATOM      1  C1  UNL     1      19.967   3.921  10.298  0.00  0.00    +0.000 A 
ATOM      2  C2  UNL     1      18.812   3.612   9.558  0.00  0.00    +0.000 A 
ATOM      3  N1  UNL     1      18.419   4.626   8.786  0.00  0.00    +0.000 NA
ATOM      4  N2  UNL     1      19.319   5.594   9.050  0.00  0.00    +0.000 N 
ATOM      5  C3  UNL     1      20.283   5.218   9.945  0.00  0.00    +0.000 A 
ATOM      6  C4  UNL     1      19.246   6.847   8.319  0.00  0.00    +0.000 C 
ATOM      7  C5  UNL     1      20.005   7.987   8.993  0.00  0.00    +0.000 C 
ATOM      8  N3  UNL     1      21.399   7.595   9.283  0.00  0.00    +0.000 NA
ATOM      9  S1  UNL     1      21.536   6.346  10.406  0.00  0.00    +0.000 S 
ATOM     10  O1  UNL     1      21.130   6.837  11.699  0.00  0.00    +0.000 OA
ATOM     11  O2  UNL     1      22.786   5.674  10.153  0.00  0.00    +0.000 OA
ATOM     12  H7  UNL     1      22.013   7.441   8.482  0.00  0.00    +0.000 HD
ENDROOT
TORSDOF 0
ENDMDL
MODEL 7
REMARK VINA RESULT:    -3.781      2.316      3.321
REMARK INTER + INTRA:          -3.781
REMARK INTER:                  -3.781
REMARK INTRA:                   0.000
REMARK UNBOUND:                 0.000
REMARK  Name = /home/anacleto/Desktop/manuscript_Mpro/naturecomm/supplementary_file_S2/6-chemical-library/molecular_docking/3D_ligand_structure/152.pdb
REMARK  0 active torsions:
REMARK  status: ('A' for Active; 'I' for Inactive)
REMARK                            x       y       z     vdW  Elec       q    Type
REMARK                         _______ _______ _______ _____ _____    ______ ____
ROOT
ATOM      1  C1  UNL     1      16.905  11.999  -4.314  0.00  0.00    +0.000 A 
ATOM      2  C2  UNL     1      16.342  11.540  -3.111  0.00  0.00    +0.000 A 
ATOM      3  N1  UNL     1      15.133  11.004  -3.290  0.00  0.00    +0.000 NA
ATOM      4  N2  UNL     1      14.918  11.140  -4.613  0.00  0.00    +0.000 N 
ATOM      5  C3  UNL     1      15.960  11.722  -5.282  0.00  0.00    +0.000 A 
ATOM      6  C4  UNL     1      13.704  10.591  -5.192  0.00  0.00    +0.000 C 
ATOM      7  C5  UNL     1      13.369  11.176  -6.562  0.00  0.00    +0.000 C 
ATOM      8  N3  UNL     1      14.520  11.066  -7.480  0.00  0.00    +0.000 NA
ATOM      9  S1  UNL     1      15.857  11.977  -7.008  0.00  0.00    +0.000 S 
ATOM     10  O1  UNL     1      15.542  13.376  -7.154  0.00  0.00    +0.000 OA
ATOM     11  O2  UNL     1      17.028  11.351  -7.571  0.00  0.00    +0.000 OA
ATOM     12  H7  UNL     1      14.797  10.126  -7.767  0.00  0.00    +0.000 HD
ENDROOT
TORSDOF 0
ENDMDL
MODEL 8
REMARK VINA RESULT:    -3.710      2.951      3.783
REMARK INTER + INTRA:          -3.710
REMARK INTER:                  -3.710
REMARK INTRA:                   0.000
REMARK UNBOUND:                 0.000
REMARK  Name = /home/anacleto/Desktop/manuscript_Mpro/naturecomm/supplementary_file_S2/6-chemical-library/molecular_docking/3D_ligand_structure/152.pdb
REMARK  0 active torsions:
REMARK  status: ('A' for Active; 'I' for Inactive)
REMARK                            x       y       z     vdW  Elec       q    Type
REMARK                         _______ _______ _______ _____ _____    ______ ____
ROOT
ATOM      1  C1  UNL     1      15.142  13.245  -3.063  0.00  0.00    +0.000 A 
ATOM      2  C2  UNL     1      14.578  13.825  -4.212  0.00  0.00    +0.000 A 
ATOM      3  N1  UNL     1      14.942  13.192  -5.329  0.00  0.00    +0.000 NA
ATOM      4  N2  UNL     1      15.758  12.214  -4.888  0.00  0.00    +0.000 N 
ATOM      5  C3  UNL     1      15.903  12.192  -3.529  0.00  0.00    +0.000 A 
ATOM      6  C4  UNL     1      16.297  11.261  -5.842  0.00  0.00    +0.000 C 
ATOM      7  C5  UNL     1      17.516  10.504  -5.319  0.00  0.00    +0.000 C 
ATOM      8  N3  UNL     1      17.229   9.880  -4.012  0.00  0.00    +0.000 NA
ATOM      9  S1  UNL     1      16.926  10.988  -2.779  0.00  0.00    +0.000 S 
ATOM     10  O1  UNL     1      18.149  11.686  -2.470  0.00  0.00    +0.000 OA
ATOM     11  O2  UNL     1      16.103  10.327  -1.796  0.00  0.00    +0.000 OA
ATOM     12  H7  UNL     1      16.548   9.120  -4.001  0.00  0.00    +0.000 HD
ENDROOT
TORSDOF 0
ENDMDL
MODEL 9
REMARK VINA RESULT:    -3.630     16.974     17.992
REMARK INTER + INTRA:          -3.630
REMARK INTER:                  -3.630
REMARK INTRA:                   0.000
REMARK UNBOUND:                 0.000
REMARK  Name = /home/anacleto/Desktop/manuscript_Mpro/naturecomm/supplementary_file_S2/6-chemical-library/molecular_docking/3D_ligand_structure/152.pdb
REMARK  0 active torsions:
REMARK  status: ('A' for Active; 'I' for Inactive)
REMARK                            x       y       z     vdW  Elec       q    Type
REMARK                         _______ _______ _______ _____ _____    ______ ____
ROOT
ATOM      1  C1  UNL     1      18.721   7.528  11.828  0.00  0.00    +0.000 A 
ATOM      2  C2  UNL     1      19.052   7.590  13.192  0.00  0.00    +0.000 A 
ATOM      3  N1  UNL     1      20.323   7.256  13.421  0.00  0.00    +0.000 NA
ATOM      4  N2  UNL     1      20.799   6.962  12.195  0.00  0.00    +0.000 N 
ATOM      5  C3  UNL     1      19.880   7.122  11.195  0.00  0.00    +0.000 A 
ATOM      6  C4  UNL     1      22.203   6.620  12.045  0.00  0.00    +0.000 C 
ATOM      7  C5  UNL     1      22.514   5.897  10.737  0.00  0.00    +0.000 C 
ATOM      8  N3  UNL     1      22.002   6.656   9.579  0.00  0.00    +0.000 NA
ATOM      9  S1  UNL     1      20.323   6.787   9.538  0.00  0.00    +0.000 S 
ATOM     10  O1  UNL     1      19.762   5.487   9.264  0.00  0.00    +0.000 OA
ATOM     11  O2  UNL     1      20.000   7.979   8.793  0.00  0.00    +0.000 OA
ATOM     12  H7  UNL     1      22.447   7.553   9.380  0.00  0.00    +0.000 HD
ENDROOT
TORSDOF 0
ENDMDL
