MODEL 1
REMARK VINA RESULT:    -5.068      0.000      0.000
REMARK INTER + INTRA:          -6.266
REMARK INTER:                  -5.948
REMARK INTRA:                  -0.318
REMARK UNBOUND:                -0.309
REMARK  Name = /home/anacleto/Desktop/manuscript_Mpro/naturecomm/supplementary_file_S2/6-chemical-library/molecular_docking/3D_ligand_structure/848.pdb
REMARK  3 active torsions:
REMARK  status: ('A' for Active; 'I' for Inactive)
REMARK    1  A    between atoms: C3_5  and  C4_6
REMARK    2  A    between atoms: N3_8  and  C5_9
REMARK    3  A    between atoms: C5_9  and  C6_10
REMARK                            x       y       z     vdW  Elec       q    Type
REMARK                         _______ _______ _______ _____ _____    ______ ____
ROOT
ATOM      1  C4  UNL     1     -24.016   7.416 -38.429  0.00  0.00    +0.000 C 
ATOM      2  O1  UNL     1     -24.704   8.229 -37.819  0.00  0.00    +0.000 OA
ATOM      3  N3  UNL     1     -24.546   6.458 -39.261  0.00  0.00    +0.000 N 
ATOM      4  H4  UNL     1     -23.943   5.731 -39.614  0.00  0.00    +0.000 HD
ENDROOT
BRANCH   1   9
ATOM      5  C1  UNL     1     -21.665   6.380 -38.536  0.00  0.00    +0.000 A 
ATOM      6  N1  UNL     1     -20.425   6.894 -38.278  0.00  0.00    +0.000 N 
ATOM      7  N2  UNL     1     -20.449   8.179 -37.898  0.00  0.00    +0.000 NA
ATOM      8  C2  UNL     1     -21.747   8.489 -37.919  0.00  0.00    +0.000 A 
ATOM      9  C3  UNL     1     -22.568   7.403 -38.308  0.00  0.00    +0.000 A 
ATOM     10  H2  UNL     1     -19.525   6.428 -38.340  0.00  0.00    +0.000 HD
ENDBRANCH   1   9
BRANCH   3  11
ATOM     11  C5  UNL     1     -25.969   6.250 -39.374  0.00  0.00    +0.000 C 
BRANCH  11  12
ATOM     12  C6  UNL     1     -26.336   4.853 -38.945  0.00  0.00    +0.000 A 
ATOM     13  C7  UNL     1     -25.347   3.883 -38.732  0.00  0.00    +0.000 A 
ATOM     14  C8  UNL     1     -25.696   2.598 -38.314  0.00  0.00    +0.000 A 
ATOM     15  C9  UNL     1     -27.034   2.272 -38.098  0.00  0.00    +0.000 A 
ATOM     16  C10 UNL     1     -28.024   3.231 -38.299  0.00  0.00    +0.000 A 
ATOM     17  C11 UNL     1     -27.678   4.515 -38.718  0.00  0.00    +0.000 A 
ENDBRANCH  11  12
ENDBRANCH   3  11
TORSDOF 3
ENDMDL
MODEL 2
REMARK VINA RESULT:    -5.061      1.782      2.231
REMARK INTER + INTRA:          -6.258
REMARK INTER:                  -6.014
REMARK INTRA:                  -0.244
REMARK UNBOUND:                -0.309
REMARK  Name = /home/anacleto/Desktop/manuscript_Mpro/naturecomm/supplementary_file_S2/6-chemical-library/molecular_docking/3D_ligand_structure/848.pdb
REMARK  3 active torsions:
REMARK  status: ('A' for Active; 'I' for Inactive)
REMARK    1  A    between atoms: C3_5  and  C4_6
REMARK    2  A    between atoms: N3_8  and  C5_9
REMARK    3  A    between atoms: C5_9  and  C6_10
REMARK                            x       y       z     vdW  Elec       q    Type
REMARK                         _______ _______ _______ _____ _____    ______ ____
ROOT
ATOM      1  C4  UNL     1     -23.157   6.823 -38.251  0.00  0.00    +0.000 C 
ATOM      2  O1  UNL     1     -22.083   6.229 -38.286  0.00  0.00    +0.000 OA
ATOM      3  N3  UNL     1     -24.340   6.260 -38.670  0.00  0.00    +0.000 N 
ATOM      4  H4  UNL     1     -25.156   6.846 -38.755  0.00  0.00    +0.000 HD
ENDROOT
BRANCH   1   9
ATOM      5  C1  UNL     1     -24.356   9.022 -37.670  0.00  0.00    +0.000 A 
ATOM      6  N1  UNL     1     -23.906  10.198 -37.140  0.00  0.00    +0.000 N 
ATOM      7  N2  UNL     1     -22.592  10.197 -36.877  0.00  0.00    +0.000 NA
ATOM      8  C2  UNL     1     -22.198   8.977 -37.252  0.00  0.00    +0.000 A 
ATOM      9  C3  UNL     1     -23.257   8.188 -37.762  0.00  0.00    +0.000 A 
ATOM     10  H2  UNL     1     -24.435  11.040 -36.933  0.00  0.00    +0.000 HD
ENDBRANCH   1   9
BRANCH   3  11
ATOM     11  C5  UNL     1     -24.383   4.969 -39.313  0.00  0.00    +0.000 C 
BRANCH  11  12
ATOM     12  C6  UNL     1     -25.646   4.234 -38.943  0.00  0.00    +0.000 A 
ATOM     13  C7  UNL     1     -25.598   2.918 -38.464  0.00  0.00    +0.000 A 
ATOM     14  C8  UNL     1     -26.772   2.254 -38.103  0.00  0.00    +0.000 A 
ATOM     15  C9  UNL     1     -28.002   2.901 -38.210  0.00  0.00    +0.000 A 
ATOM     16  C10 UNL     1     -28.060   4.212 -38.678  0.00  0.00    +0.000 A 
ATOM     17  C11 UNL     1     -26.888   4.877 -39.040  0.00  0.00    +0.000 A 
ENDBRANCH  11  12
ENDBRANCH   3  11
TORSDOF 3
ENDMDL
MODEL 3
REMARK VINA RESULT:    -4.946     17.706     19.173
REMARK INTER + INTRA:          -6.123
REMARK INTER:                  -5.869
REMARK INTRA:                  -0.253
REMARK UNBOUND:                -0.309
REMARK  Name = /home/anacleto/Desktop/manuscript_Mpro/naturecomm/supplementary_file_S2/6-chemical-library/molecular_docking/3D_ligand_structure/848.pdb
REMARK  3 active torsions:
REMARK  status: ('A' for Active; 'I' for Inactive)
REMARK    1  A    between atoms: C3_5  and  C4_6
REMARK    2  A    between atoms: N3_8  and  C5_9
REMARK    3  A    between atoms: C5_9  and  C6_10
REMARK                            x       y       z     vdW  Elec       q    Type
REMARK                         _______ _______ _______ _____ _____    ______ ____
ROOT
ATOM      1  C4  UNL     1     -36.550  -3.010 -25.344  0.00  0.00    +0.000 C 
ATOM      2  O1  UNL     1     -37.301  -3.289 -24.414  0.00  0.00    +0.000 OA
ATOM      3  N3  UNL     1     -36.975  -2.373 -26.487  0.00  0.00    +0.000 N 
ATOM      4  H4  UNL     1     -36.344  -2.306 -27.271  0.00  0.00    +0.000 HD
ENDROOT
BRANCH   1   9
ATOM      5  C1  UNL     1     -34.026  -2.531 -25.442  0.00  0.00    +0.000 A 
ATOM      6  N1  UNL     1     -32.934  -3.344 -25.327  0.00  0.00    +0.000 N 
ATOM      7  N2  UNL     1     -33.247  -4.632 -25.125  0.00  0.00    +0.000 NA
ATOM      8  C2  UNL     1     -34.582  -4.632 -25.111  0.00  0.00    +0.000 A 
ATOM      9  C3  UNL     1     -35.136  -3.344 -25.307  0.00  0.00    +0.000 A 
ATOM     10  H2  UNL     1     -31.952  -3.092 -25.376  0.00  0.00    +0.000 HD
ENDBRANCH   1   9
BRANCH   3  11
ATOM     11  C5  UNL     1     -38.371  -2.105 -26.735  0.00  0.00    +0.000 C 
BRANCH  11  12
ATOM     12  C6  UNL     1     -38.528  -0.902 -27.629  0.00  0.00    +0.000 A 
ATOM     13  C7  UNL     1     -37.467  -0.458 -28.431  0.00  0.00    +0.000 A 
ATOM     14  C8  UNL     1     -37.630   0.644 -29.272  0.00  0.00    +0.000 A 
ATOM     15  C9  UNL     1     -38.855   1.308 -29.324  0.00  0.00    +0.000 A 
ATOM     16  C10 UNL     1     -39.918   0.870 -28.538  0.00  0.00    +0.000 A 
ATOM     17  C11 UNL     1     -39.757  -0.230 -27.696  0.00  0.00    +0.000 A 
ENDBRANCH  11  12
ENDBRANCH   3  11
TORSDOF 3
ENDMDL
MODEL 4
REMARK VINA RESULT:    -4.875      2.318      6.176
REMARK INTER + INTRA:          -6.039
REMARK INTER:                  -5.766
REMARK INTRA:                  -0.273
REMARK UNBOUND:                -0.309
REMARK  Name = /home/anacleto/Desktop/manuscript_Mpro/naturecomm/supplementary_file_S2/6-chemical-library/molecular_docking/3D_ligand_structure/848.pdb
REMARK  3 active torsions:
REMARK  status: ('A' for Active; 'I' for Inactive)
REMARK    1  A    between atoms: C3_5  and  C4_6
REMARK    2  A    between atoms: N3_8  and  C5_9
REMARK    3  A    between atoms: C5_9  and  C6_10
REMARK                            x       y       z     vdW  Elec       q    Type
REMARK                         _______ _______ _______ _____ _____    ______ ____
ROOT
ATOM      1  C4  UNL     1     -24.532   4.938 -39.098  0.00  0.00    +0.000 C 
ATOM      2  O1  UNL     1     -24.363   5.247 -40.273  0.00  0.00    +0.000 OA
ATOM      3  N3  UNL     1     -23.688   5.336 -38.087  0.00  0.00    +0.000 N 
ATOM      4  H4  UNL     1     -23.797   4.928 -37.171  0.00  0.00    +0.000 HD
ENDROOT
BRANCH   1   9
ATOM      5  C1  UNL     1     -27.002   4.400 -38.628  0.00  0.00    +0.000 A 
ATOM      6  N1  UNL     1     -27.623   3.273 -38.168  0.00  0.00    +0.000 N 
ATOM      7  N2  UNL     1     -26.777   2.264 -37.916  0.00  0.00    +0.000 NA
ATOM      8  C2  UNL     1     -25.583   2.770 -38.230  0.00  0.00    +0.000 A 
ATOM      9  C3  UNL     1     -25.651   4.109 -38.682  0.00  0.00    +0.000 A 
ATOM     10  H2  UNL     1     -28.613   3.122 -38.001  0.00  0.00    +0.000 HD
ENDBRANCH   1   9
BRANCH   3  11
ATOM     11  C5  UNL     1     -22.457   6.039 -38.357  0.00  0.00    +0.000 C 
BRANCH  11  12
ATOM     12  C6  UNL     1     -22.526   7.449 -37.829  0.00  0.00    +0.000 A 
ATOM     13  C7  UNL     1     -21.386   8.081 -37.313  0.00  0.00    +0.000 A 
ATOM     14  C8  UNL     1     -21.455   9.394 -36.847  0.00  0.00    +0.000 A 
ATOM     15  C9  UNL     1     -22.662  10.091 -36.898  0.00  0.00    +0.000 A 
ATOM     16  C10 UNL     1     -23.799   9.476 -37.415  0.00  0.00    +0.000 A 
ATOM     17  C11 UNL     1     -23.732   8.163 -37.880  0.00  0.00    +0.000 A 
ENDBRANCH  11  12
ENDBRANCH   3  11
TORSDOF 3
ENDMDL
MODEL 5
REMARK VINA RESULT:    -4.719     27.536     28.352
REMARK INTER + INTRA:          -5.856
REMARK INTER:                  -5.546
REMARK INTRA:                  -0.310
REMARK UNBOUND:                -0.309
REMARK  Name = /home/anacleto/Desktop/manuscript_Mpro/naturecomm/supplementary_file_S2/6-chemical-library/molecular_docking/3D_ligand_structure/848.pdb
REMARK  3 active torsions:
REMARK  status: ('A' for Active; 'I' for Inactive)
REMARK    1  A    between atoms: C3_5  and  C4_6
REMARK    2  A    between atoms: N3_8  and  C5_9
REMARK    3  A    between atoms: C5_9  and  C6_10
REMARK                            x       y       z     vdW  Elec       q    Type
REMARK                         _______ _______ _______ _____ _____    ______ ____
ROOT
ATOM      1  C4  UNL     1     -11.603  -5.466 -15.211  0.00  0.00    +0.000 C 
ATOM      2  O1  UNL     1     -11.022  -6.476 -14.826  0.00  0.00    +0.000 OA
ATOM      3  N3  UNL     1     -12.569  -4.826 -14.470  0.00  0.00    +0.000 N 
ATOM      4  H4  UNL     1     -13.110  -4.093 -14.903  0.00  0.00    +0.000 HD
ENDROOT
BRANCH   1   9
ATOM      5  C1  UNL     1     -11.469  -5.382 -17.778  0.00  0.00    +0.000 A 
ATOM      6  N1  UNL     1     -11.047  -4.410 -18.642  0.00  0.00    +0.000 N 
ATOM      7  N2  UNL     1     -10.626  -3.296 -18.027  0.00  0.00    +0.000 NA
ATOM      8  C2  UNL     1     -10.789  -3.572 -16.731  0.00  0.00    +0.000 A 
ATOM      9  C3  UNL     1     -11.312  -4.867 -16.504  0.00  0.00    +0.000 A 
ATOM     10  H2  UNL     1     -11.018  -4.438 -19.656  0.00  0.00    +0.000 HD
ENDBRANCH   1   9
BRANCH   3  11
ATOM     11  C5  UNL     1     -13.069  -5.377 -13.234  0.00  0.00    +0.000 C 
BRANCH  11  12
ATOM     12  C6  UNL     1     -14.550  -5.637 -13.331  0.00  0.00    +0.000 A 
ATOM     13  C7  UNL     1     -15.065  -6.511 -14.299  0.00  0.00    +0.000 A 
ATOM     14  C8  UNL     1     -16.436  -6.763 -14.366  0.00  0.00    +0.000 A 
ATOM     15  C9  UNL     1     -17.305  -6.149 -13.465  0.00  0.00    +0.000 A 
ATOM     16  C10 UNL     1     -16.803  -5.284 -12.494  0.00  0.00    +0.000 A 
ATOM     17  C11 UNL     1     -15.433  -5.030 -12.426  0.00  0.00    +0.000 A 
ENDBRANCH  11  12
ENDBRANCH   3  11
TORSDOF 3
ENDMDL
MODEL 6
REMARK VINA RESULT:    -4.629     16.294     18.053
REMARK INTER + INTRA:          -5.750
REMARK INTER:                  -5.400
REMARK INTRA:                  -0.350
REMARK UNBOUND:                -0.309
REMARK  Name = /home/anacleto/Desktop/manuscript_Mpro/naturecomm/supplementary_file_S2/6-chemical-library/molecular_docking/3D_ligand_structure/848.pdb
REMARK  3 active torsions:
REMARK  status: ('A' for Active; 'I' for Inactive)
REMARK    1  A    between atoms: C3_5  and  C4_6
REMARK    2  A    between atoms: N3_8  and  C5_9
REMARK    3  A    between atoms: C5_9  and  C6_10
REMARK                            x       y       z     vdW  Elec       q    Type
REMARK                         _______ _______ _______ _____ _____    ______ ____
ROOT
ATOM      1  C4  UNL     1     -26.168  -5.993 -26.267  0.00  0.00    +0.000 C 
ATOM      2  O1  UNL     1     -25.544  -6.986 -25.907  0.00  0.00    +0.000 OA
ATOM      3  N3  UNL     1     -25.559  -4.851 -26.732  0.00  0.00    +0.000 N 
ATOM      4  H4  UNL     1     -26.117  -4.022 -26.870  0.00  0.00    +0.000 HD
ENDROOT
BRANCH   1   9
ATOM      5  C1  UNL     1     -28.496  -4.976 -26.669  0.00  0.00    +0.000 A 
ATOM      6  N1  UNL     1     -29.754  -5.427 -26.384  0.00  0.00    +0.000 N 
ATOM      7  N2  UNL     1     -29.768  -6.625 -25.783  0.00  0.00    +0.000 NA
ATOM      8  C2  UNL     1     -28.475  -6.942 -25.685  0.00  0.00    +0.000 A 
ATOM      9  C3  UNL     1     -27.620  -5.949 -26.221  0.00  0.00    +0.000 A 
ATOM     10  H2  UNL     1     -30.643  -4.974 -26.571  0.00  0.00    +0.000 HD
ENDBRANCH   1   9
BRANCH   3  11
ATOM     11  C5  UNL     1     -24.126  -4.687 -26.703  0.00  0.00    +0.000 C 
BRANCH  11  12
ATOM     12  C6  UNL     1     -23.675  -4.207 -25.348  0.00  0.00    +0.000 A 
ATOM     13  C7  UNL     1     -24.294  -3.111 -24.730  0.00  0.00    +0.000 A 
ATOM     14  C8  UNL     1     -23.884  -2.688 -23.465  0.00  0.00    +0.000 A 
ATOM     15  C9  UNL     1     -22.857  -3.359 -22.803  0.00  0.00    +0.000 A 
ATOM     16  C10 UNL     1     -22.240  -4.454 -23.403  0.00  0.00    +0.000 A 
ATOM     17  C11 UNL     1     -22.648  -4.878 -24.669  0.00  0.00    +0.000 A 
ENDBRANCH  11  12
ENDBRANCH   3  11
TORSDOF 3
ENDMDL
MODEL 7
REMARK VINA RESULT:    -4.605      3.303      6.489
REMARK INTER + INTRA:          -5.722
REMARK INTER:                  -5.502
REMARK INTRA:                  -0.220
REMARK UNBOUND:                -0.309
REMARK  Name = /home/anacleto/Desktop/manuscript_Mpro/naturecomm/supplementary_file_S2/6-chemical-library/molecular_docking/3D_ligand_structure/848.pdb
REMARK  3 active torsions:
REMARK  status: ('A' for Active; 'I' for Inactive)
REMARK    1  A    between atoms: C3_5  and  C4_6
REMARK    2  A    between atoms: N3_8  and  C5_9
REMARK    3  A    between atoms: C5_9  and  C6_10
REMARK                            x       y       z     vdW  Elec       q    Type
REMARK                         _______ _______ _______ _____ _____    ______ ____
ROOT
ATOM      1  C4  UNL     1     -27.784   4.159 -38.523  0.00  0.00    +0.000 C 
ATOM      2  O1  UNL     1     -27.834   3.042 -38.018  0.00  0.00    +0.000 OA
ATOM      3  N3  UNL     1     -26.618   4.724 -38.985  0.00  0.00    +0.000 N 
ATOM      4  H4  UNL     1     -26.619   5.697 -39.250  0.00  0.00    +0.000 HD
ENDROOT
BRANCH   1   9
ATOM      5  C1  UNL     1     -29.333   6.148 -38.013  0.00  0.00    +0.000 A 
ATOM      6  N1  UNL     1     -30.547   6.517 -38.521  0.00  0.00    +0.000 N 
ATOM      7  N2  UNL     1     -31.009   5.680 -39.461  0.00  0.00    +0.000 NA
ATOM      8  C2  UNL     1     -30.054   4.752 -39.551  0.00  0.00    +0.000 A 
ATOM      9  C3  UNL     1     -28.973   4.983 -38.667  0.00  0.00    +0.000 A 
ATOM     10  H2  UNL     1     -31.114   7.322 -38.275  0.00  0.00    +0.000 HD
ENDBRANCH   1   9
BRANCH   3  11
ATOM     11  C5  UNL     1     -25.336   4.094 -38.784  0.00  0.00    +0.000 C 
BRANCH  11  12
ATOM     12  C6  UNL     1     -24.222   5.097 -38.943  0.00  0.00    +0.000 A 
ATOM     13  C7  UNL     1     -23.391   5.425 -37.862  0.00  0.00    +0.000 A 
ATOM     14  C8  UNL     1     -22.348   6.338 -38.025  0.00  0.00    +0.000 A 
ATOM     15  C9  UNL     1     -22.122   6.926 -39.269  0.00  0.00    +0.000 A 
ATOM     16  C10 UNL     1     -22.937   6.602 -40.351  0.00  0.00    +0.000 A 
ATOM     17  C11 UNL     1     -23.980   5.690 -40.190  0.00  0.00    +0.000 A 
ENDBRANCH  11  12
ENDBRANCH   3  11
TORSDOF 3
ENDMDL
MODEL 8
REMARK VINA RESULT:    -4.540      2.445      6.407
REMARK INTER + INTRA:          -5.645
REMARK INTER:                  -5.387
REMARK INTRA:                  -0.258
REMARK UNBOUND:                -0.309
REMARK  Name = /home/anacleto/Desktop/manuscript_Mpro/naturecomm/supplementary_file_S2/6-chemical-library/molecular_docking/3D_ligand_structure/848.pdb
REMARK  3 active torsions:
REMARK  status: ('A' for Active; 'I' for Inactive)
REMARK    1  A    between atoms: C3_5  and  C4_6
REMARK    2  A    between atoms: N3_8  and  C5_9
REMARK    3  A    between atoms: C5_9  and  C6_10
REMARK                            x       y       z     vdW  Elec       q    Type
REMARK                         _______ _______ _______ _____ _____    ______ ____
ROOT
ATOM      1  C4  UNL     1     -25.541   4.662 -39.166  0.00  0.00    +0.000 C 
ATOM      2  O1  UNL     1     -24.969   3.749 -39.754  0.00  0.00    +0.000 OA
ATOM      3  N3  UNL     1     -24.902   5.811 -38.762  0.00  0.00    +0.000 N 
ATOM      4  H4  UNL     1     -25.390   6.453 -38.157  0.00  0.00    +0.000 HD
ENDROOT
BRANCH   1   9
ATOM      5  C1  UNL     1     -27.736   3.505 -38.490  0.00  0.00    +0.000 A 
ATOM      6  N1  UNL     1     -29.000   3.984 -38.292  0.00  0.00    +0.000 N 
ATOM      7  N2  UNL     1     -29.107   5.306 -38.489  0.00  0.00    +0.000 NA
ATOM      8  C2  UNL     1     -27.868   5.675 -38.822  0.00  0.00    +0.000 A 
ATOM      9  C3  UNL     1     -26.957   4.592 -38.844  0.00  0.00    +0.000 A 
ATOM     10  H2  UNL     1     -29.834   3.471 -38.023  0.00  0.00    +0.000 HD
ENDBRANCH   1   9
BRANCH   3  11
ATOM     11  C5  UNL     1     -23.473   5.969 -38.881  0.00  0.00    +0.000 C 
BRANCH  11  12
ATOM     12  C6  UNL     1     -23.020   7.231 -38.193  0.00  0.00    +0.000 A 
ATOM     13  C7  UNL     1     -23.910   8.293 -37.981  0.00  0.00    +0.000 A 
ATOM     14  C8  UNL     1     -23.487   9.449 -37.323  0.00  0.00    +0.000 A 
ATOM     15  C9  UNL     1     -22.175   9.552 -36.865  0.00  0.00    +0.000 A 
ATOM     16  C10 UNL     1     -21.284   8.500 -37.064  0.00  0.00    +0.000 A 
ATOM     17  C11 UNL     1     -21.704   7.344 -37.722  0.00  0.00    +0.000 A 
ENDBRANCH  11  12
ENDBRANCH   3  11
TORSDOF 3
ENDMDL
MODEL 9
REMARK VINA RESULT:    -4.485      2.067      2.464
REMARK INTER + INTRA:          -5.581
REMARK INTER:                  -5.272
REMARK INTRA:                  -0.309
REMARK UNBOUND:                -0.309
REMARK  Name = /home/anacleto/Desktop/manuscript_Mpro/naturecomm/supplementary_file_S2/6-chemical-library/molecular_docking/3D_ligand_structure/848.pdb
REMARK  3 active torsions:
REMARK  status: ('A' for Active; 'I' for Inactive)
REMARK    1  A    between atoms: C3_5  and  C4_6
REMARK    2  A    between atoms: N3_8  and  C5_9
REMARK    3  A    between atoms: C5_9  and  C6_10
REMARK                            x       y       z     vdW  Elec       q    Type
REMARK                         _______ _______ _______ _____ _____    ______ ____
ROOT
ATOM      1  C4  UNL     1     -21.846   7.057 -39.568  0.00  0.00    +0.000 C 
ATOM      2  O1  UNL     1     -21.009   6.522 -40.289  0.00  0.00    +0.000 OA
ATOM      3  N3  UNL     1     -23.196   6.812 -39.676  0.00  0.00    +0.000 N 
ATOM      4  H4  UNL     1     -23.839   7.391 -39.157  0.00  0.00    +0.000 HD
ENDROOT
BRANCH   1   9
ATOM      5  C1  UNL     1     -20.222   8.510 -38.203  0.00  0.00    +0.000 A 
ATOM      6  N1  UNL     1     -20.419   9.370 -37.160  0.00  0.00    +0.000 N 
ATOM      7  N2  UNL     1     -21.702   9.469 -36.784  0.00  0.00    +0.000 NA
ATOM      8  C2  UNL     1     -22.337   8.644 -37.620  0.00  0.00    +0.000 A 
ATOM      9  C3  UNL     1     -21.467   8.007 -38.536  0.00  0.00    +0.000 A 
ATOM     10  H2  UNL     1     -19.729   9.920 -36.658  0.00  0.00    +0.000 HD
ENDBRANCH   1   9
BRANCH   3  11
ATOM     11  C5  UNL     1     -23.741   6.007 -40.741  0.00  0.00    +0.000 C 
BRANCH  11  12
ATOM     12  C6  UNL     1     -24.472   4.813 -40.183  0.00  0.00    +0.000 A 
ATOM     13  C7  UNL     1     -24.768   3.708 -40.992  0.00  0.00    +0.000 A 
ATOM     14  C8  UNL     1     -25.426   2.598 -40.459  0.00  0.00    +0.000 A 
ATOM     15  C9  UNL     1     -25.788   2.579 -39.113  0.00  0.00    +0.000 A 
ATOM     16  C10 UNL     1     -25.492   3.669 -38.298  0.00  0.00    +0.000 A 
ATOM     17  C11 UNL     1     -24.836   4.780 -38.829  0.00  0.00    +0.000 A 
ENDBRANCH  11  12
ENDBRANCH   3  11
TORSDOF 3
ENDMDL
