MODEL 1
REMARK VINA RESULT:    -4.345      0.000      0.000
REMARK INTER + INTRA:          -4.990
REMARK INTER:                  -4.842
REMARK INTRA:                  -0.148
REMARK UNBOUND:                -0.137
REMARK  Name = /home/anacleto/Desktop/manuscript_Mpro/naturecomm/supplementary_file_S2/6-chemical-library/molecular_docking/3D_ligand_structure/1169.pdb
REMARK  2 active torsions:
REMARK  status: ('A' for Active; 'I' for Inactive)
REMARK    1  A    between atoms: C4_5  and  C5_6
REMARK    2  A    between atoms: C5_6  and  C6_8
REMARK                            x       y       z     vdW  Elec       q    Type
REMARK                         _______ _______ _______ _____ _____    ______ ____
ROOT
ATOM      1  C5  UNL     1      20.311   6.944  11.098  0.00  0.00    +0.000 C 
ATOM      2  O1  UNL     1      21.537   7.035  11.057  0.00  0.00    +0.000 OA
ENDROOT
BRANCH   1   3
ATOM      3  C6  UNL     1      19.654   6.449   9.886  0.00  0.00    +0.000 A 
ATOM      4  C7  UNL     1      19.400   7.246   8.733  0.00  0.00    +0.000 A 
ATOM      5  N1  UNL     1      18.777   6.449   7.814  0.00  0.00    +0.000 N 
ATOM      6  O2  UNL     1      18.630   5.146   8.370  0.00  0.00    +0.000 OA
ATOM      7  N2  UNL     1      19.189   5.197   9.656  0.00  0.00    +0.000 NA
ATOM      8  H5  UNL     1      18.432   6.627   6.875  0.00  0.00    +0.000 HD
ENDBRANCH   1   3
BRANCH   1  13
ATOM      9  S1  UNL     1      20.363   7.745  13.700  0.00  0.00    +0.000 S 
ATOM     10  C1  UNL     1      18.928   8.002  14.581  0.00  0.00    +0.000 A 
ATOM     11  C2  UNL     1      17.810   7.757  13.822  0.00  0.00    +0.000 A 
ATOM     12  C3  UNL     1      18.140   7.351  12.493  0.00  0.00    +0.000 A 
ATOM     13  C4  UNL     1      19.507   7.295  12.266  0.00  0.00    +0.000 A 
ENDBRANCH   1  13
TORSDOF 2
ENDMDL
MODEL 2
REMARK VINA RESULT:    -4.273     16.270     17.071
REMARK INTER + INTRA:          -4.910
REMARK INTER:                  -4.764
REMARK INTRA:                  -0.146
REMARK UNBOUND:                -0.137
REMARK  Name = /home/anacleto/Desktop/manuscript_Mpro/naturecomm/supplementary_file_S2/6-chemical-library/molecular_docking/3D_ligand_structure/1169.pdb
REMARK  2 active torsions:
REMARK  status: ('A' for Active; 'I' for Inactive)
REMARK    1  A    between atoms: C4_5  and  C5_6
REMARK    2  A    between atoms: C5_6  and  C6_8
REMARK                            x       y       z     vdW  Elec       q    Type
REMARK                         _______ _______ _______ _____ _____    ______ ____
ROOT
ATOM      1  C5  UNL     1      14.887  13.908  -4.528  0.00  0.00    +0.000 C 
ATOM      2  O1  UNL     1      15.479  14.350  -5.512  0.00  0.00    +0.000 OA
ENDROOT
BRANCH   1   3
ATOM      3  C6  UNL     1      14.317  12.565  -4.660  0.00  0.00    +0.000 A 
ATOM      4  C7  UNL     1      14.786  11.424  -3.947  0.00  0.00    +0.000 A 
ATOM      5  N1  UNL     1      14.017  10.360  -4.327  0.00  0.00    +0.000 N 
ATOM      6  O2  UNL     1      13.058  10.811  -5.280  0.00  0.00    +0.000 OA
ATOM      7  N2  UNL     1      13.286  12.185  -5.453  0.00  0.00    +0.000 NA
ATOM      8  H5  UNL     1      14.023   9.380  -4.059  0.00  0.00    +0.000 HD
ENDBRANCH   1   3
BRANCH   1  13
ATOM      9  S1  UNL     1      16.172  14.943  -2.362  0.00  0.00    +0.000 S 
ATOM     10  C1  UNL     1      15.326  15.762  -1.132  0.00  0.00    +0.000 A 
ATOM     11  C2  UNL     1      13.977  15.816  -1.386  0.00  0.00    +0.000 A 
ATOM     12  C3  UNL     1      13.636  15.172  -2.615  0.00  0.00    +0.000 A 
ATOM     13  C4  UNL     1      14.734  14.640  -3.273  0.00  0.00    +0.000 A 
ENDBRANCH   1  13
TORSDOF 2
ENDMDL
MODEL 3
REMARK VINA RESULT:    -4.247     15.667     17.254
REMARK INTER + INTRA:          -4.881
REMARK INTER:                  -4.733
REMARK INTRA:                  -0.148
REMARK UNBOUND:                -0.137
REMARK  Name = /home/anacleto/Desktop/manuscript_Mpro/naturecomm/supplementary_file_S2/6-chemical-library/molecular_docking/3D_ligand_structure/1169.pdb
REMARK  2 active torsions:
REMARK  status: ('A' for Active; 'I' for Inactive)
REMARK    1  A    between atoms: C4_5  and  C5_6
REMARK    2  A    between atoms: C5_6  and  C6_8
REMARK                            x       y       z     vdW  Elec       q    Type
REMARK                         _______ _______ _______ _____ _____    ______ ____
ROOT
ATOM      1  C5  UNL     1      14.667  12.712  -4.767  0.00  0.00    +0.000 C 
ATOM      2  O1  UNL     1      14.587  13.929  -4.927  0.00  0.00    +0.000 OA
ENDROOT
BRANCH   1   3
ATOM      3  C6  UNL     1      14.082  11.878  -5.819  0.00  0.00    +0.000 A 
ATOM      4  C7  UNL     1      14.782  11.457  -6.988  0.00  0.00    +0.000 A 
ATOM      5  N1  UNL     1      13.920  10.701  -7.730  0.00  0.00    +0.000 N 
ATOM      6  O2  UNL     1      12.672  10.633  -7.046  0.00  0.00    +0.000 OA
ATOM      7  N2  UNL     1      12.823  11.379  -5.867  0.00  0.00    +0.000 NA
ATOM      8  H5  UNL     1      14.022  10.219  -8.620  0.00  0.00    +0.000 HD
ENDBRANCH   1   3
BRANCH   1  13
ATOM      9  S1  UNL     1      15.713  13.113  -2.285  0.00  0.00    +0.000 S 
ATOM     10  C1  UNL     1      16.355  11.828  -1.371  0.00  0.00    +0.000 A 
ATOM     11  C2  UNL     1      16.269  10.631  -2.039  0.00  0.00    +0.000 A 
ATOM     12  C3  UNL     1      15.664  10.775  -3.326  0.00  0.00    +0.000 A 
ATOM     13  C4  UNL     1      15.300  12.082  -3.611  0.00  0.00    +0.000 A 
ENDBRANCH   1  13
TORSDOF 2
ENDMDL
MODEL 4
REMARK VINA RESULT:    -4.191      3.226      4.694
REMARK INTER + INTRA:          -4.818
REMARK INTER:                  -4.679
REMARK INTRA:                  -0.139
REMARK UNBOUND:                -0.137
REMARK  Name = /home/anacleto/Desktop/manuscript_Mpro/naturecomm/supplementary_file_S2/6-chemical-library/molecular_docking/3D_ligand_structure/1169.pdb
REMARK  2 active torsions:
REMARK  status: ('A' for Active; 'I' for Inactive)
REMARK    1  A    between atoms: C4_5  and  C5_6
REMARK    2  A    between atoms: C5_6  and  C6_8
REMARK                            x       y       z     vdW  Elec       q    Type
REMARK                         _______ _______ _______ _____ _____    ______ ____
ROOT
ATOM      1  C5  UNL     1      20.676   6.923  11.762  0.00  0.00    +0.000 C 
ATOM      2  O1  UNL     1      21.845   6.655  12.034  0.00  0.00    +0.000 OA
ENDROOT
BRANCH   1   3
ATOM      3  C6  UNL     1      19.869   7.492  12.845  0.00  0.00    +0.000 A 
ATOM      4  C7  UNL     1      18.455   7.656  12.787  0.00  0.00    +0.000 A 
ATOM      5  N1  UNL     1      18.059   8.213  13.970  0.00  0.00    +0.000 N 
ATOM      6  O2  UNL     1      19.210   8.408  14.786  0.00  0.00    +0.000 OA
ATOM      7  N2  UNL     1      20.307   7.945  14.044  0.00  0.00    +0.000 NA
ATOM      8  H5  UNL     1      17.148   8.486  14.327  0.00  0.00    +0.000 HD
ENDBRANCH   1   3
BRANCH   1  13
ATOM      9  S1  UNL     1      19.545   5.104  10.082  0.00  0.00    +0.000 S 
ATOM     10  C1  UNL     1      18.998   5.543   8.529  0.00  0.00    +0.000 A 
ATOM     11  C2  UNL     1      19.205   6.877   8.272  0.00  0.00    +0.000 A 
ATOM     12  C3  UNL     1      19.823   7.547   9.372  0.00  0.00    +0.000 A 
ATOM     13  C4  UNL     1      20.075   6.709  10.448  0.00  0.00    +0.000 A 
ENDBRANCH   1  13
TORSDOF 2
ENDMDL
MODEL 5
REMARK VINA RESULT:    -4.117      2.181      2.585
REMARK INTER + INTRA:          -4.736
REMARK INTER:                  -4.587
REMARK INTRA:                  -0.149
REMARK UNBOUND:                -0.137
REMARK  Name = /home/anacleto/Desktop/manuscript_Mpro/naturecomm/supplementary_file_S2/6-chemical-library/molecular_docking/3D_ligand_structure/1169.pdb
REMARK  2 active torsions:
REMARK  status: ('A' for Active; 'I' for Inactive)
REMARK    1  A    between atoms: C4_5  and  C5_6
REMARK    2  A    between atoms: C5_6  and  C6_8
REMARK                            x       y       z     vdW  Elec       q    Type
REMARK                         _______ _______ _______ _____ _____    ______ ____
ROOT
ATOM      1  C5  UNL     1      18.878   5.762  11.377  0.00  0.00    +0.000 C 
ATOM      2  O1  UNL     1      18.894   4.558  11.127  0.00  0.00    +0.000 OA
ENDROOT
BRANCH   1   3
ATOM      3  C6  UNL     1      19.670   6.621  10.493  0.00  0.00    +0.000 A 
ATOM      4  C7  UNL     1      21.058   6.892  10.674  0.00  0.00    +0.000 A 
ATOM      5  N1  UNL     1      21.447   7.725   9.664  0.00  0.00    +0.000 N 
ATOM      6  O2  UNL     1      20.319   7.991   8.835  0.00  0.00    +0.000 OA
ATOM      7  N2  UNL     1      19.242   7.284   9.391  0.00  0.00    +0.000 NA
ATOM      8  H5  UNL     1      22.341   8.149   9.431  0.00  0.00    +0.000 HD
ENDBRANCH   1   3
BRANCH   1  13
ATOM      9  S1  UNL     1      17.012   5.329  13.311  0.00  0.00    +0.000 S 
ATOM     10  C1  UNL     1      16.533   6.565  14.380  0.00  0.00    +0.000 A 
ATOM     11  C2  UNL     1      17.193   7.744  14.129  0.00  0.00    +0.000 A 
ATOM     12  C3  UNL     1      18.109   7.625  13.039  0.00  0.00    +0.000 A 
ATOM     13  C4  UNL     1      18.128   6.356  12.481  0.00  0.00    +0.000 A 
ENDBRANCH   1  13
TORSDOF 2
ENDMDL
MODEL 6
REMARK VINA RESULT:    -3.894     17.213     18.870
REMARK INTER + INTRA:          -4.486
REMARK INTER:                  -4.385
REMARK INTRA:                  -0.102
REMARK UNBOUND:                -0.137
REMARK  Name = /home/anacleto/Desktop/manuscript_Mpro/naturecomm/supplementary_file_S2/6-chemical-library/molecular_docking/3D_ligand_structure/1169.pdb
REMARK  2 active torsions:
REMARK  status: ('A' for Active; 'I' for Inactive)
REMARK    1  A    between atoms: C4_5  and  C5_6
REMARK    2  A    between atoms: C5_6  and  C6_8
REMARK                            x       y       z     vdW  Elec       q    Type
REMARK                         _______ _______ _______ _____ _____    ______ ____
ROOT
ATOM      1  C5  UNL     1      15.162  13.557  -4.882  0.00  0.00    +0.000 C 
ATOM      2  O1  UNL     1      15.255  14.099  -3.783  0.00  0.00    +0.000 OA
ENDROOT
BRANCH   1   3
ATOM      3  C6  UNL     1      14.322  12.359  -4.947  0.00  0.00    +0.000 A 
ATOM      4  C7  UNL     1      14.626  11.133  -4.287  0.00  0.00    +0.000 A 
ATOM      5  N1  UNL     1      13.623  10.252  -4.578  0.00  0.00    +0.000 N 
ATOM      6  O2  UNL     1      12.677  10.904  -5.420  0.00  0.00    +0.000 OA
ATOM      7  N2  UNL     1      13.155  12.208  -5.620  0.00  0.00    +0.000 NA
ATOM      8  H5  UNL     1      13.461   9.285  -4.309  0.00  0.00    +0.000 HD
ENDBRANCH   1   3
BRANCH   1  13
ATOM      9  S1  UNL     1      16.857  15.420  -5.916  0.00  0.00    +0.000 S 
ATOM     10  C1  UNL     1      17.267  15.432  -7.569  0.00  0.00    +0.000 A 
ATOM     11  C2  UNL     1      16.646  14.418  -8.258  0.00  0.00    +0.000 A 
ATOM     12  C3  UNL     1      15.821  13.618  -7.409  0.00  0.00    +0.000 A 
ATOM     13  C4  UNL     1      15.829  14.040  -6.089  0.00  0.00    +0.000 A 
ENDBRANCH   1  13
TORSDOF 2
ENDMDL
MODEL 7
REMARK VINA RESULT:    -3.838     15.276     16.971
REMARK INTER + INTRA:          -4.424
REMARK INTER:                  -4.299
REMARK INTRA:                  -0.125
REMARK UNBOUND:                -0.137
REMARK  Name = /home/anacleto/Desktop/manuscript_Mpro/naturecomm/supplementary_file_S2/6-chemical-library/molecular_docking/3D_ligand_structure/1169.pdb
REMARK  2 active torsions:
REMARK  status: ('A' for Active; 'I' for Inactive)
REMARK    1  A    between atoms: C4_5  and  C5_6
REMARK    2  A    between atoms: C5_6  and  C6_8
REMARK                            x       y       z     vdW  Elec       q    Type
REMARK                         _______ _______ _______ _____ _____    ______ ____
ROOT
ATOM      1  C5  UNL     1      15.398  11.971  -3.693  0.00  0.00    +0.000 C 
ATOM      2  O1  UNL     1      14.949  12.845  -2.953  0.00  0.00    +0.000 OA
ENDROOT
BRANCH   1   3
ATOM      3  C6  UNL     1      16.550  11.220  -3.188  0.00  0.00    +0.000 A 
ATOM      4  C7  UNL     1      17.203  10.178  -3.909  0.00  0.00    +0.000 A 
ATOM      5  N1  UNL     1      18.223   9.717  -3.126  0.00  0.00    +0.000 N 
ATOM      6  O2  UNL     1      18.230  10.456  -1.908  0.00  0.00    +0.000 OA
ATOM      7  N2  UNL     1      17.173  11.375  -1.995  0.00  0.00    +0.000 NA
ATOM      8  H5  UNL     1      18.920   8.990  -3.266  0.00  0.00    +0.000 HD
ENDBRANCH   1   3
BRANCH   1  13
ATOM      9  S1  UNL     1      13.478  10.608  -5.059  0.00  0.00    +0.000 S 
ATOM     10  C1  UNL     1      13.379  10.670  -6.758  0.00  0.00    +0.000 A 
ATOM     11  C2  UNL     1      14.360  11.466  -7.299  0.00  0.00    +0.000 A 
ATOM     12  C3  UNL     1      15.205  12.034  -6.297  0.00  0.00    +0.000 A 
ATOM     13  C4  UNL     1      14.851  11.658  -5.011  0.00  0.00    +0.000 A 
ENDBRANCH   1  13
TORSDOF 2
ENDMDL
MODEL 8
REMARK VINA RESULT:    -3.806     14.996     17.142
REMARK INTER + INTRA:          -4.389
REMARK INTER:                  -4.245
REMARK INTRA:                  -0.143
REMARK UNBOUND:                -0.137
REMARK  Name = /home/anacleto/Desktop/manuscript_Mpro/naturecomm/supplementary_file_S2/6-chemical-library/molecular_docking/3D_ligand_structure/1169.pdb
REMARK  2 active torsions:
REMARK  status: ('A' for Active; 'I' for Inactive)
REMARK    1  A    between atoms: C4_5  and  C5_6
REMARK    2  A    between atoms: C5_6  and  C6_8
REMARK                            x       y       z     vdW  Elec       q    Type
REMARK                         _______ _______ _______ _____ _____    ______ ____
ROOT
ATOM      1  C5  UNL     1      14.624  13.556  -3.552  0.00  0.00    +0.000 C 
ATOM      2  O1  UNL     1      14.110  14.649  -3.317  0.00  0.00    +0.000 OA
ENDROOT
BRANCH   1   3
ATOM      3  C6  UNL     1      15.395  12.952  -2.463  0.00  0.00    +0.000 A 
ATOM      4  C7  UNL     1      16.335  13.660  -1.661  0.00  0.00    +0.000 A 
ATOM      5  N1  UNL     1      16.852  12.774  -0.758  0.00  0.00    +0.000 N 
ATOM      6  O2  UNL     1      16.250  11.502  -0.976  0.00  0.00    +0.000 OA
ATOM      7  N2  UNL     1      15.354  11.664  -2.044  0.00  0.00    +0.000 NA
ATOM      8  H5  UNL     1      17.541  12.874  -0.017  0.00  0.00    +0.000 HD
ENDBRANCH   1   3
BRANCH   1  13
ATOM      9  S1  UNL     1      15.751  13.129  -5.994  0.00  0.00    +0.000 S 
ATOM     10  C1  UNL     1      15.032  12.093  -7.138  0.00  0.00    +0.000 A 
ATOM     11  C2  UNL     1      13.866  11.540  -6.667  0.00  0.00    +0.000 A 
ATOM     12  C3  UNL     1      13.560  11.978  -5.342  0.00  0.00    +0.000 A 
ATOM     13  C4  UNL     1      14.502  12.856  -4.829  0.00  0.00    +0.000 A 
ENDBRANCH   1  13
TORSDOF 2
ENDMDL
MODEL 9
REMARK VINA RESULT:    -3.726      3.401      4.523
REMARK INTER + INTRA:          -4.300
REMARK INTER:                  -4.162
REMARK INTRA:                  -0.137
REMARK UNBOUND:                -0.137
REMARK  Name = /home/anacleto/Desktop/manuscript_Mpro/naturecomm/supplementary_file_S2/6-chemical-library/molecular_docking/3D_ligand_structure/1169.pdb
REMARK  2 active torsions:
REMARK  status: ('A' for Active; 'I' for Inactive)
REMARK    1  A    between atoms: C4_5  and  C5_6
REMARK    2  A    between atoms: C5_6  and  C6_8
REMARK                            x       y       z     vdW  Elec       q    Type
REMARK                         _______ _______ _______ _____ _____    ______ ____
ROOT
ATOM      1  C5  UNL     1      18.706   3.715   9.322  0.00  0.00    +0.000 C 
ATOM      2  O1  UNL     1      19.544   2.830   9.486  0.00  0.00    +0.000 OA
ENDROOT
BRANCH   1   3
ATOM      3  C6  UNL     1      17.309   3.282   9.238  0.00  0.00    +0.000 A 
ATOM      4  C7  UNL     1      16.693   2.797   8.049  0.00  0.00    +0.000 A 
ATOM      5  N1  UNL     1      15.396   2.494   8.354  0.00  0.00    +0.000 N 
ATOM      6  O2  UNL     1      15.176   2.781   9.732  0.00  0.00    +0.000 OA
ATOM      7  N2  UNL     1      16.392   3.268  10.236  0.00  0.00    +0.000 NA
ATOM      8  H5  UNL     1      14.629   2.126   7.798  0.00  0.00    +0.000 HD
ENDBRANCH   1   3
BRANCH   1  13
ATOM      9  S1  UNL     1      19.446   5.960  10.674  0.00  0.00    +0.000 S 
ATOM     10  C1  UNL     1      19.685   7.444   9.873  0.00  0.00    +0.000 A 
ATOM     11  C2  UNL     1      19.460   7.339   8.521  0.00  0.00    +0.000 A 
ATOM     12  C3  UNL     1      19.085   6.014   8.140  0.00  0.00    +0.000 A 
ATOM     13  C4  UNL     1      19.032   5.135   9.211  0.00  0.00    +0.000 A 
ENDBRANCH   1  13
TORSDOF 2
ENDMDL
