MODEL 1
REMARK VINA RESULT:    -4.477      0.000      0.000
REMARK INTER + INTRA:          -4.918
REMARK INTER:                  -4.738
REMARK INTRA:                  -0.179
REMARK UNBOUND:                -0.179
REMARK  Name = /home/anacleto/Desktop/manuscript_Mpro/naturecomm/supplementary_file_S2/6-chemical-library/molecular_docking/3D_ligand_structure/1307.pdb
REMARK  1 active torsions:
REMARK  status: ('A' for Active; 'I' for Inactive)
REMARK    1  A    between atoms: C4_5  and  C5_6
REMARK                            x       y       z     vdW  Elec       q    Type
REMARK                         _______ _______ _______ _____ _____    ______ ____
ROOT
ATOM      1  N1  UNL     1      23.877   5.927   9.553  0.00  0.00    +0.000 NA
ATOM      2  C1  UNL     1      25.060   5.069   9.453  0.00  0.00    +0.000 C 
ATOM      3  C2  UNL     1      24.694   3.946   8.496  0.00  0.00    +0.000 C 
ATOM      4  C3  UNL     1      23.217   4.147   8.200  0.00  0.00    +0.000 C 
ATOM      5  C4  UNL     1      22.722   5.027   9.347  0.00  0.00    +0.000 C 
ATOM      6  H1  UNL     1      23.888   6.591   8.776  0.00  0.00    +0.000 HD
ENDROOT
BRANCH   5   7
ATOM      7  C5  UNL     1      21.426   5.779   9.110  0.00  0.00    +0.000 A 
ATOM      8  C6  UNL     1      21.338   7.175   9.226  0.00  0.00    +0.000 A 
ATOM      9  C7  UNL     1      20.137   7.843   8.967  0.00  0.00    +0.000 A 
ATOM     10  C8  UNL     1      19.009   7.128   8.574  0.00  0.00    +0.000 A 
ATOM     11  C9  UNL     1      19.081   5.746   8.431  0.00  0.00    +0.000 A 
ATOM     12  C10 UNL     1      20.281   5.079   8.691  0.00  0.00    +0.000 A 
ENDBRANCH   5   7
TORSDOF 1
ENDMDL
MODEL 2
REMARK VINA RESULT:    -4.416     14.538     15.913
REMARK INTER + INTRA:          -4.853
REMARK INTER:                  -4.685
REMARK INTRA:                  -0.168
REMARK UNBOUND:                -0.179
REMARK  Name = /home/anacleto/Desktop/manuscript_Mpro/naturecomm/supplementary_file_S2/6-chemical-library/molecular_docking/3D_ligand_structure/1307.pdb
REMARK  1 active torsions:
REMARK  status: ('A' for Active; 'I' for Inactive)
REMARK    1  A    between atoms: C4_5  and  C5_6
REMARK                            x       y       z     vdW  Elec       q    Type
REMARK                         _______ _______ _______ _____ _____    ______ ____
ROOT
ATOM      1  N1  UNL     1      17.364   9.761  -3.964  0.00  0.00    +0.000 NA
ATOM      2  C1  UNL     1      18.282   9.888  -2.831  0.00  0.00    +0.000 C 
ATOM      3  C2  UNL     1      17.661  10.906  -1.888  0.00  0.00    +0.000 C 
ATOM      4  C3  UNL     1      16.444  11.436  -2.629  0.00  0.00    +0.000 C 
ATOM      5  C4  UNL     1      16.714  11.083  -4.092  0.00  0.00    +0.000 C 
ATOM      6  H1  UNL     1      16.637   9.086  -3.722  0.00  0.00    +0.000 HD
ENDROOT
BRANCH   5   7
ATOM      7  C5  UNL     1      15.510  11.060  -5.013  0.00  0.00    +0.000 A 
ATOM      8  C6  UNL     1      14.211  10.814  -4.542  0.00  0.00    +0.000 A 
ATOM      9  C7  UNL     1      13.116  10.833  -5.410  0.00  0.00    +0.000 A 
ATOM     10  C8  UNL     1      13.298  11.113  -6.762  0.00  0.00    +0.000 A 
ATOM     11  C9  UNL     1      14.575  11.382  -7.245  0.00  0.00    +0.000 A 
ATOM     12  C10 UNL     1      15.669  11.362  -6.377  0.00  0.00    +0.000 A 
ENDBRANCH   5   7
TORSDOF 1
ENDMDL
MODEL 3
REMARK VINA RESULT:    -4.266      3.545      5.391
REMARK INTER + INTRA:          -4.694
REMARK INTER:                  -4.526
REMARK INTRA:                  -0.168
REMARK UNBOUND:                -0.179
REMARK  Name = /home/anacleto/Desktop/manuscript_Mpro/naturecomm/supplementary_file_S2/6-chemical-library/molecular_docking/3D_ligand_structure/1307.pdb
REMARK  1 active torsions:
REMARK  status: ('A' for Active; 'I' for Inactive)
REMARK    1  A    between atoms: C4_5  and  C5_6
REMARK                            x       y       z     vdW  Elec       q    Type
REMARK                         _______ _______ _______ _____ _____    ______ ____
ROOT
ATOM      1  N1  UNL     1      20.097   7.397  13.076  0.00  0.00    +0.000 NA
ATOM      2  C1  UNL     1      19.677   8.001  14.342  0.00  0.00    +0.000 C 
ATOM      3  C2  UNL     1      18.158   7.945  14.361  0.00  0.00    +0.000 C 
ATOM      4  C3  UNL     1      17.767   7.422  12.989  0.00  0.00    +0.000 C 
ATOM      5  C4  UNL     1      19.001   7.681  12.125  0.00  0.00    +0.000 C 
ATOM      6  H1  UNL     1      20.140   6.384  13.196  0.00  0.00    +0.000 HD
ENDROOT
BRANCH   5   7
ATOM      7  C5  UNL     1      19.110   6.874  10.845  0.00  0.00    +0.000 A 
ATOM      8  C6  UNL     1      18.824   5.501  10.799  0.00  0.00    +0.000 A 
ATOM      9  C7  UNL     1      18.900   4.791   9.597  0.00  0.00    +0.000 A 
ATOM     10  C8  UNL     1      19.247   5.445   8.418  0.00  0.00    +0.000 A 
ATOM     11  C9  UNL     1      19.512   6.811   8.438  0.00  0.00    +0.000 A 
ATOM     12  C10 UNL     1      19.437   7.520   9.639  0.00  0.00    +0.000 A 
ENDBRANCH   5   7
TORSDOF 1
ENDMDL
MODEL 4
REMARK VINA RESULT:    -4.244      3.785      4.994
REMARK INTER + INTRA:          -4.672
REMARK INTER:                  -4.499
REMARK INTRA:                  -0.172
REMARK UNBOUND:                -0.179
REMARK  Name = /home/anacleto/Desktop/manuscript_Mpro/naturecomm/supplementary_file_S2/6-chemical-library/molecular_docking/3D_ligand_structure/1307.pdb
REMARK  1 active torsions:
REMARK  status: ('A' for Active; 'I' for Inactive)
REMARK    1  A    between atoms: C4_5  and  C5_6
REMARK                            x       y       z     vdW  Elec       q    Type
REMARK                         _______ _______ _______ _____ _____    ______ ____
ROOT
ATOM      1  N1  UNL     1      21.208   7.484  10.536  0.00  0.00    +0.000 NA
ATOM      2  C1  UNL     1      21.463   7.177   9.127  0.00  0.00    +0.000 C 
ATOM      3  C2  UNL     1      20.101   7.012   8.471  0.00  0.00    +0.000 C 
ATOM      4  C3  UNL     1      19.102   7.095   9.614  0.00  0.00    +0.000 C 
ATOM      5  C4  UNL     1      19.936   6.803  10.861  0.00  0.00    +0.000 C 
ATOM      6  H1  UNL     1      21.047   8.488  10.628  0.00  0.00    +0.000 HD
ENDROOT
BRANCH   5   7
ATOM      7  C5  UNL     1      19.349   7.254  12.185  0.00  0.00    +0.000 A 
ATOM      8  C6  UNL     1      17.968   7.249  12.433  0.00  0.00    +0.000 A 
ATOM      9  C7  UNL     1      17.459   7.639  13.675  0.00  0.00    +0.000 A 
ATOM     10  C8  UNL     1      18.323   8.025  14.696  0.00  0.00    +0.000 A 
ATOM     11  C9  UNL     1      19.697   8.015  14.479  0.00  0.00    +0.000 A 
ATOM     12  C10 UNL     1      20.205   7.627  13.236  0.00  0.00    +0.000 A 
ENDBRANCH   5   7
TORSDOF 1
ENDMDL
MODEL 5
REMARK VINA RESULT:    -4.207     14.456     15.938
REMARK INTER + INTRA:          -4.632
REMARK INTER:                  -4.459
REMARK INTRA:                  -0.173
REMARK UNBOUND:                -0.179
REMARK  Name = /home/anacleto/Desktop/manuscript_Mpro/naturecomm/supplementary_file_S2/6-chemical-library/molecular_docking/3D_ligand_structure/1307.pdb
REMARK  1 active torsions:
REMARK  status: ('A' for Active; 'I' for Inactive)
REMARK    1  A    between atoms: C4_5  and  C5_6
REMARK                            x       y       z     vdW  Elec       q    Type
REMARK                         _______ _______ _______ _____ _____    ______ ____
ROOT
ATOM      1  N1  UNL     1      15.282  11.060  -2.175  0.00  0.00    +0.000 NA
ATOM      2  C1  UNL     1      16.173  11.349  -1.050  0.00  0.00    +0.000 C 
ATOM      3  C2  UNL     1      17.262  12.262  -1.589  0.00  0.00    +0.000 C 
ATOM      4  C3  UNL     1      17.008  12.335  -3.086  0.00  0.00    +0.000 C 
ATOM      5  C4  UNL     1      16.141  11.111  -3.378  0.00  0.00    +0.000 C 
ATOM      6  H1  UNL     1      14.601  11.818  -2.256  0.00  0.00    +0.000 HD
ENDROOT
BRANCH   5   7
ATOM      7  C5  UNL     1      15.345  11.142  -4.668  0.00  0.00    +0.000 A 
ATOM      8  C6  UNL     1      15.908  11.551  -5.887  0.00  0.00    +0.000 A 
ATOM      9  C7  UNL     1      15.158  11.536  -7.066  0.00  0.00    +0.000 A 
ATOM     10  C8  UNL     1      13.837  11.097  -7.051  0.00  0.00    +0.000 A 
ATOM     11  C9  UNL     1      13.266  10.666  -5.858  0.00  0.00    +0.000 A 
ATOM     12  C10 UNL     1      14.016  10.682  -4.679  0.00  0.00    +0.000 A 
ENDBRANCH   5   7
TORSDOF 1
ENDMDL
MODEL 6
REMARK VINA RESULT:    -4.197      3.566      5.216
REMARK INTER + INTRA:          -4.621
REMARK INTER:                  -4.447
REMARK INTRA:                  -0.174
REMARK UNBOUND:                -0.179
REMARK  Name = /home/anacleto/Desktop/manuscript_Mpro/naturecomm/supplementary_file_S2/6-chemical-library/molecular_docking/3D_ligand_structure/1307.pdb
REMARK  1 active torsions:
REMARK  status: ('A' for Active; 'I' for Inactive)
REMARK    1  A    between atoms: C4_5  and  C5_6
REMARK                            x       y       z     vdW  Elec       q    Type
REMARK                         _______ _______ _______ _____ _____    ______ ____
ROOT
ATOM      1  N1  UNL     1      20.131   7.138  13.144  0.00  0.00    +0.000 NA
ATOM      2  C1  UNL     1      19.779   7.715  14.444  0.00  0.00    +0.000 C 
ATOM      3  C2  UNL     1      18.268   7.880  14.445  0.00  0.00    +0.000 C 
ATOM      4  C3  UNL     1      17.831   7.509  13.037  0.00  0.00    +0.000 C 
ATOM      5  C4  UNL     1      19.106   7.640  12.203  0.00  0.00    +0.000 C 
ATOM      6  H1  UNL     1      20.024   6.124  13.197  0.00  0.00    +0.000 HD
ENDROOT
BRANCH   5   7
ATOM      7  C5  UNL     1      19.120   6.911  10.874  0.00  0.00    +0.000 A 
ATOM      8  C6  UNL     1      19.464   7.548   9.672  0.00  0.00    +0.000 A 
ATOM      9  C7  UNL     1      19.501   6.841   8.468  0.00  0.00    +0.000 A 
ATOM     10  C8  UNL     1      19.211   5.479   8.446  0.00  0.00    +0.000 A 
ATOM     11  C9  UNL     1      18.890   4.822   9.630  0.00  0.00    +0.000 A 
ATOM     12  C10 UNL     1      18.851   5.531  10.833  0.00  0.00    +0.000 A 
ENDBRANCH   5   7
TORSDOF 1
ENDMDL
MODEL 7
REMARK VINA RESULT:    -4.177     14.336     16.041
REMARK INTER + INTRA:          -4.600
REMARK INTER:                  -4.432
REMARK INTRA:                  -0.168
REMARK UNBOUND:                -0.179
REMARK  Name = /home/anacleto/Desktop/manuscript_Mpro/naturecomm/supplementary_file_S2/6-chemical-library/molecular_docking/3D_ligand_structure/1307.pdb
REMARK  1 active torsions:
REMARK  status: ('A' for Active; 'I' for Inactive)
REMARK    1  A    between atoms: C4_5  and  C5_6
REMARK                            x       y       z     vdW  Elec       q    Type
REMARK                         _______ _______ _______ _____ _____    ______ ____
ROOT
ATOM      1  N1  UNL     1      13.901  10.304  -5.121  0.00  0.00    +0.000 NA
ATOM      2  C1  UNL     1      13.290  10.532  -6.433  0.00  0.00    +0.000 C 
ATOM      3  C2  UNL     1      14.308  11.312  -7.249  0.00  0.00    +0.000 C 
ATOM      4  C3  UNL     1      15.433  11.627  -6.277  0.00  0.00    +0.000 C 
ATOM      5  C4  UNL     1      14.794  11.462  -4.899  0.00  0.00    +0.000 C 
ATOM      6  H1  UNL     1      14.490   9.472  -5.175  0.00  0.00    +0.000 HD
ENDROOT
BRANCH   5   7
ATOM      7  C5  UNL     1      15.744  11.256  -3.735  0.00  0.00    +0.000 A 
ATOM      8  C6  UNL     1      16.968  10.583  -3.877  0.00  0.00    +0.000 A 
ATOM      9  C7  UNL     1      17.839  10.439  -2.794  0.00  0.00    +0.000 A 
ATOM     10  C8  UNL     1      17.508  10.978  -1.553  0.00  0.00    +0.000 A 
ATOM     11  C9  UNL     1      16.311  11.668  -1.396  0.00  0.00    +0.000 A 
ATOM     12  C10 UNL     1      15.440  11.811  -2.480  0.00  0.00    +0.000 A 
ENDBRANCH   5   7
TORSDOF 1
ENDMDL
MODEL 8
REMARK VINA RESULT:    -4.080     16.023     17.574
REMARK INTER + INTRA:          -4.497
REMARK INTER:                  -4.323
REMARK INTRA:                  -0.174
REMARK UNBOUND:                -0.179
REMARK  Name = /home/anacleto/Desktop/manuscript_Mpro/naturecomm/supplementary_file_S2/6-chemical-library/molecular_docking/3D_ligand_structure/1307.pdb
REMARK  1 active torsions:
REMARK  status: ('A' for Active; 'I' for Inactive)
REMARK    1  A    between atoms: C4_5  and  C5_6
REMARK                            x       y       z     vdW  Elec       q    Type
REMARK                         _______ _______ _______ _____ _____    ______ ____
ROOT
ATOM      1  N1  UNL     1      13.804  15.044  -3.533  0.00  0.00    +0.000 NA
ATOM      2  C1  UNL     1      14.093  15.711  -2.262  0.00  0.00    +0.000 C 
ATOM      3  C2  UNL     1      15.458  15.213  -1.817  0.00  0.00    +0.000 C 
ATOM      4  C3  UNL     1      15.831  14.136  -2.823  0.00  0.00    +0.000 C 
ATOM      5  C4  UNL     1      14.498  13.740  -3.457  0.00  0.00    +0.000 C 
ATOM      6  H1  UNL     1      14.240  15.576  -4.288  0.00  0.00    +0.000 HD
ENDROOT
BRANCH   5   7
ATOM      7  C5  UNL     1      14.572  13.035  -4.798  0.00  0.00    +0.000 A 
ATOM      8  C6  UNL     1      13.750  11.943  -5.117  0.00  0.00    +0.000 A 
ATOM      9  C7  UNL     1      13.818  11.335  -6.374  0.00  0.00    +0.000 A 
ATOM     10  C8  UNL     1      14.698  11.818  -7.339  0.00  0.00    +0.000 A 
ATOM     11  C9  UNL     1      15.506  12.914  -7.051  0.00  0.00    +0.000 A 
ATOM     12  C10 UNL     1      15.438  13.520  -5.794  0.00  0.00    +0.000 A 
ENDBRANCH   5   7
TORSDOF 1
ENDMDL
MODEL 9
REMARK VINA RESULT:    -3.927     14.739     16.351
REMARK INTER + INTRA:          -4.336
REMARK INTER:                  -4.157
REMARK INTRA:                  -0.179
REMARK UNBOUND:                -0.179
REMARK  Name = /home/anacleto/Desktop/manuscript_Mpro/naturecomm/supplementary_file_S2/6-chemical-library/molecular_docking/3D_ligand_structure/1307.pdb
REMARK  1 active torsions:
REMARK  status: ('A' for Active; 'I' for Inactive)
REMARK    1  A    between atoms: C4_5  and  C5_6
REMARK                            x       y       z     vdW  Elec       q    Type
REMARK                         _______ _______ _______ _____ _____    ______ ____
ROOT
ATOM      1  N1  UNL     1      13.587  12.980  -4.945  0.00  0.00    +0.000 NA
ATOM      2  C1  UNL     1      13.256  11.831  -5.791  0.00  0.00    +0.000 C 
ATOM      3  C2  UNL     1      13.805  10.604  -5.082  0.00  0.00    +0.000 C 
ATOM      4  C3  UNL     1      14.578  11.151  -3.893  0.00  0.00    +0.000 C 
ATOM      5  C4  UNL     1      14.844  12.611  -4.259  0.00  0.00    +0.000 C 
ATOM      6  H1  UNL     1      12.866  13.077  -4.228  0.00  0.00    +0.000 HD
ENDROOT
BRANCH   5   7
ATOM      7  C5  UNL     1      15.182  13.543  -3.112  0.00  0.00    +0.000 A 
ATOM      8  C6  UNL     1      14.421  14.687  -2.826  0.00  0.00    +0.000 A 
ATOM      9  C7  UNL     1      14.737  15.508  -1.740  0.00  0.00    +0.000 A 
ATOM     10  C8  UNL     1      15.811  15.191  -0.912  0.00  0.00    +0.000 A 
ATOM     11  C9  UNL     1      16.565  14.050  -1.164  0.00  0.00    +0.000 A 
ATOM     12  C10 UNL     1      16.248  13.230  -2.250  0.00  0.00    +0.000 A 
ENDBRANCH   5   7
TORSDOF 1
ENDMDL
