MODEL 1
REMARK VINA RESULT:    -4.605      0.000      0.000
REMARK INTER + INTRA:          -6.329
REMARK INTER:                  -6.087
REMARK INTRA:                  -0.242
REMARK UNBOUND:                -0.648
REMARK  Name = /home/anacleto/Desktop/manuscript_Mpro/naturecomm/supplementary_file_S2/6-chemical-library/molecular_docking/3D_ligand_structure/858.pdb
REMARK  4 active torsions:
REMARK  status: ('A' for Active; 'I' for Inactive)
REMARK    1  A    between atoms: C6_6  and  C7_7
REMARK    2  A    between atoms: C7_7  and  N1_8
REMARK    3  A    between atoms: N1_8  and  C8_9
REMARK    4  A    between atoms: C8_9  and  C9_10
REMARK                            x       y       z     vdW  Elec       q    Type
REMARK                         _______ _______ _______ _____ _____    ______ ____
ROOT
ATOM      1  N1  UNL     1      16.742   3.802   8.646  0.00  0.00    +0.000 NA
ATOM      2  H8  UNL     1      16.085   3.734   9.422  0.00  0.00    +0.000 HD
ENDROOT
BRANCH   1   3
ATOM      3  C7  UNL     1      18.097   3.688   9.190  0.00  0.00    +0.000 C 
BRANCH   3   9
ATOM      4  C1  UNL     1      18.942   5.555  10.683  0.00  0.00    +0.000 A 
ATOM      5  C2  UNL     1      19.494   6.824  10.860  0.00  0.00    +0.000 A 
ATOM      6  C3  UNL     1      19.807   7.611   9.754  0.00  0.00    +0.000 A 
ATOM      7  C4  UNL     1      19.566   7.132   8.467  0.00  0.00    +0.000 A 
ATOM      8  C5  UNL     1      19.015   5.863   8.288  0.00  0.00    +0.000 A 
ATOM      9  C6  UNL     1      18.703   5.057   9.394  0.00  0.00    +0.000 A 
ENDBRANCH   3   9
ENDBRANCH   1   3
BRANCH   1  10
ATOM     10  C8  UNL     1      16.444   2.750   7.676  0.00  0.00    +0.000 C 
BRANCH  10  11
ATOM     11  C9  UNL     1      15.414   1.763   8.153  0.00  0.00    +0.000 A 
ATOM     12  C10 UNL     1      15.248   0.519   7.539  0.00  0.00    +0.000 A 
ATOM     13  C11 UNL     1      14.293  -0.370   8.024  0.00  0.00    +0.000 A 
ATOM     14  C12 UNL     1      13.534   0.014   9.118  0.00  0.00    +0.000 A 
ATOM     15  N2  UNL     1      13.665   1.203   9.741  0.00  0.00    +0.000 NA
ATOM     16  C13 UNL     1      14.598   2.049   9.245  0.00  0.00    +0.000 A 
ENDBRANCH  10  11
ENDBRANCH   1  10
TORSDOF 4
ENDMDL
MODEL 2
REMARK VINA RESULT:    -4.600     15.513     16.824
REMARK INTER + INTRA:          -6.323
REMARK INTER:                  -5.821
REMARK INTRA:                  -0.502
REMARK UNBOUND:                -0.648
REMARK  Name = /home/anacleto/Desktop/manuscript_Mpro/naturecomm/supplementary_file_S2/6-chemical-library/molecular_docking/3D_ligand_structure/858.pdb
REMARK  4 active torsions:
REMARK  status: ('A' for Active; 'I' for Inactive)
REMARK    1  A    between atoms: C6_6  and  C7_7
REMARK    2  A    between atoms: C7_7  and  N1_8
REMARK    3  A    between atoms: N1_8  and  C8_9
REMARK    4  A    between atoms: C8_9  and  C9_10
REMARK                            x       y       z     vdW  Elec       q    Type
REMARK                         _______ _______ _______ _____ _____    ______ ____
ROOT
ATOM      1  N1  UNL     1      17.605  10.076  -4.283  0.00  0.00    +0.000 NA
ATOM      2  H8  UNL     1      17.262   9.464  -5.022  0.00  0.00    +0.000 HD
ENDROOT
BRANCH   1   3
ATOM      3  C7  UNL     1      18.993  10.425  -4.591  0.00  0.00    +0.000 C 
BRANCH   3   9
ATOM      4  C1  UNL     1      20.646   8.849  -5.690  0.00  0.00    +0.000 A 
ATOM      5  C2  UNL     1      21.098   8.128  -6.796  0.00  0.00    +0.000 A 
ATOM      6  C3  UNL     1      20.402   8.187  -8.002  0.00  0.00    +0.000 A 
ATOM      7  C4  UNL     1      19.252   8.968  -8.105  0.00  0.00    +0.000 A 
ATOM      8  C5  UNL     1      18.798   9.689  -7.000  0.00  0.00    +0.000 A 
ATOM      9  C6  UNL     1      19.487   9.633  -5.779  0.00  0.00    +0.000 A 
ENDBRANCH   3   9
ENDBRANCH   1   3
BRANCH   1  10
ATOM     10  C8  UNL     1      16.742  11.254  -4.203  0.00  0.00    +0.000 C 
BRANCH  10  11
ATOM     11  C9  UNL     1      15.520  11.168  -5.076  0.00  0.00    +0.000 A 
ATOM     12  C10 UNL     1      15.563  11.490  -6.435  0.00  0.00    +0.000 A 
ATOM     13  C11 UNL     1      14.410  11.379  -7.208  0.00  0.00    +0.000 A 
ATOM     14  C12 UNL     1      13.247  10.941  -6.596  0.00  0.00    +0.000 A 
ATOM     15  N2  UNL     1      13.165  10.617  -5.289  0.00  0.00    +0.000 NA
ATOM     16  C13 UNL     1      14.299  10.739  -4.561  0.00  0.00    +0.000 A 
ENDBRANCH  10  11
ENDBRANCH   1  10
TORSDOF 4
ENDMDL
MODEL 3
REMARK VINA RESULT:    -4.597      1.263      6.948
REMARK INTER + INTRA:          -6.319
REMARK INTER:                  -6.085
REMARK INTRA:                  -0.234
REMARK UNBOUND:                -0.648
REMARK  Name = /home/anacleto/Desktop/manuscript_Mpro/naturecomm/supplementary_file_S2/6-chemical-library/molecular_docking/3D_ligand_structure/858.pdb
REMARK  4 active torsions:
REMARK  status: ('A' for Active; 'I' for Inactive)
REMARK    1  A    between atoms: C6_6  and  C7_7
REMARK    2  A    between atoms: C7_7  and  N1_8
REMARK    3  A    between atoms: N1_8  and  C8_9
REMARK    4  A    between atoms: C8_9  and  C9_10
REMARK                            x       y       z     vdW  Elec       q    Type
REMARK                         _______ _______ _______ _____ _____    ______ ____
ROOT
ATOM      1  N1  UNL     1      16.573   3.521   8.891  0.00  0.00    +0.000 NA
ATOM      2  H8  UNL     1      16.227   4.479   8.932  0.00  0.00    +0.000 HD
ENDROOT
BRANCH   1   3
ATOM      3  C7  UNL     1      16.111   2.926   7.635  0.00  0.00    +0.000 C 
BRANCH   3   9
ATOM      4  C1  UNL     1      16.033   0.393   7.570  0.00  0.00    +0.000 A 
ATOM      5  C2  UNL     1      15.380  -0.817   7.809  0.00  0.00    +0.000 A 
ATOM      6  C3  UNL     1      14.106  -0.825   8.371  0.00  0.00    +0.000 A 
ATOM      7  C4  UNL     1      13.479   0.377   8.694  0.00  0.00    +0.000 A 
ATOM      8  C5  UNL     1      14.130   1.589   8.456  0.00  0.00    +0.000 A 
ATOM      9  C6  UNL     1      15.417   1.609   7.897  0.00  0.00    +0.000 A 
ENDBRANCH   3   9
ENDBRANCH   1   3
BRANCH   1  10
ATOM     10  C8  UNL     1      18.032   3.537   8.991  0.00  0.00    +0.000 C 
BRANCH  10  11
ATOM     11  C9  UNL     1      18.597   4.884   9.350  0.00  0.00    +0.000 A 
ATOM     12  C10 UNL     1      18.984   5.804   8.372  0.00  0.00    +0.000 A 
ATOM     13  C11 UNL     1      19.486   7.046   8.749  0.00  0.00    +0.000 A 
ATOM     14  C12 UNL     1      19.580   7.332  10.102  0.00  0.00    +0.000 A 
ATOM     15  N2  UNL     1      19.215   6.475  11.077  0.00  0.00    +0.000 NA
ATOM     16  C13 UNL     1      18.735   5.274  10.680  0.00  0.00    +0.000 A 
ENDBRANCH  10  11
ENDBRANCH   1  10
TORSDOF 4
ENDMDL
MODEL 4
REMARK VINA RESULT:    -4.481      5.234      6.762
REMARK INTER + INTRA:          -6.177
REMARK INTER:                  -5.320
REMARK INTRA:                  -0.857
REMARK UNBOUND:                -0.648
REMARK  Name = /home/anacleto/Desktop/manuscript_Mpro/naturecomm/supplementary_file_S2/6-chemical-library/molecular_docking/3D_ligand_structure/858.pdb
REMARK  4 active torsions:
REMARK  status: ('A' for Active; 'I' for Inactive)
REMARK    1  A    between atoms: C6_6  and  C7_7
REMARK    2  A    between atoms: C7_7  and  N1_8
REMARK    3  A    between atoms: N1_8  and  C8_9
REMARK    4  A    between atoms: C8_9  and  C9_10
REMARK                            x       y       z     vdW  Elec       q    Type
REMARK                         _______ _______ _______ _____ _____    ______ ____
ROOT
ATOM      1  N1  UNL     1      22.316   5.970  11.980  0.00  0.00    +0.000 NA
ATOM      2  H8  UNL     1      23.217   5.791  12.422  0.00  0.00    +0.000 HD
ENDROOT
BRANCH   1   3
ATOM      3  C7  UNL     1      22.378   5.470  10.606  0.00  0.00    +0.000 C 
BRANCH   3   9
ATOM      4  C1  UNL     1      20.274   5.109   9.239  0.00  0.00    +0.000 A 
ATOM      5  C2  UNL     1      19.203   5.599   8.490  0.00  0.00    +0.000 A 
ATOM      6  C3  UNL     1      19.059   6.970   8.289  0.00  0.00    +0.000 A 
ATOM      7  C4  UNL     1      19.987   7.856   8.835  0.00  0.00    +0.000 A 
ATOM      8  C5  UNL     1      21.058   7.368   9.585  0.00  0.00    +0.000 A 
ATOM      9  C6  UNL     1      21.210   5.989   9.800  0.00  0.00    +0.000 A 
ENDBRANCH   3   9
ENDBRANCH   1   3
BRANCH   1  10
ATOM     10  C8  UNL     1      21.266   5.317  12.760  0.00  0.00    +0.000 C 
BRANCH  10  11
ATOM     11  C9  UNL     1      20.162   6.247  13.185  0.00  0.00    +0.000 A 
ATOM     12  C10 UNL     1      18.929   6.272  12.529  0.00  0.00    +0.000 A 
ATOM     13  C11 UNL     1      17.929   7.137  12.967  0.00  0.00    +0.000 A 
ATOM     14  C12 UNL     1      18.196   7.949  14.057  0.00  0.00    +0.000 A 
ATOM     15  N2  UNL     1      19.370   7.952  14.721  0.00  0.00    +0.000 NA
ATOM     16  C13 UNL     1      20.324   7.105  14.270  0.00  0.00    +0.000 A 
ENDBRANCH  10  11
ENDBRANCH   1  10
TORSDOF 4
ENDMDL
MODEL 5
REMARK VINA RESULT:    -4.406     13.562     15.939
REMARK INTER + INTRA:          -6.084
REMARK INTER:                  -5.772
REMARK INTRA:                  -0.313
REMARK UNBOUND:                -0.648
REMARK  Name = /home/anacleto/Desktop/manuscript_Mpro/naturecomm/supplementary_file_S2/6-chemical-library/molecular_docking/3D_ligand_structure/858.pdb
REMARK  4 active torsions:
REMARK  status: ('A' for Active; 'I' for Inactive)
REMARK    1  A    between atoms: C6_6  and  C7_7
REMARK    2  A    between atoms: C7_7  and  N1_8
REMARK    3  A    between atoms: N1_8  and  C8_9
REMARK    4  A    between atoms: C8_9  and  C9_10
REMARK                            x       y       z     vdW  Elec       q    Type
REMARK                         _______ _______ _______ _____ _____    ______ ____
ROOT
ATOM      1  N1  UNL     1      15.353  11.360  -2.170  0.00  0.00    +0.000 NA
ATOM      2  H8  UNL     1      15.246  12.329  -2.467  0.00  0.00    +0.000 HD
ENDROOT
BRANCH   1   3
ATOM      3  C7  UNL     1      16.044  10.633  -3.236  0.00  0.00    +0.000 C 
BRANCH   3   9
ATOM      4  C1  UNL     1      14.056  10.860  -4.792  0.00  0.00    +0.000 A 
ATOM      5  C2  UNL     1      13.507  11.159  -6.040  0.00  0.00    +0.000 A 
ATOM      6  C3  UNL     1      14.333  11.557  -7.090  0.00  0.00    +0.000 A 
ATOM      7  C4  UNL     1      15.709  11.655  -6.895  0.00  0.00    +0.000 A 
ATOM      8  C5  UNL     1      16.260  11.358  -5.647  0.00  0.00    +0.000 A 
ATOM      9  C6  UNL     1      15.438  10.963  -4.580  0.00  0.00    +0.000 A 
ENDBRANCH   3   9
ENDBRANCH   1   3
BRANCH   1  10
ATOM     10  C8  UNL     1      16.092  11.328  -0.909  0.00  0.00    +0.000 C 
BRANCH  10  11
ATOM     11  C9  UNL     1      17.140  12.401  -0.795  0.00  0.00    +0.000 A 
ATOM     12  C10 UNL     1      18.504  12.105  -0.850  0.00  0.00    +0.000 A 
ATOM     13  C11 UNL     1      19.439  13.132  -0.759  0.00  0.00    +0.000 A 
ATOM     14  C12 UNL     1      18.977  14.431  -0.620  0.00  0.00    +0.000 A 
ATOM     15  N2  UNL     1      17.670  14.760  -0.566  0.00  0.00    +0.000 NA
ATOM     16  C13 UNL     1      16.784  13.740  -0.653  0.00  0.00    +0.000 A 
ENDBRANCH  10  11
ENDBRANCH   1  10
TORSDOF 4
ENDMDL
MODEL 6
REMARK VINA RESULT:    -4.330     13.741     15.147
REMARK INTER + INTRA:          -5.990
REMARK INTER:                  -5.714
REMARK INTRA:                  -0.276
REMARK UNBOUND:                -0.648
REMARK  Name = /home/anacleto/Desktop/manuscript_Mpro/naturecomm/supplementary_file_S2/6-chemical-library/molecular_docking/3D_ligand_structure/858.pdb
REMARK  4 active torsions:
REMARK  status: ('A' for Active; 'I' for Inactive)
REMARK    1  A    between atoms: C6_6  and  C7_7
REMARK    2  A    between atoms: C7_7  and  N1_8
REMARK    3  A    between atoms: N1_8  and  C8_9
REMARK    4  A    between atoms: C8_9  and  C9_10
REMARK                            x       y       z     vdW  Elec       q    Type
REMARK                         _______ _______ _______ _____ _____    ______ ____
ROOT
ATOM      1  N1  UNL     1      15.898  12.524  -2.287  0.00  0.00    +0.000 NA
ATOM      2  H8  UNL     1      14.994  12.059  -2.214  0.00  0.00    +0.000 HD
ENDROOT
BRANCH   1   3
ATOM      3  C7  UNL     1      16.741  12.053  -1.186  0.00  0.00    +0.000 C 
BRANCH   3   9
ATOM      4  C1  UNL     1      17.015  14.417  -0.315  0.00  0.00    +0.000 A 
ATOM      5  C2  UNL     1      17.808  15.456   0.174  0.00  0.00    +0.000 A 
ATOM      6  C3  UNL     1      19.180  15.274   0.331  0.00  0.00    +0.000 A 
ATOM      7  C4  UNL     1      19.764  14.053  -0.003  0.00  0.00    +0.000 A 
ATOM      8  C5  UNL     1      18.972  13.012  -0.491  0.00  0.00    +0.000 A 
ATOM      9  C6  UNL     1      17.588  13.181  -0.647  0.00  0.00    +0.000 A 
ENDBRANCH   3   9
ENDBRANCH   1   3
BRANCH   1  10
ATOM     10  C8  UNL     1      16.481  12.229  -3.595  0.00  0.00    +0.000 C 
BRANCH  10  11
ATOM     11  C9  UNL     1      15.468  11.815  -4.628  0.00  0.00    +0.000 A 
ATOM     12  C10 UNL     1      15.536  12.269  -5.947  0.00  0.00    +0.000 A 
ATOM     13  C11 UNL     1      14.587  11.847  -6.874  0.00  0.00    +0.000 A 
ATOM     14  C12 UNL     1      13.598  10.973  -6.450  0.00  0.00    +0.000 A 
ATOM     15  N2  UNL     1      13.499  10.508  -5.188  0.00  0.00    +0.000 NA
ATOM     16  C13 UNL     1      14.433  10.940  -4.307  0.00  0.00    +0.000 A 
ENDBRANCH  10  11
ENDBRANCH   1  10
TORSDOF 4
ENDMDL
MODEL 7
REMARK VINA RESULT:    -4.328     15.221     16.881
REMARK INTER + INTRA:          -5.988
REMARK INTER:                  -5.341
REMARK INTRA:                  -0.648
REMARK UNBOUND:                -0.648
REMARK  Name = /home/anacleto/Desktop/manuscript_Mpro/naturecomm/supplementary_file_S2/6-chemical-library/molecular_docking/3D_ligand_structure/858.pdb
REMARK  4 active torsions:
REMARK  status: ('A' for Active; 'I' for Inactive)
REMARK    1  A    between atoms: C6_6  and  C7_7
REMARK    2  A    between atoms: C7_7  and  N1_8
REMARK    3  A    between atoms: N1_8  and  C8_9
REMARK    4  A    between atoms: C8_9  and  C9_10
REMARK                            x       y       z     vdW  Elec       q    Type
REMARK                         _______ _______ _______ _____ _____    ______ ____
ROOT
ATOM      1  N1  UNL     1      17.354  12.645  -4.049  0.00  0.00    +0.000 NA
ATOM      2  H8  UNL     1      18.302  12.860  -4.355  0.00  0.00    +0.000 HD
ENDROOT
BRANCH   1   3
ATOM      3  C7  UNL     1      17.065  11.256  -4.411  0.00  0.00    +0.000 C 
BRANCH   3   9
ATOM      4  C1  UNL     1      15.659  11.485  -6.508  0.00  0.00    +0.000 A 
ATOM      5  C2  UNL     1      14.436  11.405  -7.175  0.00  0.00    +0.000 A 
ATOM      6  C3  UNL     1      13.290  11.008  -6.489  0.00  0.00    +0.000 A 
ATOM      7  C4  UNL     1      13.363  10.694  -5.133  0.00  0.00    +0.000 A 
ATOM      8  C5  UNL     1      14.586  10.773  -4.464  0.00  0.00    +0.000 A 
ATOM      9  C6  UNL     1      15.748  11.164  -5.146  0.00  0.00    +0.000 A 
ENDBRANCH   3   9
ENDBRANCH   1   3
BRANCH   1  10
ATOM     10  C8  UNL     1      17.256  12.873  -2.608  0.00  0.00    +0.000 C 
BRANCH  10  11
ATOM     11  C9  UNL     1      16.229  13.904  -2.228  0.00  0.00    +0.000 A 
ATOM     12  C10 UNL     1      15.073  14.105  -2.987  0.00  0.00    +0.000 A 
ATOM     13  C11 UNL     1      14.140  15.059  -2.589  0.00  0.00    +0.000 A 
ATOM     14  C12 UNL     1      14.393  15.782  -1.434  0.00  0.00    +0.000 A 
ATOM     15  N2  UNL     1      15.493  15.616  -0.671  0.00  0.00    +0.000 NA
ATOM     16  C13 UNL     1      16.384  14.686  -1.086  0.00  0.00    +0.000 A 
ENDBRANCH  10  11
ENDBRANCH   1  10
TORSDOF 4
ENDMDL
MODEL 8
REMARK VINA RESULT:    -4.266     13.308     14.649
REMARK INTER + INTRA:          -5.911
REMARK INTER:                  -5.542
REMARK INTRA:                  -0.369
REMARK UNBOUND:                -0.648
REMARK  Name = /home/anacleto/Desktop/manuscript_Mpro/naturecomm/supplementary_file_S2/6-chemical-library/molecular_docking/3D_ligand_structure/858.pdb
REMARK  4 active torsions:
REMARK  status: ('A' for Active; 'I' for Inactive)
REMARK    1  A    between atoms: C6_6  and  C7_7
REMARK    2  A    between atoms: C7_7  and  N1_8
REMARK    3  A    between atoms: N1_8  and  C8_9
REMARK    4  A    between atoms: C8_9  and  C9_10
REMARK                            x       y       z     vdW  Elec       q    Type
REMARK                         _______ _______ _______ _____ _____    ______ ____
ROOT
ATOM      1  N1  UNL     1      16.614  11.978  -0.704  0.00  0.00    +0.000 NA
ATOM      2  H8  UNL     1      16.515  11.592   0.235  0.00  0.00    +0.000 HD
ENDROOT
BRANCH   1   3
ATOM      3  C7  UNL     1      18.028  12.296  -0.916  0.00  0.00    +0.000 C 
BRANCH   3   9
ATOM      4  C1  UNL     1      19.657  13.979   0.053  0.00  0.00    +0.000 A 
ATOM      5  C2  UNL     1      19.945  15.239   0.578  0.00  0.00    +0.000 A 
ATOM      6  C3  UNL     1      18.936  16.191   0.707  0.00  0.00    +0.000 A 
ATOM      7  C4  UNL     1      17.634  15.884   0.314  0.00  0.00    +0.000 A 
ATOM      8  C5  UNL     1      17.344  14.624  -0.212  0.00  0.00    +0.000 A 
ATOM      9  C6  UNL     1      18.354  13.660  -0.354  0.00  0.00    +0.000 A 
ENDBRANCH   3   9
ENDBRANCH   1   3
BRANCH   1  10
ATOM     10  C8  UNL     1      16.114  11.005  -1.673  0.00  0.00    +0.000 C 
BRANCH  10  11
ATOM     11  C9  UNL     1      15.475  11.632  -2.883  0.00  0.00    +0.000 A 
ATOM     12  C10 UNL     1      15.317  10.927  -4.079  0.00  0.00    +0.000 A 
ATOM     13  C11 UNL     1      14.705  11.541  -5.168  0.00  0.00    +0.000 A 
ATOM     14  C12 UNL     1      14.261  12.846  -5.022  0.00  0.00    +0.000 A 
ATOM     15  N2  UNL     1      14.389  13.559  -3.884  0.00  0.00    +0.000 NA
ATOM     16  C13 UNL     1      14.993  12.938  -2.844  0.00  0.00    +0.000 A 
ENDBRANCH  10  11
ENDBRANCH   1  10
TORSDOF 4
ENDMDL
MODEL 9
REMARK VINA RESULT:    -4.240     15.701     16.916
REMARK INTER + INTRA:          -5.879
REMARK INTER:                  -5.434
REMARK INTRA:                  -0.445
REMARK UNBOUND:                -0.648
REMARK  Name = /home/anacleto/Desktop/manuscript_Mpro/naturecomm/supplementary_file_S2/6-chemical-library/molecular_docking/3D_ligand_structure/858.pdb
REMARK  4 active torsions:
REMARK  status: ('A' for Active; 'I' for Inactive)
REMARK    1  A    between atoms: C6_6  and  C7_7
REMARK    2  A    between atoms: C7_7  and  N1_8
REMARK    3  A    between atoms: N1_8  and  C8_9
REMARK    4  A    between atoms: C8_9  and  C9_10
REMARK                            x       y       z     vdW  Elec       q    Type
REMARK                         _______ _______ _______ _____ _____    ______ ____
ROOT
ATOM      1  N1  UNL     1      16.055  13.989  -2.602  0.00  0.00    +0.000 NA
ATOM      2  H8  UNL     1      16.664  13.759  -1.818  0.00  0.00    +0.000 HD
ENDROOT
BRANCH   1   3
ATOM      3  C7  UNL     1      16.041  15.446  -2.753  0.00  0.00    +0.000 C 
BRANCH   3   9
ATOM      4  C1  UNL     1      14.450  17.385  -2.386  0.00  0.00    +0.000 A 
ATOM      5  C2  UNL     1      13.197  17.889  -2.037  0.00  0.00    +0.000 A 
ATOM      6  C3  UNL     1      12.168  17.020  -1.678  0.00  0.00    +0.000 A 
ATOM      7  C4  UNL     1      12.391  15.644  -1.666  0.00  0.00    +0.000 A 
ATOM      8  C5  UNL     1      13.644  15.138  -2.015  0.00  0.00    +0.000 A 
ATOM      9  C6  UNL     1      14.686  16.003  -2.385  0.00  0.00    +0.000 A 
ENDBRANCH   3   9
ENDBRANCH   1   3
BRANCH   1  10
ATOM     10  C8  UNL     1      16.547  13.313  -3.802  0.00  0.00    +0.000 C 
BRANCH  10  11
ATOM     11  C9  UNL     1      15.489  12.534  -4.533  0.00  0.00    +0.000 A 
ATOM     12  C10 UNL     1      15.118  12.848  -5.843  0.00  0.00    +0.000 A 
ATOM     13  C11 UNL     1      14.145  12.088  -6.488  0.00  0.00    +0.000 A 
ATOM     14  C12 UNL     1      13.576  11.029  -5.799  0.00  0.00    +0.000 A 
ATOM     15  N2  UNL     1      13.909  10.690  -4.537  0.00  0.00    +0.000 NA
ATOM     16  C13 UNL     1      14.853  11.449  -3.933  0.00  0.00    +0.000 A 
ENDBRANCH  10  11
ENDBRANCH   1  10
TORSDOF 4
ENDMDL
