MODEL 1
REMARK VINA RESULT:    -5.387      0.000      0.000
REMARK INTER + INTRA:          -7.797
REMARK INTER:                  -6.941
REMARK INTRA:                  -0.855
REMARK UNBOUND:                -0.835
REMARK  Name = /home/anacleto/Desktop/manuscript_Mpro/naturecomm/supplementary_file_S2/6-chemical-library/molecular_docking/3D_ligand_structure/570.pdb
REMARK  5 active torsions:
REMARK  status: ('A' for Active; 'I' for Inactive)
REMARK    1  A    between atoms: C6_6  and  C7_7
REMARK    2  A    between atoms: N1_9  and  C8_10
REMARK    3  A    between atoms: C8_10  and  C9_11
REMARK    4  A    between atoms: C9_11  and  C10_12
REMARK    5  A    between atoms: C10_12  and  C11_13
REMARK                            x       y       z     vdW  Elec       q    Type
REMARK                         _______ _______ _______ _____ _____    ______ ____
ROOT
ATOM      1  C7  UNL     1     -24.394   4.871 -39.028  0.00  0.00    +0.000 C 
ATOM      2  O1  UNL     1     -24.484   4.642 -40.229  0.00  0.00    +0.000 OA
ATOM      3  N1  UNL     1     -24.915   4.042 -38.053  0.00  0.00    +0.000 N 
ATOM      4  H6  UNL     1     -24.617   4.170 -37.096  0.00  0.00    +0.000 HD
ENDROOT
BRANCH   1  10
ATOM      5  C1  UNL     1     -24.357   7.283 -38.446  0.00  0.00    +0.000 A 
ATOM      6  C2  UNL     1     -23.706   8.435 -38.001  0.00  0.00    +0.000 A 
ATOM      7  C3  UNL     1     -22.359   8.380 -37.645  0.00  0.00    +0.000 A 
ATOM      8  C4  UNL     1     -21.662   7.174 -37.726  0.00  0.00    +0.000 A 
ATOM      9  C5  UNL     1     -22.309   6.019 -38.173  0.00  0.00    +0.000 A 
ATOM     10  C6  UNL     1     -23.659   6.073 -38.547  0.00  0.00    +0.000 A 
ENDBRANCH   1  10
BRANCH   3  11
ATOM     11  C8  UNL     1     -25.556   2.790 -38.398  0.00  0.00    +0.000 C 
BRANCH  11  12
ATOM     12  C9  UNL     1     -27.034   2.790 -38.016  0.00  0.00    +0.000 C 
BRANCH  12  13
ATOM     13  C10 UNL     1     -27.894   3.329 -39.159  0.00  0.00    +0.000 C 
BRANCH  13  14
ATOM     14  C11 UNL     1     -28.480   4.679 -38.829  0.00  0.00    +0.000 A 
ATOM     15  C12 UNL     1     -29.726   4.774 -38.195  0.00  0.00    +0.000 A 
ATOM     16  C13 UNL     1     -30.263   6.021 -37.874  0.00  0.00    +0.000 A 
ATOM     17  C14 UNL     1     -29.559   7.185 -38.180  0.00  0.00    +0.000 A 
ATOM     18  C15 UNL     1     -28.317   7.101 -38.806  0.00  0.00    +0.000 A 
ATOM     19  C16 UNL     1     -27.777   5.854 -39.127  0.00  0.00    +0.000 A 
ENDBRANCH  13  14
ENDBRANCH  12  13
ENDBRANCH  11  12
ENDBRANCH   3  11
TORSDOF 5
ENDMDL
MODEL 2
REMARK VINA RESULT:    -5.349      2.216      7.500
REMARK INTER + INTRA:          -7.747
REMARK INTER:                  -7.330
REMARK INTRA:                  -0.417
REMARK UNBOUND:                -0.835
REMARK  Name = /home/anacleto/Desktop/manuscript_Mpro/naturecomm/supplementary_file_S2/6-chemical-library/molecular_docking/3D_ligand_structure/570.pdb
REMARK  5 active torsions:
REMARK  status: ('A' for Active; 'I' for Inactive)
REMARK    1  A    between atoms: C6_6  and  C7_7
REMARK    2  A    between atoms: N1_9  and  C8_10
REMARK    3  A    between atoms: C8_10  and  C9_11
REMARK    4  A    between atoms: C9_11  and  C10_12
REMARK    5  A    between atoms: C10_12  and  C11_13
REMARK                            x       y       z     vdW  Elec       q    Type
REMARK                         _______ _______ _______ _____ _____    ______ ____
ROOT
ATOM      1  C7  UNL     1     -25.227   5.740 -39.058  0.00  0.00    +0.000 C 
ATOM      2  O1  UNL     1     -25.628   6.899 -39.046  0.00  0.00    +0.000 OA
ATOM      3  N1  UNL     1     -23.904   5.393 -39.252  0.00  0.00    +0.000 N 
ATOM      4  H6  UNL     1     -23.610   4.452 -39.030  0.00  0.00    +0.000 HD
ENDROOT
BRANCH   1  10
ATOM      5  C1  UNL     1     -25.656   3.395 -38.368  0.00  0.00    +0.000 A 
ATOM      6  C2  UNL     1     -26.508   2.315 -38.128  0.00  0.00    +0.000 A 
ATOM      7  C3  UNL     1     -27.881   2.457 -38.323  0.00  0.00    +0.000 A 
ATOM      8  C4  UNL     1     -28.407   3.676 -38.751  0.00  0.00    +0.000 A 
ATOM      9  C5  UNL     1     -27.557   4.759 -38.994  0.00  0.00    +0.000 A 
ATOM     10  C6  UNL     1     -26.174   4.617 -38.814  0.00  0.00    +0.000 A 
ENDBRANCH   1  10
BRANCH   3  11
ATOM     11  C8  UNL     1     -22.877   6.405 -39.391  0.00  0.00    +0.000 C 
BRANCH  11  12
ATOM     12  C9  UNL     1     -21.868   6.342 -38.248  0.00  0.00    +0.000 C 
BRANCH  12  13
ATOM     13  C10 UNL     1     -21.695   7.713 -37.595  0.00  0.00    +0.000 C 
BRANCH  13  14
ATOM     14  C11 UNL     1     -20.429   8.394 -38.052  0.00  0.00    +0.000 A 
ATOM     15  C12 UNL     1     -19.448   7.672 -38.745  0.00  0.00    +0.000 A 
ATOM     16  C13 UNL     1     -18.283   8.303 -39.184  0.00  0.00    +0.000 A 
ATOM     17  C14 UNL     1     -18.089   9.661 -38.938  0.00  0.00    +0.000 A 
ATOM     18  C15 UNL     1     -19.061  10.389 -38.255  0.00  0.00    +0.000 A 
ATOM     19  C16 UNL     1     -20.227   9.761 -37.816  0.00  0.00    +0.000 A 
ENDBRANCH  13  14
ENDBRANCH  12  13
ENDBRANCH  11  12
ENDBRANCH   3  11
TORSDOF 5
ENDMDL
MODEL 3
REMARK VINA RESULT:    -5.283      2.423      4.147
REMARK INTER + INTRA:          -7.662
REMARK INTER:                  -7.315
REMARK INTRA:                  -0.347
REMARK UNBOUND:                -0.835
REMARK  Name = /home/anacleto/Desktop/manuscript_Mpro/naturecomm/supplementary_file_S2/6-chemical-library/molecular_docking/3D_ligand_structure/570.pdb
REMARK  5 active torsions:
REMARK  status: ('A' for Active; 'I' for Inactive)
REMARK    1  A    between atoms: C6_6  and  C7_7
REMARK    2  A    between atoms: N1_9  and  C8_10
REMARK    3  A    between atoms: C8_10  and  C9_11
REMARK    4  A    between atoms: C9_11  and  C10_12
REMARK    5  A    between atoms: C10_12  and  C11_13
REMARK                            x       y       z     vdW  Elec       q    Type
REMARK                         _______ _______ _______ _____ _____    ______ ____
ROOT
ATOM      1  C7  UNL     1     -22.039   7.787 -37.930  0.00  0.00    +0.000 C 
ATOM      2  O1  UNL     1     -22.971   8.470 -37.520  0.00  0.00    +0.000 OA
ATOM      3  N1  UNL     1     -22.140   6.432 -38.180  0.00  0.00    +0.000 N 
ATOM      4  H6  UNL     1     -21.414   5.981 -38.720  0.00  0.00    +0.000 HD
ENDROOT
BRANCH   1  10
ATOM      5  C1  UNL     1     -19.727   7.628 -38.817  0.00  0.00    +0.000 A 
ATOM      6  C2  UNL     1     -18.478   8.177 -39.111  0.00  0.00    +0.000 A 
ATOM      7  C3  UNL     1     -18.222   9.517 -38.825  0.00  0.00    +0.000 A 
ATOM      8  C4  UNL     1     -19.215  10.313 -38.252  0.00  0.00    +0.000 A 
ATOM      9  C5  UNL     1     -20.466   9.767 -37.956  0.00  0.00    +0.000 A 
ATOM     10  C6  UNL     1     -20.723   8.416 -38.226  0.00  0.00    +0.000 A 
ENDBRANCH   1  10
BRANCH   3  11
ATOM     11  C8  UNL     1     -23.401   5.734 -38.032  0.00  0.00    +0.000 C 
BRANCH  11  12
ATOM     12  C9  UNL     1     -24.313   5.958 -39.236  0.00  0.00    +0.000 C 
BRANCH  12  13
ATOM     13  C10 UNL     1     -24.597   4.642 -39.959  0.00  0.00    +0.000 C 
BRANCH  13  14
ATOM     14  C11 UNL     1     -25.799   3.937 -39.382  0.00  0.00    +0.000 A 
ATOM     15  C12 UNL     1     -25.632   2.855 -38.508  0.00  0.00    +0.000 A 
ATOM     16  C13 UNL     1     -26.742   2.211 -37.959  0.00  0.00    +0.000 A 
ATOM     17  C14 UNL     1     -28.028   2.643 -38.278  0.00  0.00    +0.000 A 
ATOM     18  C15 UNL     1     -28.205   3.721 -39.143  0.00  0.00    +0.000 A 
ATOM     19  C16 UNL     1     -27.097   4.368 -39.691  0.00  0.00    +0.000 A 
ENDBRANCH  13  14
ENDBRANCH  12  13
ENDBRANCH  11  12
ENDBRANCH   3  11
TORSDOF 5
ENDMDL
MODEL 4
REMARK VINA RESULT:    -4.977      1.912      6.360
REMARK INTER + INTRA:          -7.266
REMARK INTER:                  -6.468
REMARK INTRA:                  -0.798
REMARK UNBOUND:                -0.835
REMARK  Name = /home/anacleto/Desktop/manuscript_Mpro/naturecomm/supplementary_file_S2/6-chemical-library/molecular_docking/3D_ligand_structure/570.pdb
REMARK  5 active torsions:
REMARK  status: ('A' for Active; 'I' for Inactive)
REMARK    1  A    between atoms: C6_6  and  C7_7
REMARK    2  A    between atoms: N1_9  and  C8_10
REMARK    3  A    between atoms: C8_10  and  C9_11
REMARK    4  A    between atoms: C9_11  and  C10_12
REMARK    5  A    between atoms: C10_12  and  C11_13
REMARK                            x       y       z     vdW  Elec       q    Type
REMARK                         _______ _______ _______ _____ _____    ______ ____
ROOT
ATOM      1  C7  UNL     1     -27.464   6.397 -39.057  0.00  0.00    +0.000 C 
ATOM      2  O1  UNL     1     -28.519   6.917 -38.712  0.00  0.00    +0.000 OA
ATOM      3  N1  UNL     1     -26.433   7.092 -39.658  0.00  0.00    +0.000 N 
ATOM      4  H6  UNL     1     -25.521   6.660 -39.713  0.00  0.00    +0.000 HD
ENDROOT
BRANCH   1  10
ATOM      5  C1  UNL     1     -25.900   4.488 -38.800  0.00  0.00    +0.000 A 
ATOM      6  C2  UNL     1     -25.627   3.139 -38.564  0.00  0.00    +0.000 A 
ATOM      7  C3  UNL     1     -26.673   2.251 -38.316  0.00  0.00    +0.000 A 
ATOM      8  C4  UNL     1     -27.991   2.708 -38.296  0.00  0.00    +0.000 A 
ATOM      9  C5  UNL     1     -28.268   4.057 -38.533  0.00  0.00    +0.000 A 
ATOM     10  C6  UNL     1     -27.221   4.951 -38.799  0.00  0.00    +0.000 A 
ENDBRANCH   1  10
BRANCH   3  11
ATOM     11  C8  UNL     1     -26.513   8.524 -39.861  0.00  0.00    +0.000 C 
BRANCH  11  12
ATOM     12  C9  UNL     1     -25.300   9.244 -39.276  0.00  0.00    +0.000 C 
BRANCH  12  13
ATOM     13  C10 UNL     1     -24.894   8.630 -37.936  0.00  0.00    +0.000 C 
BRANCH  13  14
ATOM     14  C11 UNL     1     -23.455   8.180 -37.942  0.00  0.00    +0.000 A 
ATOM     15  C12 UNL     1     -22.441   9.047 -37.511  0.00  0.00    +0.000 A 
ATOM     16  C13 UNL     1     -21.110   8.628 -37.500  0.00  0.00    +0.000 A 
ATOM     17  C14 UNL     1     -20.779   7.340 -37.917  0.00  0.00    +0.000 A 
ATOM     18  C15 UNL     1     -21.780   6.469 -38.342  0.00  0.00    +0.000 A 
ATOM     19  C16 UNL     1     -23.112   6.885 -38.353  0.00  0.00    +0.000 A 
ENDBRANCH  13  14
ENDBRANCH  12  13
ENDBRANCH  11  12
ENDBRANCH   3  11
TORSDOF 5
ENDMDL
MODEL 5
REMARK VINA RESULT:    -4.879      1.628      7.060
REMARK INTER + INTRA:          -7.139
REMARK INTER:                  -6.849
REMARK INTRA:                  -0.291
REMARK UNBOUND:                -0.835
REMARK  Name = /home/anacleto/Desktop/manuscript_Mpro/naturecomm/supplementary_file_S2/6-chemical-library/molecular_docking/3D_ligand_structure/570.pdb
REMARK  5 active torsions:
REMARK  status: ('A' for Active; 'I' for Inactive)
REMARK    1  A    between atoms: C6_6  and  C7_7
REMARK    2  A    between atoms: N1_9  and  C8_10
REMARK    3  A    between atoms: C8_10  and  C9_11
REMARK    4  A    between atoms: C9_11  and  C10_12
REMARK    5  A    between atoms: C10_12  and  C11_13
REMARK                            x       y       z     vdW  Elec       q    Type
REMARK                         _______ _______ _______ _____ _____    ______ ____
ROOT
ATOM      1  C7  UNL     1     -26.647   4.122 -39.193  0.00  0.00    +0.000 C 
ATOM      2  O1  UNL     1     -26.233   3.019 -39.533  0.00  0.00    +0.000 OA
ATOM      3  N1  UNL     1     -25.819   5.166 -38.828  0.00  0.00    +0.000 N 
ATOM      4  H6  UNL     1     -26.206   6.098 -38.777  0.00  0.00    +0.000 HD
ENDROOT
BRANCH   1  10
ATOM      5  C1  UNL     1     -28.891   3.858 -40.220  0.00  0.00    +0.000 A 
ATOM      6  C2  UNL     1     -30.264   4.102 -40.263  0.00  0.00    +0.000 A 
ATOM      7  C3  UNL     1     -30.862   4.888 -39.279  0.00  0.00    +0.000 A 
ATOM      8  C4  UNL     1     -30.092   5.426 -38.247  0.00  0.00    +0.000 A 
ATOM      9  C5  UNL     1     -28.716   5.185 -38.202  0.00  0.00    +0.000 A 
ATOM     10  C6  UNL     1     -28.108   4.409 -39.198  0.00  0.00    +0.000 A 
ENDBRANCH   1  10
BRANCH   3  11
ATOM     11  C8  UNL     1     -24.378   5.037 -38.891  0.00  0.00    +0.000 C 
BRANCH  11  12
ATOM     12  C9  UNL     1     -23.679   6.314 -38.431  0.00  0.00    +0.000 C 
BRANCH  12  13
ATOM     13  C10 UNL     1     -22.276   6.011 -37.906  0.00  0.00    +0.000 C 
BRANCH  13  14
ATOM     14  C11 UNL     1     -21.357   7.198 -38.049  0.00  0.00    +0.000 A 
ATOM     15  C12 UNL     1     -21.592   8.368 -37.314  0.00  0.00    +0.000 A 
ATOM     16  C13 UNL     1     -20.735   9.462 -37.432  0.00  0.00    +0.000 A 
ATOM     17  C14 UNL     1     -19.634   9.398 -38.284  0.00  0.00    +0.000 A 
ATOM     18  C15 UNL     1     -19.388   8.238 -39.016  0.00  0.00    +0.000 A 
ATOM     19  C16 UNL     1     -20.244   7.142 -38.899  0.00  0.00    +0.000 A 
ENDBRANCH  13  14
ENDBRANCH  12  13
ENDBRANCH  11  12
ENDBRANCH   3  11
TORSDOF 5
ENDMDL
MODEL 6
REMARK VINA RESULT:    -4.801     12.984     15.615
REMARK INTER + INTRA:          -7.039
REMARK INTER:                  -6.462
REMARK INTRA:                  -0.577
REMARK UNBOUND:                -0.835
REMARK  Name = /home/anacleto/Desktop/manuscript_Mpro/naturecomm/supplementary_file_S2/6-chemical-library/molecular_docking/3D_ligand_structure/570.pdb
REMARK  5 active torsions:
REMARK  status: ('A' for Active; 'I' for Inactive)
REMARK    1  A    between atoms: C6_6  and  C7_7
REMARK    2  A    between atoms: N1_9  and  C8_10
REMARK    3  A    between atoms: C8_10  and  C9_11
REMARK    4  A    between atoms: C9_11  and  C10_12
REMARK    5  A    between atoms: C10_12  and  C11_13
REMARK                            x       y       z     vdW  Elec       q    Type
REMARK                         _______ _______ _______ _____ _____    ______ ____
ROOT
ATOM      1  C7  UNL     1     -38.492  -2.261 -34.340  0.00  0.00    +0.000 C 
ATOM      2  O1  UNL     1     -39.526  -1.723 -33.960  0.00  0.00    +0.000 OA
ATOM      3  N1  UNL     1     -37.977  -3.409 -33.771  0.00  0.00    +0.000 N 
ATOM      4  H6  UNL     1     -37.257  -3.917 -34.266  0.00  0.00    +0.000 HD
ENDROOT
BRANCH   1  10
ATOM      5  C1  UNL     1     -38.465  -1.107 -36.537  0.00  0.00    +0.000 A 
ATOM      6  C2  UNL     1     -37.800  -0.573 -37.643  0.00  0.00    +0.000 A 
ATOM      7  C3  UNL     1     -36.409  -0.626 -37.709  0.00  0.00    +0.000 A 
ATOM      8  C4  UNL     1     -35.678  -1.204 -36.670  0.00  0.00    +0.000 A 
ATOM      9  C5  UNL     1     -36.341  -1.740 -35.562  0.00  0.00    +0.000 A 
ATOM     10  C6  UNL     1     -37.740  -1.704 -35.498  0.00  0.00    +0.000 A 
ENDBRANCH   1  10
BRANCH   3  11
ATOM     11  C8  UNL     1     -38.680  -4.100 -32.709  0.00  0.00    +0.000 C 
BRANCH  11  12
ATOM     12  C9  UNL     1     -38.196  -3.654 -31.331  0.00  0.00    +0.000 C 
BRANCH  12  13
ATOM     13  C10 UNL     1     -39.257  -2.812 -30.625  0.00  0.00    +0.000 C 
BRANCH  13  14
ATOM     14  C11 UNL     1     -38.676  -1.537 -30.065  0.00  0.00    +0.000 A 
ATOM     15  C12 UNL     1     -37.413  -1.542 -29.458  0.00  0.00    +0.000 A 
ATOM     16  C13 UNL     1     -36.866  -0.362 -28.954  0.00  0.00    +0.000 A 
ATOM     17  C14 UNL     1     -37.574   0.834 -29.052  0.00  0.00    +0.000 A 
ATOM     18  C15 UNL     1     -38.829   0.851 -29.659  0.00  0.00    +0.000 A 
ATOM     19  C16 UNL     1     -39.377  -0.328 -30.165  0.00  0.00    +0.000 A 
ENDBRANCH  13  14
ENDBRANCH  12  13
ENDBRANCH  11  12
ENDBRANCH   3  11
TORSDOF 5
ENDMDL
MODEL 7
REMARK VINA RESULT:    -4.730     13.811     15.569
REMARK INTER + INTRA:          -6.947
REMARK INTER:                  -5.739
REMARK INTRA:                  -1.207
REMARK UNBOUND:                -0.835
REMARK  Name = /home/anacleto/Desktop/manuscript_Mpro/naturecomm/supplementary_file_S2/6-chemical-library/molecular_docking/3D_ligand_structure/570.pdb
REMARK  5 active torsions:
REMARK  status: ('A' for Active; 'I' for Inactive)
REMARK    1  A    between atoms: C6_6  and  C7_7
REMARK    2  A    between atoms: N1_9  and  C8_10
REMARK    3  A    between atoms: C8_10  and  C9_11
REMARK    4  A    between atoms: C9_11  and  C10_12
REMARK    5  A    between atoms: C10_12  and  C11_13
REMARK                            x       y       z     vdW  Elec       q    Type
REMARK                         _______ _______ _______ _____ _____    ______ ____
ROOT
ATOM      1  C7  UNL     1     -24.525  -4.632 -29.087  0.00  0.00    +0.000 C 
ATOM      2  O1  UNL     1     -25.130  -5.641 -29.430  0.00  0.00    +0.000 OA
ATOM      3  N1  UNL     1     -25.152  -3.475 -28.665  0.00  0.00    +0.000 N 
ATOM      4  H6  UNL     1     -24.605  -2.770 -28.191  0.00  0.00    +0.000 HD
ENDROOT
BRANCH   1  10
ATOM      5  C1  UNL     1     -22.389  -3.699 -28.234  0.00  0.00    +0.000 A 
ATOM      6  C2  UNL     1     -20.995  -3.652 -28.188  0.00  0.00    +0.000 A 
ATOM      7  C3  UNL     1     -20.243  -4.530 -28.968  0.00  0.00    +0.000 A 
ATOM      8  C4  UNL     1     -20.881  -5.461 -29.788  0.00  0.00    +0.000 A 
ATOM      9  C5  UNL     1     -22.276  -5.510 -29.839  0.00  0.00    +0.000 A 
ATOM     10  C6  UNL     1     -23.037  -4.619 -29.069  0.00  0.00    +0.000 A 
ENDBRANCH   1  10
BRANCH   3  11
ATOM     11  C8  UNL     1     -26.594  -3.408 -28.537  0.00  0.00    +0.000 C 
BRANCH  11  12
ATOM     12  C9  UNL     1     -27.026  -3.346 -27.074  0.00  0.00    +0.000 C 
BRANCH  12  13
ATOM     13  C10 UNL     1     -26.777  -4.681 -26.374  0.00  0.00    +0.000 C 
BRANCH  13  14
ATOM     14  C11 UNL     1     -25.393  -4.749 -25.778  0.00  0.00    +0.000 A 
ATOM     15  C12 UNL     1     -24.835  -3.625 -25.153  0.00  0.00    +0.000 A 
ATOM     16  C13 UNL     1     -23.562  -3.689 -24.587  0.00  0.00    +0.000 A 
ATOM     17  C14 UNL     1     -22.833  -4.876 -24.639  0.00  0.00    +0.000 A 
ATOM     18  C15 UNL     1     -23.380  -6.001 -25.254  0.00  0.00    +0.000 A 
ATOM     19  C16 UNL     1     -24.654  -5.939 -25.819  0.00  0.00    +0.000 A 
ENDBRANCH  13  14
ENDBRANCH  12  13
ENDBRANCH  11  12
ENDBRANCH   3  11
TORSDOF 5
ENDMDL
MODEL 8
REMARK VINA RESULT:    -4.692     12.106     14.061
REMARK INTER + INTRA:          -6.898
REMARK INTER:                  -6.045
REMARK INTRA:                  -0.853
REMARK UNBOUND:                -0.835
REMARK  Name = /home/anacleto/Desktop/manuscript_Mpro/naturecomm/supplementary_file_S2/6-chemical-library/molecular_docking/3D_ligand_structure/570.pdb
REMARK  5 active torsions:
REMARK  status: ('A' for Active; 'I' for Inactive)
REMARK    1  A    between atoms: C6_6  and  C7_7
REMARK    2  A    between atoms: N1_9  and  C8_10
REMARK    3  A    between atoms: C8_10  and  C9_11
REMARK    4  A    between atoms: C9_11  and  C10_12
REMARK    5  A    between atoms: C10_12  and  C11_13
REMARK                            x       y       z     vdW  Elec       q    Type
REMARK                         _______ _______ _______ _____ _____    ______ ____
ROOT
ATOM      1  C7  UNL     1     -35.761  12.942 -35.154  0.00  0.00    +0.000 C 
ATOM      2  O1  UNL     1     -36.096  14.069 -34.806  0.00  0.00    +0.000 OA
ATOM      3  N1  UNL     1     -34.504  12.417 -34.926  0.00  0.00    +0.000 N 
ATOM      4  H6  UNL     1     -34.365  11.422 -35.036  0.00  0.00    +0.000 HD
ENDROOT
BRANCH   1  10
ATOM      5  C1  UNL     1     -36.810  12.068 -37.226  0.00  0.00    +0.000 A 
ATOM      6  C2  UNL     1     -37.714  11.243 -37.899  0.00  0.00    +0.000 A 
ATOM      7  C3  UNL     1     -38.541  10.384 -37.177  0.00  0.00    +0.000 A 
ATOM      8  C4  UNL     1     -38.462  10.341 -35.784  0.00  0.00    +0.000 A 
ATOM      9  C5  UNL     1     -37.560  11.167 -35.108  0.00  0.00    +0.000 A 
ATOM     10  C6  UNL     1     -36.738  12.044 -35.828  0.00  0.00    +0.000 A 
ENDBRANCH   1  10
BRANCH   3  11
ATOM     11  C8  UNL     1     -33.505  13.158 -34.184  0.00  0.00    +0.000 C 
BRANCH  11  12
ATOM     12  C9  UNL     1     -33.374  12.647 -32.751  0.00  0.00    +0.000 C 
BRANCH  12  13
ATOM     13  C10 UNL     1     -34.190  13.507 -31.787  0.00  0.00    +0.000 C 
BRANCH  13  14
ATOM     14  C11 UNL     1     -35.353  12.744 -31.205  0.00  0.00    +0.000 A 
ATOM     15  C12 UNL     1     -35.888  11.642 -31.886  0.00  0.00    +0.000 A 
ATOM     16  C13 UNL     1     -36.954  10.924 -31.343  0.00  0.00    +0.000 A 
ATOM     17  C14 UNL     1     -37.494  11.298 -30.114  0.00  0.00    +0.000 A 
ATOM     18  C15 UNL     1     -36.966  12.389 -29.426  0.00  0.00    +0.000 A 
ATOM     19  C16 UNL     1     -35.899  13.108 -29.967  0.00  0.00    +0.000 A 
ENDBRANCH  13  14
ENDBRANCH  12  13
ENDBRANCH  11  12
ENDBRANCH   3  11
TORSDOF 5
ENDMDL
MODEL 9
REMARK VINA RESULT:    -4.637     16.344     18.612
REMARK INTER + INTRA:          -6.827
REMARK INTER:                  -5.992
REMARK INTRA:                  -0.835
REMARK UNBOUND:                -0.835
REMARK  Name = /home/anacleto/Desktop/manuscript_Mpro/naturecomm/supplementary_file_S2/6-chemical-library/molecular_docking/3D_ligand_structure/570.pdb
REMARK  5 active torsions:
REMARK  status: ('A' for Active; 'I' for Inactive)
REMARK    1  A    between atoms: C6_6  and  C7_7
REMARK    2  A    between atoms: N1_9  and  C8_10
REMARK    3  A    between atoms: C8_10  and  C9_11
REMARK    4  A    between atoms: C9_11  and  C10_12
REMARK    5  A    between atoms: C10_12  and  C11_13
REMARK                            x       y       z     vdW  Elec       q    Type
REMARK                         _______ _______ _______ _____ _____    ______ ____
ROOT
ATOM      1  C7  UNL     1     -38.762  -3.249 -28.749  0.00  0.00    +0.000 C 
ATOM      2  O1  UNL     1     -38.795  -4.004 -29.713  0.00  0.00    +0.000 OA
ATOM      3  N1  UNL     1     -38.882  -3.677 -27.441  0.00  0.00    +0.000 N 
ATOM      4  H6  UNL     1     -38.626  -3.045 -26.696  0.00  0.00    +0.000 HD
ENDROOT
BRANCH   1  10
ATOM      5  C1  UNL     1     -37.259  -1.274 -28.730  0.00  0.00    +0.000 A 
ATOM      6  C2  UNL     1     -37.009   0.089 -28.903  0.00  0.00    +0.000 A 
ATOM      7  C3  UNL     1     -38.039   0.939 -29.302  0.00  0.00    +0.000 A 
ATOM      8  C4  UNL     1     -39.317   0.430 -29.537  0.00  0.00    +0.000 A 
ATOM      9  C5  UNL     1     -39.571  -0.933 -29.363  0.00  0.00    +0.000 A 
ATOM     10  C6  UNL     1     -38.543  -1.789 -28.946  0.00  0.00    +0.000 A 
ENDBRANCH   1  10
BRANCH   3  11
ATOM     11  C8  UNL     1     -38.990  -5.086 -27.121  0.00  0.00    +0.000 C 
BRANCH  11  12
ATOM     12  C9  UNL     1     -37.917  -5.521 -26.127  0.00  0.00    +0.000 C 
BRANCH  12  13
ATOM     13  C10 UNL     1     -37.686  -4.446 -25.065  0.00  0.00    +0.000 C 
BRANCH  13  14
ATOM     14  C11 UNL     1     -36.317  -3.826 -25.188  0.00  0.00    +0.000 A 
ATOM     15  C12 UNL     1     -35.168  -4.622 -25.090  0.00  0.00    +0.000 A 
ATOM     16  C13 UNL     1     -33.900  -4.054 -25.219  0.00  0.00    +0.000 A 
ATOM     17  C14 UNL     1     -33.768  -2.685 -25.448  0.00  0.00    +0.000 A 
ATOM     18  C15 UNL     1     -34.904  -1.885 -25.552  0.00  0.00    +0.000 A 
ATOM     19  C16 UNL     1     -36.174  -2.452 -25.425  0.00  0.00    +0.000 A 
ENDBRANCH  13  14
ENDBRANCH  12  13
ENDBRANCH  11  12
ENDBRANCH   3  11
TORSDOF 5
ENDMDL
