MODEL 1
REMARK VINA RESULT:    -4.532      0.000      0.000
REMARK INTER + INTRA:          -9.197
REMARK INTER:                  -6.730
REMARK INTRA:                  -2.468
REMARK UNBOUND:                -2.546
REMARK  Name = /home/anacleto/Desktop/manuscript_Mpro/naturecomm/supplementary_file_S2/6-chemical-library/molecular_docking/3D_ligand_structure/446.pdb
REMARK  8 active torsions:
REMARK  status: ('A' for Active; 'I' for Inactive)
REMARK    1  A    between atoms: C6_6  and  C7_7
REMARK    2  A    between atoms: C7_7  and  C8_8
REMARK    3  A    between atoms: C8_8  and  N1_9
REMARK    4  A    between atoms: C9_10  and  C10_12
REMARK    5  A    between atoms: C10_12  and  N2_13
REMARK    6  A    between atoms: N2_13  and  C11_14
REMARK    7  A    between atoms: C11_14  and  C12_15
REMARK    8  A    between atoms: C12_15  and  C13_16
REMARK                            x       y       z     vdW  Elec       q    Type
REMARK                         _______ _______ _______ _____ _____    ______ ____
ROOT
ATOM      1  N1  UNL     1      15.383  13.687  -2.274  0.00  0.00    +0.000 N 
ATOM      2  C9  UNL     1      16.429  14.370  -1.680  0.00  0.00    +0.000 C 
ATOM      3  O1  UNL     1      16.806  15.479  -2.046  0.00  0.00    +0.000 OA
ATOM      4  H10 UNL     1      14.995  12.901  -1.769  0.00  0.00    +0.000 HD
ENDROOT
BRANCH   1   5
ATOM      5  C8  UNL     1      14.578  14.316  -3.305  0.00  0.00    +0.000 C 
BRANCH   5   6
ATOM      6  C7  UNL     1      15.168  14.088  -4.694  0.00  0.00    +0.000 C 
BRANCH   6  12
ATOM      7  C1  UNL     1      14.797  12.599  -6.703  0.00  0.00    +0.000 A 
ATOM      8  C2  UNL     1      14.336  11.415  -7.281  0.00  0.00    +0.000 A 
ATOM      9  C3  UNL     1      13.744  10.434  -6.488  0.00  0.00    +0.000 A 
ATOM     10  C4  UNL     1      13.621  10.632  -5.113  0.00  0.00    +0.000 A 
ATOM     11  C5  UNL     1      14.083  11.815  -4.533  0.00  0.00    +0.000 A 
ATOM     12  C6  UNL     1      14.669  12.812  -5.325  0.00  0.00    +0.000 A 
ENDBRANCH   6  12
ENDBRANCH   5   6
ENDBRANCH   1   5
BRANCH   2  13
ATOM     13  C10 UNL     1      17.076  13.618  -0.516  0.00  0.00    +0.000 C 
BRANCH  13  14
ATOM     14  N2  UNL     1      16.862  12.163  -0.599  0.00  0.00    +0.000 NA
ATOM     15  H13 UNL     1      16.812  11.753   0.333  0.00  0.00    +0.000 HD
BRANCH  14  16
ATOM     16  C11 UNL     1      17.914  11.490  -1.379  0.00  0.00    +0.000 C 
BRANCH  16  17
ATOM     17  C12 UNL     1      17.319  10.647  -2.521  0.00  0.00    +0.000 C 
BRANCH  17  18
ATOM     18  C13 UNL     1      17.719  11.133  -3.894  0.00  0.00    +0.000 A 
ATOM     19  C14 UNL     1      18.320  12.388  -4.064  0.00  0.00    +0.000 A 
ATOM     20  C15 UNL     1      18.696  12.827  -5.333  0.00  0.00    +0.000 A 
ATOM     21  C16 UNL     1      18.480  12.017  -6.445  0.00  0.00    +0.000 A 
ATOM     22  C17 UNL     1      17.891  10.763  -6.286  0.00  0.00    +0.000 A 
ATOM     23  C18 UNL     1      17.514  10.322  -5.017  0.00  0.00    +0.000 A 
ENDBRANCH  17  18
ENDBRANCH  16  17
ENDBRANCH  14  16
ENDBRANCH  13  14
ENDBRANCH   2  13
TORSDOF 8
ENDMDL
MODEL 2
REMARK VINA RESULT:    -4.443      2.986      6.893
REMARK INTER + INTRA:          -9.066
REMARK INTER:                  -6.501
REMARK INTRA:                  -2.566
REMARK UNBOUND:                -2.546
REMARK  Name = /home/anacleto/Desktop/manuscript_Mpro/naturecomm/supplementary_file_S2/6-chemical-library/molecular_docking/3D_ligand_structure/446.pdb
REMARK  8 active torsions:
REMARK  status: ('A' for Active; 'I' for Inactive)
REMARK    1  A    between atoms: C6_6  and  C7_7
REMARK    2  A    between atoms: C7_7  and  C8_8
REMARK    3  A    between atoms: C8_8  and  N1_9
REMARK    4  A    between atoms: C9_10  and  C10_12
REMARK    5  A    between atoms: C10_12  and  N2_13
REMARK    6  A    between atoms: N2_13  and  C11_14
REMARK    7  A    between atoms: C11_14  and  C12_15
REMARK    8  A    between atoms: C12_15  and  C13_16
REMARK                            x       y       z     vdW  Elec       q    Type
REMARK                         _______ _______ _______ _____ _____    ______ ____
ROOT
ATOM      1  N1  UNL     1      16.990  12.961  -3.225  0.00  0.00    +0.000 N 
ATOM      2  C9  UNL     1      15.659  12.627  -3.053  0.00  0.00    +0.000 C 
ATOM      3  O1  UNL     1      15.285  11.615  -2.468  0.00  0.00    +0.000 OA
ATOM      4  H10 UNL     1      17.199  13.910  -3.505  0.00  0.00    +0.000 HD
ENDROOT
BRANCH   1   5
ATOM      5  C8  UNL     1      18.037  12.175  -2.598  0.00  0.00    +0.000 C 
BRANCH   5   6
ATOM      6  C7  UNL     1      18.234  12.568  -1.135  0.00  0.00    +0.000 C 
BRANCH   6  12
ATOM      7  C1  UNL     1      19.858  14.264  -2.072  0.00  0.00    +0.000 A 
ATOM      8  C2  UNL     1      20.864  15.217  -1.905  0.00  0.00    +0.000 A 
ATOM      9  C3  UNL     1      21.342  15.515  -0.630  0.00  0.00    +0.000 A 
ATOM     10  C4  UNL     1      20.807  14.865   0.482  0.00  0.00    +0.000 A 
ATOM     11  C5  UNL     1      19.801  13.912   0.317  0.00  0.00    +0.000 A 
ATOM     12  C6  UNL     1      19.323  13.597  -0.962  0.00  0.00    +0.000 A 
ENDBRANCH   6  12
ENDBRANCH   5   6
ENDBRANCH   1   5
BRANCH   2  13
ATOM     13  C10 UNL     1      14.686  13.641  -3.657  0.00  0.00    +0.000 C 
BRANCH  13  14
ATOM     14  N2  UNL     1      15.342  14.914  -4.002  0.00  0.00    +0.000 NA
ATOM     15  H13 UNL     1      16.305  14.755  -4.294  0.00  0.00    +0.000 HD
BRANCH  14  16
ATOM     16  C11 UNL     1      15.317  15.873  -2.883  0.00  0.00    +0.000 C 
BRANCH  16  17
ATOM     17  C12 UNL     1      16.704  16.493  -2.640  0.00  0.00    +0.000 C 
BRANCH  17  18
ATOM     18  C13 UNL     1      17.064  16.596  -1.176  0.00  0.00    +0.000 A 
ATOM     19  C14 UNL     1      16.433  15.787  -0.223  0.00  0.00    +0.000 A 
ATOM     20  C15 UNL     1      16.777  15.878   1.125  0.00  0.00    +0.000 A 
ATOM     21  C16 UNL     1      17.758  16.777   1.535  0.00  0.00    +0.000 A 
ATOM     22  C17 UNL     1      18.400  17.581   0.594  0.00  0.00    +0.000 A 
ATOM     23  C18 UNL     1      18.057  17.491  -0.756  0.00  0.00    +0.000 A 
ENDBRANCH  17  18
ENDBRANCH  16  17
ENDBRANCH  14  16
ENDBRANCH  13  14
ENDBRANCH   2  13
TORSDOF 8
ENDMDL
MODEL 3
REMARK VINA RESULT:    -4.399     14.716     16.945
REMARK INTER + INTRA:          -9.002
REMARK INTER:                  -8.487
REMARK INTRA:                  -0.515
REMARK UNBOUND:                -2.546
REMARK  Name = /home/anacleto/Desktop/manuscript_Mpro/naturecomm/supplementary_file_S2/6-chemical-library/molecular_docking/3D_ligand_structure/446.pdb
REMARK  8 active torsions:
REMARK  status: ('A' for Active; 'I' for Inactive)
REMARK    1  A    between atoms: C6_6  and  C7_7
REMARK    2  A    between atoms: C7_7  and  C8_8
REMARK    3  A    between atoms: C8_8  and  N1_9
REMARK    4  A    between atoms: C9_10  and  C10_12
REMARK    5  A    between atoms: C10_12  and  N2_13
REMARK    6  A    between atoms: N2_13  and  C11_14
REMARK    7  A    between atoms: C11_14  and  C12_15
REMARK    8  A    between atoms: C12_15  and  C13_16
REMARK                            x       y       z     vdW  Elec       q    Type
REMARK                         _______ _______ _______ _____ _____    ______ ____
ROOT
ATOM      1  N1  UNL     1      17.209   3.946   8.348  0.00  0.00    +0.000 N 
ATOM      2  C9  UNL     1      18.209   4.356   9.211  0.00  0.00    +0.000 C 
ATOM      3  O1  UNL     1      18.222   4.083  10.408  0.00  0.00    +0.000 OA
ATOM      4  H10 UNL     1      17.395   4.013   7.355  0.00  0.00    +0.000 HD
ENDROOT
BRANCH   1   5
ATOM      5  C8  UNL     1      16.164   3.044   8.798  0.00  0.00    +0.000 C 
BRANCH   5   6
ATOM      6  C7  UNL     1      15.800   2.024   7.722  0.00  0.00    +0.000 C 
BRANCH   6  12
ATOM      7  C1  UNL     1      13.644   1.502   8.932  0.00  0.00    +0.000 A 
ATOM      8  C2  UNL     1      12.666   0.600   9.359  0.00  0.00    +0.000 A 
ATOM      9  C3  UNL     1      12.777  -0.752   9.044  0.00  0.00    +0.000 A 
ATOM     10  C4  UNL     1      13.862  -1.205   8.294  0.00  0.00    +0.000 A 
ATOM     11  C5  UNL     1      14.839  -0.305   7.865  0.00  0.00    +0.000 A 
ATOM     12  C6  UNL     1      14.743   1.055   8.188  0.00  0.00    +0.000 A 
ENDBRANCH   6  12
ENDBRANCH   5   6
ENDBRANCH   1   5
BRANCH   2  13
ATOM     13  C10 UNL     1      19.306   5.181   8.537  0.00  0.00    +0.000 C 
BRANCH  13  14
ATOM     14  N2  UNL     1      18.870   6.556   8.237  0.00  0.00    +0.000 NA
ATOM     15  H13 UNL     1      18.906   6.734   7.235  0.00  0.00    +0.000 HD
BRANCH  14  16
ATOM     16  C11 UNL     1      19.679   7.563   8.948  0.00  0.00    +0.000 C 
BRANCH  16  17
ATOM     17  C12 UNL     1      20.527   6.923  10.061  0.00  0.00    +0.000 C 
BRANCH  17  18
ATOM     18  C13 UNL     1      19.993   7.192  11.448  0.00  0.00    +0.000 A 
ATOM     19  C14 UNL     1      18.623   7.394  11.664  0.00  0.00    +0.000 A 
ATOM     20  C15 UNL     1      18.135   7.631  12.949  0.00  0.00    +0.000 A 
ATOM     21  C16 UNL     1      19.009   7.666  14.031  0.00  0.00    +0.000 A 
ATOM     22  C17 UNL     1      20.373   7.457  13.830  0.00  0.00    +0.000 A 
ATOM     23  C18 UNL     1      20.863   7.220  12.545  0.00  0.00    +0.000 A 
ENDBRANCH  17  18
ENDBRANCH  16  17
ENDBRANCH  14  16
ENDBRANCH  13  14
ENDBRANCH   2  13
TORSDOF 8
ENDMDL
MODEL 4
REMARK VINA RESULT:    -4.317     15.381     17.620
REMARK INTER + INTRA:          -8.881
REMARK INTER:                  -6.539
REMARK INTRA:                  -2.343
REMARK UNBOUND:                -2.546
REMARK  Name = /home/anacleto/Desktop/manuscript_Mpro/naturecomm/supplementary_file_S2/6-chemical-library/molecular_docking/3D_ligand_structure/446.pdb
REMARK  8 active torsions:
REMARK  status: ('A' for Active; 'I' for Inactive)
REMARK    1  A    between atoms: C6_6  and  C7_7
REMARK    2  A    between atoms: C7_7  and  C8_8
REMARK    3  A    between atoms: C8_8  and  N1_9
REMARK    4  A    between atoms: C9_10  and  C10_12
REMARK    5  A    between atoms: C10_12  and  N2_13
REMARK    6  A    between atoms: N2_13  and  C11_14
REMARK    7  A    between atoms: C11_14  and  C12_15
REMARK    8  A    between atoms: C12_15  and  C13_16
REMARK                            x       y       z     vdW  Elec       q    Type
REMARK                         _______ _______ _______ _____ _____    ______ ____
ROOT
ATOM      1  N1  UNL     1      17.614   3.608  11.078  0.00  0.00    +0.000 N 
ATOM      2  C9  UNL     1      16.342   3.214  11.452  0.00  0.00    +0.000 C 
ATOM      3  O1  UNL     1      15.567   2.629  10.701  0.00  0.00    +0.000 OA
ATOM      4  H10 UNL     1      18.256   3.867  11.816  0.00  0.00    +0.000 HD
ENDROOT
BRANCH   1   5
ATOM      5  C8  UNL     1      18.157   3.229   9.786  0.00  0.00    +0.000 C 
BRANCH   5   6
ATOM      6  C7  UNL     1      18.059   4.373   8.779  0.00  0.00    +0.000 C 
BRANCH   6  12
ATOM      7  C1  UNL     1      18.844   6.737   9.207  0.00  0.00    +0.000 A 
ATOM      8  C2  UNL     1      19.862   7.677   9.382  0.00  0.00    +0.000 A 
ATOM      9  C3  UNL     1      21.197   7.282   9.319  0.00  0.00    +0.000 A 
ATOM     10  C4  UNL     1      21.516   5.944   9.090  0.00  0.00    +0.000 A 
ATOM     11  C5  UNL     1      20.500   5.003   8.916  0.00  0.00    +0.000 A 
ATOM     12  C6  UNL     1      19.154   5.393   8.966  0.00  0.00    +0.000 A 
ENDBRANCH   6  12
ENDBRANCH   5   6
ENDBRANCH   1   5
BRANCH   2  13
ATOM     13  C10 UNL     1      15.985   3.571  12.895  0.00  0.00    +0.000 C 
BRANCH  13  14
ATOM     14  N2  UNL     1      15.806   5.021  13.089  0.00  0.00    +0.000 NA
ATOM     15  H13 UNL     1      15.672   5.489  12.194  0.00  0.00    +0.000 HD
BRANCH  14  16
ATOM     16  C11 UNL     1      16.943   5.630  13.801  0.00  0.00    +0.000 C 
BRANCH  16  17
ATOM     17  C12 UNL     1      17.589   6.756  12.974  0.00  0.00    +0.000 C 
BRANCH  17  18
ATOM     18  C13 UNL     1      19.099   6.744  13.024  0.00  0.00    +0.000 A 
ATOM     19  C14 UNL     1      19.818   5.588  12.690  0.00  0.00    +0.000 A 
ATOM     20  C15 UNL     1      21.212   5.586  12.727  0.00  0.00    +0.000 A 
ATOM     21  C16 UNL     1      21.902   6.738  13.094  0.00  0.00    +0.000 A 
ATOM     22  C17 UNL     1      21.197   7.896  13.418  0.00  0.00    +0.000 A 
ATOM     23  C18 UNL     1      19.802   7.900  13.382  0.00  0.00    +0.000 A 
ENDBRANCH  17  18
ENDBRANCH  16  17
ENDBRANCH  14  16
ENDBRANCH  13  14
ENDBRANCH   2  13
TORSDOF 8
ENDMDL
MODEL 5
REMARK VINA RESULT:    -4.296      2.161      4.334
REMARK INTER + INTRA:          -8.851
REMARK INTER:                  -6.112
REMARK INTRA:                  -2.739
REMARK UNBOUND:                -2.546
REMARK  Name = /home/anacleto/Desktop/manuscript_Mpro/naturecomm/supplementary_file_S2/6-chemical-library/molecular_docking/3D_ligand_structure/446.pdb
REMARK  8 active torsions:
REMARK  status: ('A' for Active; 'I' for Inactive)
REMARK    1  A    between atoms: C6_6  and  C7_7
REMARK    2  A    between atoms: C7_7  and  C8_8
REMARK    3  A    between atoms: C8_8  and  N1_9
REMARK    4  A    between atoms: C9_10  and  C10_12
REMARK    5  A    between atoms: C10_12  and  N2_13
REMARK    6  A    between atoms: N2_13  and  C11_14
REMARK    7  A    between atoms: C11_14  and  C12_15
REMARK    8  A    between atoms: C12_15  and  C13_16
REMARK                            x       y       z     vdW  Elec       q    Type
REMARK                         _______ _______ _______ _____ _____    ______ ____
ROOT
ATOM      1  N1  UNL     1      14.216  14.556  -4.219  0.00  0.00    +0.000 N 
ATOM      2  C9  UNL     1      14.153  14.737  -2.849  0.00  0.00    +0.000 C 
ATOM      3  O1  UNL     1      14.293  13.825  -2.040  0.00  0.00    +0.000 OA
ATOM      4  H10 UNL     1      14.323  15.382  -4.793  0.00  0.00    +0.000 HD
ENDROOT
BRANCH   1   5
ATOM      5  C8  UNL     1      14.584  13.269  -4.781  0.00  0.00    +0.000 C 
BRANCH   5   6
ATOM      6  C7  UNL     1      16.085  13.181  -5.045  0.00  0.00    +0.000 C 
BRANCH   6  12
ATOM      7  C1  UNL     1      16.122  11.436  -3.217  0.00  0.00    +0.000 A 
ATOM      8  C2  UNL     1      16.712  10.342  -2.580  0.00  0.00    +0.000 A 
ATOM      9  C3  UNL     1      17.900   9.803  -3.072  0.00  0.00    +0.000 A 
ATOM     10  C4  UNL     1      18.494  10.352  -4.207  0.00  0.00    +0.000 A 
ATOM     11  C5  UNL     1      17.906  11.444  -4.846  0.00  0.00    +0.000 A 
ATOM     12  C6  UNL     1      16.718  12.001  -4.351  0.00  0.00    +0.000 A 
ENDBRANCH   6  12
ENDBRANCH   5   6
ENDBRANCH   1   5
BRANCH   2  13
ATOM     13  C10 UNL     1      13.896  16.185  -2.429  0.00  0.00    +0.000 C 
BRANCH  13  14
ATOM     14  N2  UNL     1      15.009  17.081  -2.791  0.00  0.00    +0.000 NA
ATOM     15  H13 UNL     1      15.225  17.003  -3.783  0.00  0.00    +0.000 HD
BRANCH  14  16
ATOM     16  C11 UNL     1      16.221  16.810  -1.998  0.00  0.00    +0.000 C 
BRANCH  16  17
ATOM     17  C12 UNL     1      17.355  16.249  -2.874  0.00  0.00    +0.000 C 
BRANCH  17  18
ATOM     18  C13 UNL     1      18.020  15.029  -2.282  0.00  0.00    +0.000 A 
ATOM     19  C14 UNL     1      17.496  14.410  -1.139  0.00  0.00    +0.000 A 
ATOM     20  C15 UNL     1      18.108  13.277  -0.603  0.00  0.00    +0.000 A 
ATOM     21  C16 UNL     1      19.248  12.749  -1.205  0.00  0.00    +0.000 A 
ATOM     22  C17 UNL     1      19.772  13.352  -2.347  0.00  0.00    +0.000 A 
ATOM     23  C18 UNL     1      19.161  14.485  -2.885  0.00  0.00    +0.000 A 
ENDBRANCH  17  18
ENDBRANCH  16  17
ENDBRANCH  14  16
ENDBRANCH  13  14
ENDBRANCH   2  13
TORSDOF 8
ENDMDL
MODEL 6
REMARK VINA RESULT:    -4.276     15.176     17.695
REMARK INTER + INTRA:          -8.822
REMARK INTER:                  -6.101
REMARK INTRA:                  -2.720
REMARK UNBOUND:                -2.546
REMARK  Name = /home/anacleto/Desktop/manuscript_Mpro/naturecomm/supplementary_file_S2/6-chemical-library/molecular_docking/3D_ligand_structure/446.pdb
REMARK  8 active torsions:
REMARK  status: ('A' for Active; 'I' for Inactive)
REMARK    1  A    between atoms: C6_6  and  C7_7
REMARK    2  A    between atoms: C7_7  and  C8_8
REMARK    3  A    between atoms: C8_8  and  N1_9
REMARK    4  A    between atoms: C9_10  and  C10_12
REMARK    5  A    between atoms: C10_12  and  N2_13
REMARK    6  A    between atoms: N2_13  and  C11_14
REMARK    7  A    between atoms: C11_14  and  C12_15
REMARK    8  A    between atoms: C12_15  and  C13_16
REMARK                            x       y       z     vdW  Elec       q    Type
REMARK                         _______ _______ _______ _____ _____    ______ ____
ROOT
ATOM      1  N1  UNL     1      17.659   5.602  14.581  0.00  0.00    +0.000 N 
ATOM      2  C9  UNL     1      18.976   5.880  14.898  0.00  0.00    +0.000 C 
ATOM      3  O1  UNL     1      19.870   5.039  14.870  0.00  0.00    +0.000 OA
ATOM      4  H10 UNL     1      17.047   6.389  14.406  0.00  0.00    +0.000 HD
ENDROOT
BRANCH   1   5
ATOM      5  C8  UNL     1      17.279   4.299  14.065  0.00  0.00    +0.000 C 
BRANCH   5   6
ATOM      6  C7  UNL     1      16.662   4.406  12.673  0.00  0.00    +0.000 C 
BRANCH   6  12
ATOM      7  C1  UNL     1      18.859   3.412  11.913  0.00  0.00    +0.000 A 
ATOM      8  C2  UNL     1      19.681   2.871  10.922  0.00  0.00    +0.000 A 
ATOM      9  C3  UNL     1      19.208   2.735   9.619  0.00  0.00    +0.000 A 
ATOM     10  C4  UNL     1      17.908   3.132   9.306  0.00  0.00    +0.000 A 
ATOM     11  C5  UNL     1      17.085   3.672  10.295  0.00  0.00    +0.000 A 
ATOM     12  C6  UNL     1      17.556   3.824  11.606  0.00  0.00    +0.000 A 
ENDBRANCH   6  12
ENDBRANCH   5   6
ENDBRANCH   1   5
BRANCH   2  13
ATOM     13  C10 UNL     1      19.224   7.338  15.286  0.00  0.00    +0.000 C 
BRANCH  13  14
ATOM     14  N2  UNL     1      18.923   8.271  14.186  0.00  0.00    +0.000 NA
ATOM     15  H13 UNL     1      17.925   8.280  13.986  0.00  0.00    +0.000 HD
BRANCH  14  16
ATOM     16  C11 UNL     1      19.671   7.944  12.959  0.00  0.00    +0.000 C 
BRANCH  16  17
ATOM     17  C12 UNL     1      18.726   7.557  11.808  0.00  0.00    +0.000 C 
BRANCH  17  18
ATOM     18  C13 UNL     1      19.441   6.937  10.630  0.00  0.00    +0.000 A 
ATOM     19  C14 UNL     1      18.822   6.859   9.376  0.00  0.00    +0.000 A 
ATOM     20  C15 UNL     1      19.492   6.296   8.289  0.00  0.00    +0.000 A 
ATOM     21  C16 UNL     1      20.787   5.808   8.444  0.00  0.00    +0.000 A 
ATOM     22  C17 UNL     1      21.416   5.890   9.686  0.00  0.00    +0.000 A 
ATOM     23  C18 UNL     1      20.747   6.453  10.774  0.00  0.00    +0.000 A 
ENDBRANCH  17  18
ENDBRANCH  16  17
ENDBRANCH  14  16
ENDBRANCH  13  14
ENDBRANCH   2  13
TORSDOF 8
ENDMDL
MODEL 7
REMARK VINA RESULT:    -4.261      2.388      6.079
REMARK INTER + INTRA:          -8.800
REMARK INTER:                  -6.255
REMARK INTRA:                  -2.546
REMARK UNBOUND:                -2.546
REMARK  Name = /home/anacleto/Desktop/manuscript_Mpro/naturecomm/supplementary_file_S2/6-chemical-library/molecular_docking/3D_ligand_structure/446.pdb
REMARK  8 active torsions:
REMARK  status: ('A' for Active; 'I' for Inactive)
REMARK    1  A    between atoms: C6_6  and  C7_7
REMARK    2  A    between atoms: C7_7  and  C8_8
REMARK    3  A    between atoms: C8_8  and  N1_9
REMARK    4  A    between atoms: C9_10  and  C10_12
REMARK    5  A    between atoms: C10_12  and  N2_13
REMARK    6  A    between atoms: N2_13  and  C11_14
REMARK    7  A    between atoms: C11_14  and  C12_15
REMARK    8  A    between atoms: C12_15  and  C13_16
REMARK                            x       y       z     vdW  Elec       q    Type
REMARK                         _______ _______ _______ _____ _____    ______ ____
ROOT
ATOM      1  N1  UNL     1      16.777  13.053  -5.019  0.00  0.00    +0.000 N 
ATOM      2  C9  UNL     1      15.662  12.247  -4.874  0.00  0.00    +0.000 C 
ATOM      3  O1  UNL     1      15.716  11.023  -4.803  0.00  0.00    +0.000 OA
ATOM      4  H10 UNL     1      16.664  14.041  -4.836  0.00  0.00    +0.000 HD
ENDROOT
BRANCH   1   5
ATOM      5  C8  UNL     1      18.112  12.485  -4.968  0.00  0.00    +0.000 C 
BRANCH   5   6
ATOM      6  C7  UNL     1      19.127  13.488  -4.425  0.00  0.00    +0.000 C 
BRANCH   6  12
ATOM      7  C1  UNL     1      18.563  12.444  -2.193  0.00  0.00    +0.000 A 
ATOM      8  C2  UNL     1      18.668  12.397  -0.802  0.00  0.00    +0.000 A 
ATOM      9  C3  UNL     1      19.446  13.336  -0.127  0.00  0.00    +0.000 A 
ATOM     10  C4  UNL     1      20.128  14.318  -0.844  0.00  0.00    +0.000 A 
ATOM     11  C5  UNL     1      20.025  14.366  -2.235  0.00  0.00    +0.000 A 
ATOM     12  C6  UNL     1      19.235  13.434  -2.922  0.00  0.00    +0.000 A 
ENDBRANCH   6  12
ENDBRANCH   5   6
ENDBRANCH   1   5
BRANCH   2  13
ATOM     13  C10 UNL     1      14.345  13.023  -4.804  0.00  0.00    +0.000 C 
BRANCH  13  14
ATOM     14  N2  UNL     1      14.546  14.442  -4.464  0.00  0.00    +0.000 NA
ATOM     15  H13 UNL     1      15.512  14.719  -4.631  0.00  0.00    +0.000 HD
BRANCH  14  16
ATOM     16  C11 UNL     1      14.182  14.736  -3.067  0.00  0.00    +0.000 C 
BRANCH  16  17
ATOM     17  C12 UNL     1      15.219  14.169  -2.081  0.00  0.00    +0.000 C 
BRANCH  17  18
ATOM     18  C13 UNL     1      16.137  15.223  -1.508  0.00  0.00    +0.000 A 
ATOM     19  C14 UNL     1      16.757  16.163  -2.341  0.00  0.00    +0.000 A 
ATOM     20  C15 UNL     1      17.596  17.141  -1.805  0.00  0.00    +0.000 A 
ATOM     21  C16 UNL     1      17.820  17.191  -0.432  0.00  0.00    +0.000 A 
ATOM     22  C17 UNL     1      17.200  16.266   0.407  0.00  0.00    +0.000 A 
ATOM     23  C18 UNL     1      16.362  15.287  -0.127  0.00  0.00    +0.000 A 
ENDBRANCH  17  18
ENDBRANCH  16  17
ENDBRANCH  14  16
ENDBRANCH  13  14
ENDBRANCH   2  13
TORSDOF 8
ENDMDL
MODEL 8
REMARK VINA RESULT:    -4.255      2.721      5.238
REMARK INTER + INTRA:          -8.790
REMARK INTER:                  -5.969
REMARK INTRA:                  -2.821
REMARK UNBOUND:                -2.546
REMARK  Name = /home/anacleto/Desktop/manuscript_Mpro/naturecomm/supplementary_file_S2/6-chemical-library/molecular_docking/3D_ligand_structure/446.pdb
REMARK  8 active torsions:
REMARK  status: ('A' for Active; 'I' for Inactive)
REMARK    1  A    between atoms: C6_6  and  C7_7
REMARK    2  A    between atoms: C7_7  and  C8_8
REMARK    3  A    between atoms: C8_8  and  N1_9
REMARK    4  A    between atoms: C9_10  and  C10_12
REMARK    5  A    between atoms: C10_12  and  N2_13
REMARK    6  A    between atoms: N2_13  and  C11_14
REMARK    7  A    between atoms: C11_14  and  C12_15
REMARK    8  A    between atoms: C12_15  and  C13_16
REMARK                            x       y       z     vdW  Elec       q    Type
REMARK                         _______ _______ _______ _____ _____    ______ ____
ROOT
ATOM      1  N1  UNL     1      19.496  13.535  -0.070  0.00  0.00    +0.000 N 
ATOM      2  C9  UNL     1      20.297  14.486  -0.676  0.00  0.00    +0.000 C 
ATOM      3  O1  UNL     1      20.616  14.446  -1.861  0.00  0.00    +0.000 OA
ATOM      4  H10 UNL     1      19.098  13.768   0.830  0.00  0.00    +0.000 HD
ENDROOT
BRANCH   1   5
ATOM      5  C8  UNL     1      18.874  12.482  -0.853  0.00  0.00    +0.000 C 
BRANCH   5   6
ATOM      6  C7  UNL     1      17.351  12.587  -0.824  0.00  0.00    +0.000 C 
BRANCH   6  12
ATOM      7  C1  UNL     1      15.428  12.458  -2.459  0.00  0.00    +0.000 A 
ATOM      8  C2  UNL     1      14.891  12.642  -3.735  0.00  0.00    +0.000 A 
ATOM      9  C3  UNL     1      15.685  13.151  -4.761  0.00  0.00    +0.000 A 
ATOM     10  C4  UNL     1      17.014  13.486  -4.511  0.00  0.00    +0.000 A 
ATOM     11  C5  UNL     1      17.553  13.304  -3.236  0.00  0.00    +0.000 A 
ATOM     12  C6  UNL     1      16.766  12.781  -2.201  0.00  0.00    +0.000 A 
ENDBRANCH   6  12
ENDBRANCH   5   6
ENDBRANCH   1   5
BRANCH   2  13
ATOM     13  C10 UNL     1      20.749  15.603   0.266  0.00  0.00    +0.000 C 
BRANCH  13  14
ATOM     14  N2  UNL     1      19.768  15.871   1.332  0.00  0.00    +0.000 NA
ATOM     15  H13 UNL     1      19.340  15.004   1.652  0.00  0.00    +0.000 HD
BRANCH  14  16
ATOM     16  C11 UNL     1      18.719  16.810   0.898  0.00  0.00    +0.000 C 
BRANCH  16  17
ATOM     17  C12 UNL     1      17.328  16.151   0.915  0.00  0.00    +0.000 C 
BRANCH  17  18
ATOM     18  C13 UNL     1      16.620  16.215  -0.418  0.00  0.00    +0.000 A 
ATOM     19  C14 UNL     1      15.290  15.794  -0.544  0.00  0.00    +0.000 A 
ATOM     20  C15 UNL     1      14.637  15.866  -1.775  0.00  0.00    +0.000 A 
ATOM     21  C16 UNL     1      15.306  16.362  -2.891  0.00  0.00    +0.000 A 
ATOM     22  C17 UNL     1      16.627  16.793  -2.774  0.00  0.00    +0.000 A 
ATOM     23  C18 UNL     1      17.281  16.722  -1.544  0.00  0.00    +0.000 A 
ENDBRANCH  17  18
ENDBRANCH  16  17
ENDBRANCH  14  16
ENDBRANCH  13  14
ENDBRANCH   2  13
TORSDOF 8
ENDMDL
MODEL 9
REMARK VINA RESULT:    -4.254      1.195      2.136
REMARK INTER + INTRA:          -8.789
REMARK INTER:                  -6.784
REMARK INTRA:                  -2.005
REMARK UNBOUND:                -2.546
REMARK  Name = /home/anacleto/Desktop/manuscript_Mpro/naturecomm/supplementary_file_S2/6-chemical-library/molecular_docking/3D_ligand_structure/446.pdb
REMARK  8 active torsions:
REMARK  status: ('A' for Active; 'I' for Inactive)
REMARK    1  A    between atoms: C6_6  and  C7_7
REMARK    2  A    between atoms: C7_7  and  C8_8
REMARK    3  A    between atoms: C8_8  and  N1_9
REMARK    4  A    between atoms: C9_10  and  C10_12
REMARK    5  A    between atoms: C10_12  and  N2_13
REMARK    6  A    between atoms: N2_13  and  C11_14
REMARK    7  A    between atoms: C11_14  and  C12_15
REMARK    8  A    between atoms: C12_15  and  C13_16
REMARK                            x       y       z     vdW  Elec       q    Type
REMARK                         _______ _______ _______ _____ _____    ______ ____
ROOT
ATOM      1  N1  UNL     1      15.442  14.215  -2.052  0.00  0.00    +0.000 N 
ATOM      2  C9  UNL     1      16.135  15.196  -1.367  0.00  0.00    +0.000 C 
ATOM      3  O1  UNL     1      16.187  16.367  -1.731  0.00  0.00    +0.000 OA
ATOM      4  H10 UNL     1      15.260  13.347  -1.565  0.00  0.00    +0.000 HD
ENDROOT
BRANCH   1   5
ATOM      5  C8  UNL     1      14.616  14.554  -3.197  0.00  0.00    +0.000 C 
BRANCH   5   6
ATOM      6  C7  UNL     1      15.377  14.378  -4.509  0.00  0.00    +0.000 C 
BRANCH   6  12
ATOM      7  C1  UNL     1      13.843  12.392  -4.816  0.00  0.00    +0.000 A 
ATOM      8  C2  UNL     1      13.363  11.320  -5.571  0.00  0.00    +0.000 A 
ATOM      9  C3  UNL     1      13.890  11.065  -6.836  0.00  0.00    +0.000 A 
ATOM     10  C4  UNL     1      14.892  11.887  -7.351  0.00  0.00    +0.000 A 
ATOM     11  C5  UNL     1      15.372  12.959  -6.597  0.00  0.00    +0.000 A 
ATOM     12  C6  UNL     1      14.857  13.217  -5.319  0.00  0.00    +0.000 A 
ENDBRANCH   6  12
ENDBRANCH   5   6
ENDBRANCH   1   5
BRANCH   2  13
ATOM     13  C10 UNL     1      16.833  14.690  -0.104  0.00  0.00    +0.000 C 
BRANCH  13  14
ATOM     14  N2  UNL     1      18.272  15.005  -0.092  0.00  0.00    +0.000 NA
ATOM     15  H13 UNL     1      18.425  15.992  -0.290  0.00  0.00    +0.000 HD
BRANCH  14  16
ATOM     16  C11 UNL     1      19.030  14.184  -1.052  0.00  0.00    +0.000 C 
BRANCH  16  17
ATOM     17  C12 UNL     1      18.790  12.681  -0.822  0.00  0.00    +0.000 C 
BRANCH  17  18
ATOM     18  C13 UNL     1      18.215  11.976  -2.028  0.00  0.00    +0.000 A 
ATOM     19  C14 UNL     1      18.655  12.292  -3.320  0.00  0.00    +0.000 A 
ATOM     20  C15 UNL     1      18.128  11.630  -4.430  0.00  0.00    +0.000 A 
ATOM     21  C16 UNL     1      17.160  10.644  -4.259  0.00  0.00    +0.000 A 
ATOM     22  C17 UNL     1      16.723  10.314  -2.976  0.00  0.00    +0.000 A 
ATOM     23  C18 UNL     1      17.248  10.976  -1.866  0.00  0.00    +0.000 A 
ENDBRANCH  17  18
ENDBRANCH  16  17
ENDBRANCH  14  16
ENDBRANCH  13  14
ENDBRANCH   2  13
TORSDOF 8
ENDMDL
