MODEL 1
REMARK VINA RESULT:    -4.616      0.000      0.000
REMARK INTER + INTRA:          -4.616
REMARK INTER:                  -4.616
REMARK INTRA:                   0.000
REMARK UNBOUND:                 0.000
REMARK  Name = /home/anacleto/Desktop/manuscript_Mpro/naturecomm/supplementary_file_S2/6-chemical-library/molecular_docking/3D_ligand_structure/183.pdb
REMARK  0 active torsions:
REMARK  status: ('A' for Active; 'I' for Inactive)
REMARK                            x       y       z     vdW  Elec       q    Type
REMARK                         _______ _______ _______ _____ _____    ______ ____
ROOT
ATOM      1  O1  UNL     1      18.025  11.815  -4.513  0.00  0.00    +0.000 OA
ATOM      2  C1  UNL     1      16.904  11.419  -4.291  0.00  0.00    +0.000 C 
ATOM      3  C2  UNL     1      16.330  10.906  -2.940  0.00  0.00    +0.000 C 
ATOM      4  O2  UNL     1      16.924  10.821  -1.889  0.00  0.00    +0.000 OA
ATOM      5  N1  UNL     1      15.015  10.574  -3.206  0.00  0.00    +0.000 N 
ATOM      6  C3  UNL     1      14.700  10.813  -4.540  0.00  0.00    +0.000 A 
ATOM      7  C4  UNL     1      15.793  11.321  -5.240  0.00  0.00    +0.000 A 
ATOM      8  C5  UNL     1      13.489  10.603  -5.163  0.00  0.00    +0.000 A 
ATOM      9  C6  UNL     1      13.403  10.919  -6.525  0.00  0.00    +0.000 A 
ATOM     10  C7  UNL     1      14.514  11.431  -7.227  0.00  0.00    +0.000 A 
ATOM     11  C8  UNL     1      15.735  11.639  -6.582  0.00  0.00    +0.000 A 
ATOM     12  H1  UNL     1      14.391  10.208  -2.502  0.00  0.00    +0.000 HD
ENDROOT
TORSDOF 0
ENDMDL
MODEL 2
REMARK VINA RESULT:    -4.182     15.672     17.050
REMARK INTER + INTRA:          -4.182
REMARK INTER:                  -4.182
REMARK INTRA:                   0.000
REMARK UNBOUND:                 0.000
REMARK  Name = /home/anacleto/Desktop/manuscript_Mpro/naturecomm/supplementary_file_S2/6-chemical-library/molecular_docking/3D_ligand_structure/183.pdb
REMARK  0 active torsions:
REMARK  status: ('A' for Active; 'I' for Inactive)
REMARK                            x       y       z     vdW  Elec       q    Type
REMARK                         _______ _______ _______ _____ _____    ______ ____
ROOT
ATOM      1  O1  UNL     1      17.989   7.651  12.398  0.00  0.00    +0.000 OA
ATOM      2  C1  UNL     1      19.117   7.440  12.018  0.00  0.00    +0.000 C 
ATOM      3  C2  UNL     1      20.439   7.642  12.811  0.00  0.00    +0.000 C 
ATOM      4  O2  UNL     1      20.544   8.047  13.947  0.00  0.00    +0.000 OA
ATOM      5  N1  UNL     1      21.446   7.263  11.945  0.00  0.00    +0.000 N 
ATOM      6  C3  UNL     1      20.923   6.854  10.722  0.00  0.00    +0.000 A 
ATOM      7  C4  UNL     1      19.533   6.937  10.706  0.00  0.00    +0.000 A 
ATOM      8  C5  UNL     1      21.623   6.409   9.621  0.00  0.00    +0.000 A 
ATOM      9  C6  UNL     1      20.881   6.047   8.490  0.00  0.00    +0.000 A 
ATOM     10  C7  UNL     1      19.473   6.135   8.482  0.00  0.00    +0.000 A 
ATOM     11  C8  UNL     1      18.778   6.587   9.605  0.00  0.00    +0.000 A 
ATOM     12  H1  UNL     1      22.424   7.291  12.196  0.00  0.00    +0.000 HD
ENDROOT
TORSDOF 0
ENDMDL
MODEL 3
REMARK VINA RESULT:    -4.135     15.521     16.995
REMARK INTER + INTRA:          -4.135
REMARK INTER:                  -4.135
REMARK INTRA:                   0.000
REMARK UNBOUND:                 0.000
REMARK  Name = /home/anacleto/Desktop/manuscript_Mpro/naturecomm/supplementary_file_S2/6-chemical-library/molecular_docking/3D_ligand_structure/183.pdb
REMARK  0 active torsions:
REMARK  status: ('A' for Active; 'I' for Inactive)
REMARK                            x       y       z     vdW  Elec       q    Type
REMARK                         _______ _______ _______ _____ _____    ______ ____
ROOT
ATOM      1  O1  UNL     1      21.066   4.651  12.546  0.00  0.00    +0.000 OA
ATOM      2  C1  UNL     1      21.133   5.598  11.797  0.00  0.00    +0.000 C 
ATOM      3  C2  UNL     1      22.068   6.836  11.914  0.00  0.00    +0.000 C 
ATOM      4  O2  UNL     1      22.883   7.045  12.784  0.00  0.00    +0.000 OA
ATOM      5  N1  UNL     1      21.764   7.627  10.823  0.00  0.00    +0.000 N 
ATOM      6  C3  UNL     1      20.766   7.044  10.047  0.00  0.00    +0.000 A 
ATOM      7  C4  UNL     1      20.349   5.827  10.581  0.00  0.00    +0.000 A 
ATOM      8  C5  UNL     1      20.211   7.543   8.888  0.00  0.00    +0.000 A 
ATOM      9  C6  UNL     1      19.213   6.777   8.273  0.00  0.00    +0.000 A 
ATOM     10  C7  UNL     1      18.795   5.546   8.820  0.00  0.00    +0.000 A 
ATOM     11  C8  UNL     1      19.368   5.054   9.995  0.00  0.00    +0.000 A 
ATOM     12  H1  UNL     1      22.224   8.507  10.640  0.00  0.00    +0.000 HD
ENDROOT
TORSDOF 0
ENDMDL
MODEL 4
REMARK VINA RESULT:    -4.090      2.471      4.106
REMARK INTER + INTRA:          -4.090
REMARK INTER:                  -4.090
REMARK INTRA:                   0.000
REMARK UNBOUND:                 0.000
REMARK  Name = /home/anacleto/Desktop/manuscript_Mpro/naturecomm/supplementary_file_S2/6-chemical-library/molecular_docking/3D_ligand_structure/183.pdb
REMARK  0 active torsions:
REMARK  status: ('A' for Active; 'I' for Inactive)
REMARK                            x       y       z     vdW  Elec       q    Type
REMARK                         _______ _______ _______ _____ _____    ______ ____
ROOT
ATOM      1  O1  UNL     1      14.635  13.914  -5.099  0.00  0.00    +0.000 OA
ATOM      2  C1  UNL     1      14.768  12.851  -4.537  0.00  0.00    +0.000 C 
ATOM      3  C2  UNL     1      14.052  11.509  -4.863  0.00  0.00    +0.000 C 
ATOM      4  O2  UNL     1      13.241  11.319  -5.740  0.00  0.00    +0.000 OA
ATOM      5  N1  UNL     1      14.541  10.602  -3.942  0.00  0.00    +0.000 N 
ATOM      6  C3  UNL     1      15.464  11.204  -3.091  0.00  0.00    +0.000 A 
ATOM      7  C4  UNL     1      15.641  12.551  -3.399  0.00  0.00    +0.000 A 
ATOM      8  C5  UNL     1      16.155  10.612  -2.056  0.00  0.00    +0.000 A 
ATOM      9  C6  UNL     1      17.039  11.420  -1.329  0.00  0.00    +0.000 A 
ATOM     10  C7  UNL     1      17.212  12.783  -1.646  0.00  0.00    +0.000 A 
ATOM     11  C8  UNL     1      16.505  13.368  -2.699  0.00  0.00    +0.000 A 
ATOM     12  H1  UNL     1      14.248   9.637  -3.917  0.00  0.00    +0.000 HD
ENDROOT
TORSDOF 0
ENDMDL
MODEL 5
REMARK VINA RESULT:    -3.947      1.741      2.058
REMARK INTER + INTRA:          -3.947
REMARK INTER:                  -3.947
REMARK INTRA:                   0.000
REMARK UNBOUND:                 0.000
REMARK  Name = /home/anacleto/Desktop/manuscript_Mpro/naturecomm/supplementary_file_S2/6-chemical-library/molecular_docking/3D_ligand_structure/183.pdb
REMARK  0 active torsions:
REMARK  status: ('A' for Active; 'I' for Inactive)
REMARK                            x       y       z     vdW  Elec       q    Type
REMARK                         _______ _______ _______ _____ _____    ______ ____
ROOT
ATOM      1  O1  UNL     1      18.470  11.337  -7.244  0.00  0.00    +0.000 OA
ATOM      2  C1  UNL     1      17.755  11.074  -6.306  0.00  0.00    +0.000 C 
ATOM      3  C2  UNL     1      18.161  10.407  -4.961  0.00  0.00    +0.000 C 
ATOM      4  O2  UNL     1      19.270  10.044  -4.641  0.00  0.00    +0.000 OA
ATOM      5  N1  UNL     1      16.992  10.323  -4.228  0.00  0.00    +0.000 N 
ATOM      6  C3  UNL     1      15.919  10.849  -4.940  0.00  0.00    +0.000 A 
ATOM      7  C4  UNL     1      16.314  11.314  -6.193  0.00  0.00    +0.000 A 
ATOM      8  C5  UNL     1      14.606  10.935  -4.529  0.00  0.00    +0.000 A 
ATOM      9  C6  UNL     1      13.689  11.507  -5.421  0.00  0.00    +0.000 A 
ATOM     10  C7  UNL     1      14.097  11.975  -6.688  0.00  0.00    +0.000 A 
ATOM     11  C8  UNL     1      15.432  11.881  -7.089  0.00  0.00    +0.000 A 
ATOM     12  H1  UNL     1      16.956   9.928  -3.300  0.00  0.00    +0.000 HD
ENDROOT
TORSDOF 0
ENDMDL
MODEL 6
REMARK VINA RESULT:    -3.941     16.564     17.705
REMARK INTER + INTRA:          -3.941
REMARK INTER:                  -3.941
REMARK INTRA:                   0.000
REMARK UNBOUND:                 0.000
REMARK  Name = /home/anacleto/Desktop/manuscript_Mpro/naturecomm/supplementary_file_S2/6-chemical-library/molecular_docking/3D_ligand_structure/183.pdb
REMARK  0 active torsions:
REMARK  status: ('A' for Active; 'I' for Inactive)
REMARK                            x       y       z     vdW  Elec       q    Type
REMARK                         _______ _______ _______ _____ _____    ______ ____
ROOT
ATOM      1  O1  UNL     1      12.607   0.556  11.247  0.00  0.00    +0.000 OA
ATOM      2  C1  UNL     1      13.116   0.365  10.167  0.00  0.00    +0.000 C 
ATOM      3  C2  UNL     1      12.792  -0.768   9.152  0.00  0.00    +0.000 C 
ATOM      4  O2  UNL     1      11.970  -1.645   9.288  0.00  0.00    +0.000 OA
ATOM      5  N1  UNL     1      13.639  -0.552   8.082  0.00  0.00    +0.000 N 
ATOM      6  C3  UNL     1      14.443   0.563   8.300  0.00  0.00    +0.000 A 
ATOM      7  C4  UNL     1      14.175   1.154   9.533  0.00  0.00    +0.000 A 
ATOM      8  C5  UNL     1      15.401   1.080   7.455  0.00  0.00    +0.000 A 
ATOM      9  C6  UNL     1      16.092   2.219   7.886  0.00  0.00    +0.000 A 
ATOM     10  C7  UNL     1      15.816   2.811   9.137  0.00  0.00    +0.000 A 
ATOM     11  C8  UNL     1      14.841   2.276   9.981  0.00  0.00    +0.000 A 
ATOM     12  H1  UNL     1      13.649  -1.143   7.264  0.00  0.00    +0.000 HD
ENDROOT
TORSDOF 0
ENDMDL
MODEL 7
REMARK VINA RESULT:    -3.905      2.029      3.118
REMARK INTER + INTRA:          -3.905
REMARK INTER:                  -3.905
REMARK INTRA:                   0.000
REMARK UNBOUND:                 0.000
REMARK  Name = /home/anacleto/Desktop/manuscript_Mpro/naturecomm/supplementary_file_S2/6-chemical-library/molecular_docking/3D_ligand_structure/183.pdb
REMARK  0 active torsions:
REMARK  status: ('A' for Active; 'I' for Inactive)
REMARK                            x       y       z     vdW  Elec       q    Type
REMARK                         _______ _______ _______ _____ _____    ______ ____
ROOT
ATOM      1  O1  UNL     1      18.236  10.632  -4.578  0.00  0.00    +0.000 OA
ATOM      2  C1  UNL     1      17.528  10.890  -5.523  0.00  0.00    +0.000 C 
ATOM      3  C2  UNL     1      17.956  11.081  -7.006  0.00  0.00    +0.000 C 
ATOM      4  O2  UNL     1      19.079  10.999  -7.448  0.00  0.00    +0.000 OA
ATOM      5  N1  UNL     1      16.788  11.359  -7.690  0.00  0.00    +0.000 N 
ATOM      6  C3  UNL     1      15.696  11.366  -6.828  0.00  0.00    +0.000 A 
ATOM      7  C4  UNL     1      16.077  11.091  -5.516  0.00  0.00    +0.000 A 
ATOM      8  C5  UNL     1      14.377  11.604  -7.153  0.00  0.00    +0.000 A 
ATOM      9  C6  UNL     1      13.441  11.559  -6.112  0.00  0.00    +0.000 A 
ATOM     10  C7  UNL     1      13.835  11.281  -4.787  0.00  0.00    +0.000 A 
ATOM     11  C8  UNL     1      15.174  11.042  -4.474  0.00  0.00    +0.000 A 
ATOM     12  H1  UNL     1      16.765  11.530  -8.684  0.00  0.00    +0.000 HD
ENDROOT
TORSDOF 0
ENDMDL
MODEL 8
REMARK VINA RESULT:    -3.747      1.759      2.352
REMARK INTER + INTRA:          -3.747
REMARK INTER:                  -3.747
REMARK INTRA:                   0.000
REMARK UNBOUND:                 0.000
REMARK  Name = /home/anacleto/Desktop/manuscript_Mpro/naturecomm/supplementary_file_S2/6-chemical-library/molecular_docking/3D_ligand_structure/183.pdb
REMARK  0 active torsions:
REMARK  status: ('A' for Active; 'I' for Inactive)
REMARK                            x       y       z     vdW  Elec       q    Type
REMARK                         _______ _______ _______ _____ _____    ______ ____
ROOT
ATOM      1  O1  UNL     1      17.443  12.044  -1.508  0.00  0.00    +0.000 OA
ATOM      2  C1  UNL     1      17.097  11.520  -2.542  0.00  0.00    +0.000 C 
ATOM      3  C2  UNL     1      17.632  10.197  -3.160  0.00  0.00    +0.000 C 
ATOM      4  O2  UNL     1      18.488   9.478  -2.696  0.00  0.00    +0.000 OA
ATOM      5  N1  UNL     1      16.925  10.031  -4.336  0.00  0.00    +0.000 N 
ATOM      6  C3  UNL     1      16.025  11.076  -4.526  0.00  0.00    +0.000 A 
ATOM      7  C4  UNL     1      16.083  11.998  -3.484  0.00  0.00    +0.000 A 
ATOM      8  C5  UNL     1      15.155  11.245  -5.582  0.00  0.00    +0.000 A 
ATOM      9  C6  UNL     1      14.335  12.381  -5.563  0.00  0.00    +0.000 A 
ATOM     10  C7  UNL     1      14.400  13.311  -4.504  0.00  0.00    +0.000 A 
ATOM     11  C8  UNL     1      15.287  13.124  -3.441  0.00  0.00    +0.000 A 
ATOM     12  H1  UNL     1      17.066   9.245  -4.953  0.00  0.00    +0.000 HD
ENDROOT
TORSDOF 0
ENDMDL
MODEL 9
REMARK VINA RESULT:    -3.635      6.737      8.058
REMARK INTER + INTRA:          -3.635
REMARK INTER:                  -3.635
REMARK INTRA:                   0.000
REMARK UNBOUND:                 0.000
REMARK  Name = /home/anacleto/Desktop/manuscript_Mpro/naturecomm/supplementary_file_S2/6-chemical-library/molecular_docking/3D_ligand_structure/183.pdb
REMARK  0 active torsions:
REMARK  status: ('A' for Active; 'I' for Inactive)
REMARK                            x       y       z     vdW  Elec       q    Type
REMARK                         _______ _______ _______ _____ _____    ______ ____
ROOT
ATOM      1  O1  UNL     1      20.829  14.134  -1.828  0.00  0.00    +0.000 OA
ATOM      2  C1  UNL     1      20.589  14.846  -0.881  0.00  0.00    +0.000 C 
ATOM      3  C2  UNL     1      21.609  15.580   0.036  0.00  0.00    +0.000 C 
ATOM      4  O2  UNL     1      22.815  15.551  -0.058  0.00  0.00    +0.000 OA
ATOM      5  N1  UNL     1      20.843  16.258   0.964  0.00  0.00    +0.000 N 
ATOM      6  C3  UNL     1      19.485  16.042   0.743  0.00  0.00    +0.000 A 
ATOM      7  C4  UNL     1      19.272  15.204  -0.349  0.00  0.00    +0.000 A 
ATOM      8  C5  UNL     1      18.430  16.555   1.466  0.00  0.00    +0.000 A 
ATOM      9  C6  UNL     1      17.138  16.198   1.058  0.00  0.00    +0.000 A 
ATOM     10  C7  UNL     1      16.930  15.348  -0.049  0.00  0.00    +0.000 A 
ATOM     11  C8  UNL     1      18.011  14.837  -0.771  0.00  0.00    +0.000 A 
ATOM     12  H1  UNL     1      21.245  16.828   1.694  0.00  0.00    +0.000 HD
ENDROOT
TORSDOF 0
ENDMDL
