MODEL 1
REMARK VINA RESULT:    -5.474      0.000      0.000
REMARK INTER + INTRA:          -7.692
REMARK INTER:                  -7.051
REMARK INTRA:                  -0.641
REMARK UNBOUND:                -0.618
REMARK  Name = /home/anacleto/Desktop/manuscript_Mpro/naturecomm/supplementary_file_S2/6-chemical-library/molecular_docking/3D_ligand_structure/488.pdb
REMARK  5 active torsions:
REMARK  status: ('A' for Active; 'I' for Inactive)
REMARK    1  A    between atoms: C6_6  and  N1_7
REMARK    2  A    between atoms: C7_8  and  C8_10
REMARK    3  A    between atoms: C8_10  and  N2_11
REMARK    4  A    between atoms: N2_11  and  S1_12
REMARK    5  A    between atoms: S1_12  and  C9_15
REMARK                            x       y       z     vdW  Elec       q    Type
REMARK                         _______ _______ _______ _____ _____    ______ ____
ROOT
ATOM      1  C8  UNL     1      13.867  14.642  -2.550  0.00  0.00    +0.000 C 
ENDROOT
BRANCH   1   3
ATOM      2  N1  UNL     1      15.905  15.707  -1.719  0.00  0.00    +0.000 N 
ATOM      3  C7  UNL     1      14.535  15.614  -1.581  0.00  0.00    +0.000 C 
ATOM      4  O1  UNL     1      13.881  16.280  -0.778  0.00  0.00    +0.000 OA
ATOM      5  H12 UNL     1      16.376  14.949  -2.202  0.00  0.00    +0.000 HD
BRANCH   2  11
ATOM      6  C1  UNL     1      17.718  17.350  -1.603  0.00  0.00    +0.000 C 
ATOM      7  C2  UNL     1      18.623  18.164  -0.681  0.00  0.00    +0.000 C 
ATOM      8  C3  UNL     1      19.328  17.276   0.342  0.00  0.00    +0.000 C 
ATOM      9  C4  UNL     1      18.334  16.433   1.136  0.00  0.00    +0.000 C 
ATOM     10  C5  UNL     1      17.420  15.622   0.221  0.00  0.00    +0.000 C 
ATOM     11  C6  UNL     1      16.709  16.511  -0.809  0.00  0.00    +0.000 C 
ENDBRANCH   2  11
ENDBRANCH   1   3
BRANCH   1  12
ATOM     12  N2  UNL     1      14.335  14.941  -3.920  0.00  0.00    +0.000 NA
ATOM     13  H15 UNL     1      13.552  15.210  -4.529  0.00  0.00    +0.000 HD
BRANCH  12  14
ATOM     14  S1  UNL     1      15.297  13.774  -4.655  0.00  0.00    +0.000 S 
ATOM     15  O2  UNL     1      15.547  14.222  -6.007  0.00  0.00    +0.000 OA
ATOM     16  O3  UNL     1      16.368  13.418  -3.750  0.00  0.00    +0.000 OA
BRANCH  14  17
ATOM     17  C9  UNL     1      14.393  12.291  -4.849  0.00  0.00    +0.000 A 
ATOM     18  C10 UNL     1      14.586  11.122  -4.142  0.00  0.00    +0.000 A 
ATOM     19  N3  UNL     1      13.645  10.256  -4.622  0.00  0.00    +0.000 N 
ATOM     20  C11 UNL     1      12.924  10.911  -5.580  0.00  0.00    +0.000 A 
ATOM     21  N4  UNL     1      13.340  12.147  -5.742  0.00  0.00    +0.000 NA
ATOM     22  H17 UNL     1      13.504   9.299  -4.333  0.00  0.00    +0.000 HD
ENDBRANCH  14  17
ENDBRANCH  12  14
ENDBRANCH   1  12
TORSDOF 5
ENDMDL
MODEL 2
REMARK VINA RESULT:    -5.296      2.663      3.839
REMARK INTER + INTRA:          -7.463
REMARK INTER:                  -6.616
REMARK INTRA:                  -0.847
REMARK UNBOUND:                -0.618
REMARK  Name = /home/anacleto/Desktop/manuscript_Mpro/naturecomm/supplementary_file_S2/6-chemical-library/molecular_docking/3D_ligand_structure/488.pdb
REMARK  5 active torsions:
REMARK  status: ('A' for Active; 'I' for Inactive)
REMARK    1  A    between atoms: C6_6  and  N1_7
REMARK    2  A    between atoms: C7_8  and  C8_10
REMARK    3  A    between atoms: C8_10  and  N2_11
REMARK    4  A    between atoms: N2_11  and  S1_12
REMARK    5  A    between atoms: S1_12  and  C9_15
REMARK                            x       y       z     vdW  Elec       q    Type
REMARK                         _______ _______ _______ _____ _____    ______ ____
ROOT
ATOM      1  C8  UNL     1      17.773  11.030  -3.291  0.00  0.00    +0.000 C 
ENDROOT
BRANCH   1   3
ATOM      2  N1  UNL     1      17.918  13.008  -1.862  0.00  0.00    +0.000 N 
ATOM      3  C7  UNL     1      18.061  11.637  -1.921  0.00  0.00    +0.000 C 
ATOM      4  O1  UNL     1      18.353  10.936  -0.951  0.00  0.00    +0.000 OA
ATOM      5  H12 UNL     1      17.939  13.515  -2.740  0.00  0.00    +0.000 HD
BRANCH   2  11
ATOM      6  C1  UNL     1      17.413  15.040  -0.591  0.00  0.00    +0.000 C 
ATOM      7  C2  UNL     1      17.773  15.885   0.629  0.00  0.00    +0.000 C 
ATOM      8  C3  UNL     1      19.267  16.199   0.672  0.00  0.00    +0.000 C 
ATOM      9  C4  UNL     1      20.112  14.930   0.602  0.00  0.00    +0.000 C 
ATOM     10  C5  UNL     1      19.751  14.075  -0.610  0.00  0.00    +0.000 C 
ATOM     11  C6  UNL     1      18.249  13.756  -0.658  0.00  0.00    +0.000 C 
ENDBRANCH   2  11
ENDBRANCH   1   3
BRANCH   1  12
ATOM     12  N2  UNL     1      16.398  10.490  -3.292  0.00  0.00    +0.000 NA
ATOM     13  H15 UNL     1      16.402   9.464  -3.367  0.00  0.00    +0.000 HD
BRANCH  12  14
ATOM     14  S1  UNL     1      15.326  11.170  -4.396  0.00  0.00    +0.000 S 
ATOM     15  O2  UNL     1      16.047  11.335  -5.639  0.00  0.00    +0.000 OA
ATOM     16  O3  UNL     1      14.069  10.457  -4.322  0.00  0.00    +0.000 OA
BRANCH  14  17
ATOM     17  C9  UNL     1      14.922  12.799  -3.909  0.00  0.00    +0.000 A 
ATOM     18  C10 UNL     1      14.631  13.851  -4.752  0.00  0.00    +0.000 A 
ATOM     19  N3  UNL     1      14.364  14.907  -3.926  0.00  0.00    +0.000 N 
ATOM     20  C11 UNL     1      14.494  14.471  -2.637  0.00  0.00    +0.000 A 
ATOM     21  N4  UNL     1      14.822  13.200  -2.584  0.00  0.00    +0.000 NA
ATOM     22  H17 UNL     1      14.121  15.845  -4.206  0.00  0.00    +0.000 HD
ENDBRANCH  14  17
ENDBRANCH  12  14
ENDBRANCH   1  12
TORSDOF 5
ENDMDL
MODEL 3
REMARK VINA RESULT:    -5.137      3.011      4.199
REMARK INTER + INTRA:          -7.257
REMARK INTER:                  -6.354
REMARK INTRA:                  -0.903
REMARK UNBOUND:                -0.618
REMARK  Name = /home/anacleto/Desktop/manuscript_Mpro/naturecomm/supplementary_file_S2/6-chemical-library/molecular_docking/3D_ligand_structure/488.pdb
REMARK  5 active torsions:
REMARK  status: ('A' for Active; 'I' for Inactive)
REMARK    1  A    between atoms: C6_6  and  N1_7
REMARK    2  A    between atoms: C7_8  and  C8_10
REMARK    3  A    between atoms: C8_10  and  N2_11
REMARK    4  A    between atoms: N2_11  and  S1_12
REMARK    5  A    between atoms: S1_12  and  C9_15
REMARK                            x       y       z     vdW  Elec       q    Type
REMARK                         _______ _______ _______ _____ _____    ______ ____
ROOT
ATOM      1  C8  UNL     1      17.848  10.464  -2.651  0.00  0.00    +0.000 C 
ENDROOT
BRANCH   1   3
ATOM      2  N1  UNL     1      16.667  12.598  -2.473  0.00  0.00    +0.000 N 
ATOM      3  C7  UNL     1      16.686  11.274  -2.082  0.00  0.00    +0.000 C 
ATOM      4  O1  UNL     1      15.826  10.759  -1.368  0.00  0.00    +0.000 OA
ATOM      5  H12 UNL     1      17.533  12.989  -2.828  0.00  0.00    +0.000 HD
BRANCH   2  11
ATOM      6  C1  UNL     1      14.844  14.115  -3.085  0.00  0.00    +0.000 C 
ATOM      7  C2  UNL     1      13.841  15.148  -2.577  0.00  0.00    +0.000 C 
ATOM      8  C3  UNL     1      14.529  16.255  -1.782  0.00  0.00    +0.000 C 
ATOM      9  C4  UNL     1      15.374  15.690  -0.644  0.00  0.00    +0.000 C 
ATOM     10  C5  UNL     1      16.374  14.649  -1.142  0.00  0.00    +0.000 C 
ATOM     11  C6  UNL     1      15.686  13.533  -1.942  0.00  0.00    +0.000 C 
ENDBRANCH   2  11
ENDBRANCH   1   3
BRANCH   1  12
ATOM     12  N2  UNL     1      17.417   9.845  -3.922  0.00  0.00    +0.000 NA
ATOM     13  H15 UNL     1      17.816   8.904  -4.031  0.00  0.00    +0.000 HD
BRANCH  12  14
ATOM     14  S1  UNL     1      17.641  10.760  -5.316  0.00  0.00    +0.000 S 
ATOM     15  O2  UNL     1      18.370  11.947  -4.930  0.00  0.00    +0.000 OA
ATOM     16  O3  UNL     1      18.094   9.886  -6.376  0.00  0.00    +0.000 OA
BRANCH  14  17
ATOM     17  C9  UNL     1      16.104  11.361  -5.888  0.00  0.00    +0.000 A 
ATOM     18  C10 UNL     1      15.872  11.979  -7.100  0.00  0.00    +0.000 A 
ATOM     19  N3  UNL     1      14.534  12.255  -7.110  0.00  0.00    +0.000 N 
ATOM     20  C11 UNL     1      14.006  11.803  -5.933  0.00  0.00    +0.000 A 
ATOM     21  N4  UNL     1      14.922  11.250  -5.170  0.00  0.00    +0.000 NA
ATOM     22  H17 UNL     1      14.019  12.716  -7.846  0.00  0.00    +0.000 HD
ENDBRANCH  14  17
ENDBRANCH  12  14
ENDBRANCH   1  12
TORSDOF 5
ENDMDL
MODEL 4
REMARK VINA RESULT:    -5.135      2.831      7.430
REMARK INTER + INTRA:          -7.255
REMARK INTER:                  -6.670
REMARK INTRA:                  -0.585
REMARK UNBOUND:                -0.618
REMARK  Name = /home/anacleto/Desktop/manuscript_Mpro/naturecomm/supplementary_file_S2/6-chemical-library/molecular_docking/3D_ligand_structure/488.pdb
REMARK  5 active torsions:
REMARK  status: ('A' for Active; 'I' for Inactive)
REMARK    1  A    between atoms: C6_6  and  N1_7
REMARK    2  A    between atoms: C7_8  and  C8_10
REMARK    3  A    between atoms: C8_10  and  N2_11
REMARK    4  A    between atoms: N2_11  and  S1_12
REMARK    5  A    between atoms: S1_12  and  C9_15
REMARK                            x       y       z     vdW  Elec       q    Type
REMARK                         _______ _______ _______ _____ _____    ______ ____
ROOT
ATOM      1  C8  UNL     1      16.672  11.614  -0.963  0.00  0.00    +0.000 C 
ENDROOT
BRANCH   1   3
ATOM      2  N1  UNL     1      15.710  11.619  -3.210  0.00  0.00    +0.000 N 
ATOM      3  C7  UNL     1      16.573  10.976  -2.346  0.00  0.00    +0.000 C 
ATOM      4  O1  UNL     1      17.248   9.994  -2.656  0.00  0.00    +0.000 OA
ATOM      5  H12 UNL     1      15.016  12.234  -2.801  0.00  0.00    +0.000 HD
BRANCH   2  11
ATOM      6  C1  UNL     1      16.165  11.899  -5.601  0.00  0.00    +0.000 C 
ATOM      7  C2  UNL     1      15.843  11.408  -7.010  0.00  0.00    +0.000 C 
ATOM      8  C3  UNL     1      14.339  11.402  -7.272  0.00  0.00    +0.000 C 
ATOM      9  C4  UNL     1      13.587  10.597  -6.215  0.00  0.00    +0.000 C 
ATOM     10  C5  UNL     1      13.910  11.076  -4.802  0.00  0.00    +0.000 C 
ATOM     11  C6  UNL     1      15.422  11.084  -4.534  0.00  0.00    +0.000 C 
ENDBRANCH   2  11
ENDBRANCH   1   3
BRANCH   1  12
ATOM     12  N2  UNL     1      17.850  12.506  -0.935  0.00  0.00    +0.000 NA
ATOM     13  H15 UNL     1      18.339  12.447  -0.032  0.00  0.00    +0.000 HD
BRANCH  12  14
ATOM     14  S1  UNL     1      17.589  14.108  -1.376  0.00  0.00    +0.000 S 
ATOM     15  O2  UNL     1      18.521  14.411  -2.439  0.00  0.00    +0.000 OA
ATOM     16  O3  UNL     1      16.165  14.325  -1.512  0.00  0.00    +0.000 OA
BRANCH  14  17
ATOM     17  C9  UNL     1      18.059  15.170  -0.071  0.00  0.00    +0.000 A 
ATOM     18  C10 UNL     1      19.317  15.267   0.487  0.00  0.00    +0.000 A 
ATOM     19  N3  UNL     1      19.207  16.229   1.451  0.00  0.00    +0.000 N 
ATOM     20  C11 UNL     1      17.917  16.679   1.446  0.00  0.00    +0.000 A 
ATOM     21  N4  UNL     1      17.192  16.069   0.535  0.00  0.00    +0.000 NA
ATOM     22  H17 UNL     1      19.939  16.552   2.066  0.00  0.00    +0.000 HD
ENDBRANCH  14  17
ENDBRANCH  12  14
ENDBRANCH   1  12
TORSDOF 5
ENDMDL
MODEL 5
REMARK VINA RESULT:    -5.085      3.185      6.353
REMARK INTER + INTRA:          -7.190
REMARK INTER:                  -6.489
REMARK INTRA:                  -0.702
REMARK UNBOUND:                -0.618
REMARK  Name = /home/anacleto/Desktop/manuscript_Mpro/naturecomm/supplementary_file_S2/6-chemical-library/molecular_docking/3D_ligand_structure/488.pdb
REMARK  5 active torsions:
REMARK  status: ('A' for Active; 'I' for Inactive)
REMARK    1  A    between atoms: C6_6  and  N1_7
REMARK    2  A    between atoms: C7_8  and  C8_10
REMARK    3  A    between atoms: C8_10  and  N2_11
REMARK    4  A    between atoms: N2_11  and  S1_12
REMARK    5  A    between atoms: S1_12  and  C9_15
REMARK                            x       y       z     vdW  Elec       q    Type
REMARK                         _______ _______ _______ _____ _____    ______ ____
ROOT
ATOM      1  C8  UNL     1      17.629  12.536  -1.118  0.00  0.00    +0.000 C 
ENDROOT
BRANCH   1   3
ATOM      2  N1  UNL     1      16.614  12.280  -3.326  0.00  0.00    +0.000 N 
ATOM      3  C7  UNL     1      17.131  11.619  -2.231  0.00  0.00    +0.000 C 
ATOM      4  O1  UNL     1      17.231  10.394  -2.155  0.00  0.00    +0.000 OA
ATOM      5  H12 UNL     1      16.331  13.245  -3.195  0.00  0.00    +0.000 HD
BRANCH   2  11
ATOM      6  C1  UNL     1      16.317  12.263  -5.758  0.00  0.00    +0.000 C 
ATOM      7  C2  UNL     1      15.646  11.569  -6.940  0.00  0.00    +0.000 C 
ATOM      8  C3  UNL     1      14.139  11.436  -6.731  0.00  0.00    +0.000 C 
ATOM      9  C4  UNL     1      13.813  10.737  -5.413  0.00  0.00    +0.000 C 
ATOM     10  C5  UNL     1      14.489  11.420  -4.227  0.00  0.00    +0.000 C 
ATOM     11  C6  UNL     1      16.004  11.556  -4.433  0.00  0.00    +0.000 C 
ENDBRANCH   2  11
ENDBRANCH   1   3
BRANCH   1  12
ATOM     12  N2  UNL     1      16.480  13.286  -0.570  0.00  0.00    +0.000 NA
ATOM     13  H15 UNL     1      15.590  12.828  -0.808  0.00  0.00    +0.000 HD
BRANCH  12  14
ATOM     14  S1  UNL     1      16.423  14.930  -0.918  0.00  0.00    +0.000 S 
ATOM     15  O2  UNL     1      16.438  15.631   0.347  0.00  0.00    +0.000 OA
ATOM     16  O3  UNL     1      17.374  15.215  -1.969  0.00  0.00    +0.000 OA
BRANCH  14  17
ATOM     17  C9  UNL     1      14.876  15.338  -1.621  0.00  0.00    +0.000 A 
ATOM     18  C10 UNL     1      14.437  14.987  -2.881  0.00  0.00    +0.000 A 
ATOM     19  N3  UNL     1      13.177  15.507  -2.978  0.00  0.00    +0.000 N 
ATOM     20  C11 UNL     1      12.895  16.139  -1.800  0.00  0.00    +0.000 A 
ATOM     21  N4  UNL     1      13.893  16.052  -0.950  0.00  0.00    +0.000 NA
ATOM     22  H17 UNL     1      12.561  15.448  -3.775  0.00  0.00    +0.000 HD
ENDBRANCH  14  17
ENDBRANCH  12  14
ENDBRANCH   1  12
TORSDOF 5
ENDMDL
MODEL 6
REMARK VINA RESULT:    -5.014      2.345      3.290
REMARK INTER + INTRA:          -7.098
REMARK INTER:                  -6.479
REMARK INTRA:                  -0.618
REMARK UNBOUND:                -0.618
REMARK  Name = /home/anacleto/Desktop/manuscript_Mpro/naturecomm/supplementary_file_S2/6-chemical-library/molecular_docking/3D_ligand_structure/488.pdb
REMARK  5 active torsions:
REMARK  status: ('A' for Active; 'I' for Inactive)
REMARK    1  A    between atoms: C6_6  and  N1_7
REMARK    2  A    between atoms: C7_8  and  C8_10
REMARK    3  A    between atoms: C8_10  and  N2_11
REMARK    4  A    between atoms: N2_11  and  S1_12
REMARK    5  A    between atoms: S1_12  and  C9_15
REMARK                            x       y       z     vdW  Elec       q    Type
REMARK                         _______ _______ _______ _____ _____    ______ ____
ROOT
ATOM      1  C8  UNL     1      18.394  11.805  -2.989  0.00  0.00    +0.000 C 
ENDROOT
BRANCH   1   3
ATOM      2  N1  UNL     1      18.192  13.819  -1.619  0.00  0.00    +0.000 N 
ATOM      3  C7  UNL     1      18.561  12.489  -1.636  0.00  0.00    +0.000 C 
ATOM      4  O1  UNL     1      18.953  11.875  -0.643  0.00  0.00    +0.000 OA
ATOM      5  H12 UNL     1      18.139  14.297  -2.512  0.00  0.00    +0.000 HD
BRANCH   2  11
ATOM      6  C1  UNL     1      17.055  15.309  -0.042  0.00  0.00    +0.000 C 
ATOM      7  C2  UNL     1      17.222  16.233   1.162  0.00  0.00    +0.000 C 
ATOM      8  C3  UNL     1      18.310  17.278   0.920  0.00  0.00    +0.000 C 
ATOM      9  C4  UNL     1      19.634  16.631   0.523  0.00  0.00    +0.000 C 
ATOM     10  C5  UNL     1      19.473  15.698  -0.674  0.00  0.00    +0.000 C 
ATOM     11  C6  UNL     1      18.381  14.646  -0.435  0.00  0.00    +0.000 C 
ENDBRANCH   2  11
ENDBRANCH   1   3
BRANCH   1  12
ATOM     12  N2  UNL     1      17.186  12.344  -3.649  0.00  0.00    +0.000 NA
ATOM     13  H15 UNL     1      17.230  13.369  -3.723  0.00  0.00    +0.000 HD
BRANCH  12  14
ATOM     14  S1  UNL     1      15.706  11.848  -3.023  0.00  0.00    +0.000 S 
ATOM     15  O2  UNL     1      15.865  10.476  -2.596  0.00  0.00    +0.000 OA
ATOM     16  O3  UNL     1      15.208  12.879  -2.139  0.00  0.00    +0.000 OA
BRANCH  14  17
ATOM     17  C9  UNL     1      14.515  11.770  -4.299  0.00  0.00    +0.000 A 
ATOM     18  C10 UNL     1      13.949  12.846  -4.951  0.00  0.00    +0.000 A 
ATOM     19  N3  UNL     1      13.097  12.300  -5.869  0.00  0.00    +0.000 N 
ATOM     20  C11 UNL     1      13.173  10.941  -5.752  0.00  0.00    +0.000 A 
ATOM     21  N4  UNL     1      14.026  10.580  -4.819  0.00  0.00    +0.000 NA
ATOM     22  H17 UNL     1      12.507  12.801  -6.517  0.00  0.00    +0.000 HD
ENDBRANCH  14  17
ENDBRANCH  12  14
ENDBRANCH   1  12
TORSDOF 5
ENDMDL
MODEL 7
REMARK VINA RESULT:    -5.002      2.941      7.613
REMARK INTER + INTRA:          -7.082
REMARK INTER:                  -6.617
REMARK INTRA:                  -0.465
REMARK UNBOUND:                -0.618
REMARK  Name = /home/anacleto/Desktop/manuscript_Mpro/naturecomm/supplementary_file_S2/6-chemical-library/molecular_docking/3D_ligand_structure/488.pdb
REMARK  5 active torsions:
REMARK  status: ('A' for Active; 'I' for Inactive)
REMARK    1  A    between atoms: C6_6  and  N1_7
REMARK    2  A    between atoms: C7_8  and  C8_10
REMARK    3  A    between atoms: C8_10  and  N2_11
REMARK    4  A    between atoms: N2_11  and  S1_12
REMARK    5  A    between atoms: S1_12  and  C9_15
REMARK                            x       y       z     vdW  Elec       q    Type
REMARK                         _______ _______ _______ _____ _____    ______ ____
ROOT
ATOM      1  C8  UNL     1      16.813  11.851  -1.297  0.00  0.00    +0.000 C 
ENDROOT
BRANCH   1   3
ATOM      2  N1  UNL     1      15.904  11.440  -3.528  0.00  0.00    +0.000 N 
ATOM      3  C7  UNL     1      15.794  12.196  -2.379  0.00  0.00    +0.000 C 
ATOM      4  O1  UNL     1      14.927  13.053  -2.204  0.00  0.00    +0.000 OA
ATOM      5  H12 UNL     1      16.784  10.962  -3.687  0.00  0.00    +0.000 HD
BRANCH   2  11
ATOM      6  C1  UNL     1      13.873  10.754  -4.714  0.00  0.00    +0.000 C 
ATOM      7  C2  UNL     1      13.009  10.960  -5.955  0.00  0.00    +0.000 C 
ATOM      8  C3  UNL     1      13.829  10.833  -7.237  0.00  0.00    +0.000 C 
ATOM      9  C4  UNL     1      15.032  11.773  -7.231  0.00  0.00    +0.000 C 
ATOM     10  C5  UNL     1      15.897  11.580  -5.987  0.00  0.00    +0.000 C 
ATOM     11  C6  UNL     1      15.075  11.706  -4.696  0.00  0.00    +0.000 C 
ENDBRANCH   2  11
ENDBRANCH   1   3
BRANCH   1  12
ATOM     12  N2  UNL     1      17.216  13.096  -0.610  0.00  0.00    +0.000 NA
ATOM     13  H15 UNL     1      16.394  13.626  -0.290  0.00  0.00    +0.000 HD
BRANCH  12  14
ATOM     14  S1  UNL     1      18.292  14.093  -1.433  0.00  0.00    +0.000 S 
ATOM     15  O2  UNL     1      19.109  13.237  -2.265  0.00  0.00    +0.000 OA
ATOM     16  O3  UNL     1      17.562  15.221  -1.969  0.00  0.00    +0.000 OA
BRANCH  14  17
ATOM     17  C9  UNL     1      19.420  14.811  -0.308  0.00  0.00    +0.000 A 
ATOM     18  C10 UNL     1      19.107  15.691   0.707  0.00  0.00    +0.000 A 
ATOM     19  N3  UNL     1      20.296  15.963   1.323  0.00  0.00    +0.000 N 
ATOM     20  C11 UNL     1      21.271  15.252   0.680  0.00  0.00    +0.000 A 
ATOM     21  N4  UNL     1      20.780  14.537  -0.308  0.00  0.00    +0.000 NA
ATOM     22  H17 UNL     1      20.441  16.581   2.107  0.00  0.00    +0.000 HD
ENDBRANCH  14  17
ENDBRANCH  12  14
ENDBRANCH   1  12
TORSDOF 5
ENDMDL
MODEL 8
REMARK VINA RESULT:    -4.958      2.966      6.048
REMARK INTER + INTRA:          -7.026
REMARK INTER:                  -6.175
REMARK INTRA:                  -0.850
REMARK UNBOUND:                -0.618
REMARK  Name = /home/anacleto/Desktop/manuscript_Mpro/naturecomm/supplementary_file_S2/6-chemical-library/molecular_docking/3D_ligand_structure/488.pdb
REMARK  5 active torsions:
REMARK  status: ('A' for Active; 'I' for Inactive)
REMARK    1  A    between atoms: C6_6  and  N1_7
REMARK    2  A    between atoms: C7_8  and  C8_10
REMARK    3  A    between atoms: C8_10  and  N2_11
REMARK    4  A    between atoms: N2_11  and  S1_12
REMARK    5  A    between atoms: S1_12  and  C9_15
REMARK                            x       y       z     vdW  Elec       q    Type
REMARK                         _______ _______ _______ _____ _____    ______ ____
ROOT
ATOM      1  C8  UNL     1      15.033  16.395  -1.691  0.00  0.00    +0.000 C 
ENDROOT
BRANCH   1   3
ATOM      2  N1  UNL     1      15.123  14.516  -3.251  0.00  0.00    +0.000 N 
ATOM      3  C7  UNL     1      14.303  15.304  -2.470  0.00  0.00    +0.000 C 
ATOM      4  O1  UNL     1      13.089  15.134  -2.363  0.00  0.00    +0.000 OA
ATOM      5  H12 UNL     1      16.039  14.885  -3.483  0.00  0.00    +0.000 HD
BRANCH   2  11
ATOM      6  C1  UNL     1      14.870  12.100  -3.565  0.00  0.00    +0.000 C 
ATOM      7  C2  UNL     1      14.367  10.996  -4.492  0.00  0.00    +0.000 C 
ATOM      8  C3  UNL     1      14.936  11.145  -5.902  0.00  0.00    +0.000 C 
ATOM      9  C4  UNL     1      14.656  12.530  -6.479  0.00  0.00    +0.000 C 
ATOM     10  C5  UNL     1      15.148  13.640  -5.553  0.00  0.00    +0.000 C 
ATOM     11  C6  UNL     1      14.579  13.494  -4.134  0.00  0.00    +0.000 C 
ENDBRANCH   2  11
ENDBRANCH   1   3
BRANCH   1  12
ATOM     12  N2  UNL     1      15.609  15.800  -0.467  0.00  0.00    +0.000 NA
ATOM     13  H15 UNL     1      15.216  16.236   0.378  0.00  0.00    +0.000 HD
BRANCH  12  14
ATOM     14  S1  UNL     1      17.287  15.733  -0.385  0.00  0.00    +0.000 S 
ATOM     15  O2  UNL     1      17.796  16.421  -1.550  0.00  0.00    +0.000 OA
ATOM     16  O3  UNL     1      17.700  16.079   0.958  0.00  0.00    +0.000 OA
BRANCH  14  17
ATOM     17  C9  UNL     1      17.829  14.083  -0.584  0.00  0.00    +0.000 A 
ATOM     18  C10 UNL     1      19.102  13.610  -0.343  0.00  0.00    +0.000 A 
ATOM     19  N3  UNL     1      19.044  12.273  -0.619  0.00  0.00    +0.000 N 
ATOM     20  C11 UNL     1      17.766  11.982  -1.006  0.00  0.00    +0.000 A 
ATOM     21  N4  UNL     1      16.998  13.049  -0.991  0.00  0.00    +0.000 NA
ATOM     22  H17 UNL     1      19.804  11.611  -0.558  0.00  0.00    +0.000 HD
ENDBRANCH  14  17
ENDBRANCH  12  14
ENDBRANCH   1  12
TORSDOF 5
ENDMDL
MODEL 9
REMARK VINA RESULT:    -4.952      2.633      3.508
REMARK INTER + INTRA:          -7.018
REMARK INTER:                  -6.256
REMARK INTRA:                  -0.762
REMARK UNBOUND:                -0.618
REMARK  Name = /home/anacleto/Desktop/manuscript_Mpro/naturecomm/supplementary_file_S2/6-chemical-library/molecular_docking/3D_ligand_structure/488.pdb
REMARK  5 active torsions:
REMARK  status: ('A' for Active; 'I' for Inactive)
REMARK    1  A    between atoms: C6_6  and  N1_7
REMARK    2  A    between atoms: C7_8  and  C8_10
REMARK    3  A    between atoms: C8_10  and  N2_11
REMARK    4  A    between atoms: N2_11  and  S1_12
REMARK    5  A    between atoms: S1_12  and  C9_15
REMARK                            x       y       z     vdW  Elec       q    Type
REMARK                         _______ _______ _______ _____ _____    ______ ____
ROOT
ATOM      1  C8  UNL     1      15.868  10.717  -3.266  0.00  0.00    +0.000 C 
ENDROOT
BRANCH   1   3
ATOM      2  N1  UNL     1      16.927  12.564  -2.065  0.00  0.00    +0.000 N 
ATOM      3  C7  UNL     1      16.190  11.405  -1.942  0.00  0.00    +0.000 C 
ATOM      4  O1  UNL     1      15.778  10.966  -0.867  0.00  0.00    +0.000 OA
ATOM      5  H12 UNL     1      17.436  12.701  -2.932  0.00  0.00    +0.000 HD
BRANCH   2  11
ATOM      6  C1  UNL     1      16.758  14.680  -0.843  0.00  0.00    +0.000 C 
ATOM      7  C2  UNL     1      17.278  15.499   0.336  0.00  0.00    +0.000 C 
ATOM      8  C3  UNL     1      18.802  15.600   0.321  0.00  0.00    +0.000 C 
ATOM      9  C4  UNL     1      19.457  14.223   0.264  0.00  0.00    +0.000 C 
ATOM     10  C5  UNL     1      18.936  13.395  -0.908  0.00  0.00    +0.000 C 
ATOM     11  C6  UNL     1      17.404  13.290  -0.897  0.00  0.00    +0.000 C 
ENDBRANCH   2  11
ENDBRANCH   1   3
BRANCH   1  12
ATOM     12  N2  UNL     1      14.493  11.080  -3.668  0.00  0.00    +0.000 NA
ATOM     13  H15 UNL     1      13.969  10.254  -3.986  0.00  0.00    +0.000 HD
BRANCH  12  14
ATOM     14  S1  UNL     1      14.342  12.347  -4.762  0.00  0.00    +0.000 S 
ATOM     15  O2  UNL     1      13.090  12.156  -5.461  0.00  0.00    +0.000 OA
ATOM     16  O3  UNL     1      14.667  13.585  -4.087  0.00  0.00    +0.000 OA
BRANCH  14  17
ATOM     17  C9  UNL     1      15.560  12.209  -6.007  0.00  0.00    +0.000 A 
ATOM     18  C10 UNL     1      15.482  11.422  -7.138  0.00  0.00    +0.000 A 
ATOM     19  N3  UNL     1      16.647  11.652  -7.814  0.00  0.00    +0.000 N 
ATOM     20  C11 UNL     1      17.378  12.552  -7.091  0.00  0.00    +0.000 A 
ATOM     21  N4  UNL     1      16.752  12.920  -5.996  0.00  0.00    +0.000 NA
ATOM     22  H17 UNL     1      16.931  11.231  -8.686  0.00  0.00    +0.000 HD
ENDBRANCH  14  17
ENDBRANCH  12  14
ENDBRANCH   1  12
TORSDOF 5
ENDMDL
