MODEL 1
REMARK VINA RESULT:    -5.716      0.000      0.000
REMARK INTER + INTRA:          -7.277
REMARK INTER:                  -6.793
REMARK INTRA:                  -0.484
REMARK UNBOUND:                -0.559
REMARK  Name = /home/anacleto/Desktop/manuscript_Mpro/naturecomm/supplementary_file_S2/6-chemical-library/molecular_docking/3D_ligand_structure/594.pdb
REMARK  3 active torsions:
REMARK  status: ('A' for Active; 'I' for Inactive)
REMARK    1  A    between atoms: C3_5  and  C4_6
REMARK    2  A    between atoms: N2_8  and  C5_9
REMARK    3  A    between atoms: C5_9  and  C6_10
REMARK                            x       y       z     vdW  Elec       q    Type
REMARK                         _______ _______ _______ _____ _____    ______ ____
ROOT
ATOM      1  C5  UNL     1      15.311  12.921  -3.384  0.00  0.00    +0.000 C 
ENDROOT
BRANCH   1   2
ATOM      2  C6  UNL     1      14.734  12.142  -4.522  0.00  0.00    +0.000 A 
ATOM      3  C7  UNL     1      14.737  12.760  -5.874  0.00  0.00    +0.000 A 
ATOM      4  O3  UNL     1      15.321  13.819  -6.090  0.00  0.00    +0.000 OA
ATOM      5  N3  UNL     1      14.090  12.069  -6.861  0.00  0.00    +0.000 N 
ATOM      6  C8  UNL     1      13.591  10.806  -6.734  0.00  0.00    +0.000 A 
ATOM      7  O4  UNL     1      13.118  10.188  -7.682  0.00  0.00    +0.000 OA
ATOM      8  N4  UNL     1      13.659  10.268  -5.477  0.00  0.00    +0.000 N 
ATOM      9  C9  UNL     1      14.198  10.919  -4.404  0.00  0.00    +0.000 A 
ATOM     10  H6  UNL     1      14.098  12.462  -7.788  0.00  0.00    +0.000 HD
ATOM     11  H7  UNL     1      13.274   9.336  -5.377  0.00  0.00    +0.000 HD
ENDBRANCH   1   2
BRANCH   1  14
ATOM     12  C4  UNL     1      14.743  14.899  -2.044  0.00  0.00    +0.000 C 
ATOM     13  O2  UNL     1      15.683  14.696  -1.280  0.00  0.00    +0.000 OA
ATOM     14  N2  UNL     1      14.544  14.127  -3.174  0.00  0.00    +0.000 N 
ATOM     15  H3  UNL     1      13.623  14.135  -3.600  0.00  0.00    +0.000 HD
BRANCH  12  20
ATOM     16  N1  UNL     1      12.571  15.763  -1.129  0.00  0.00    +0.000 NA
ATOM     17  C1  UNL     1      11.991  16.939  -1.149  0.00  0.00    +0.000 A 
ATOM     18  O1  UNL     1      12.687  17.913  -1.795  0.00  0.00    +0.000 OA
ATOM     19  C2  UNL     1      13.816  17.278  -2.219  0.00  0.00    +0.000 A 
ATOM     20  C3  UNL     1      13.758  15.958  -1.820  0.00  0.00    +0.000 A 
ENDBRANCH  12  20
ENDBRANCH   1  14
TORSDOF 3
ENDMDL
MODEL 2
REMARK VINA RESULT:    -5.311      1.874      6.570
REMARK INTER + INTRA:          -6.802
REMARK INTER:                  -6.334
REMARK INTRA:                  -0.468
REMARK UNBOUND:                -0.559
REMARK  Name = /home/anacleto/Desktop/manuscript_Mpro/naturecomm/supplementary_file_S2/6-chemical-library/molecular_docking/3D_ligand_structure/594.pdb
REMARK  3 active torsions:
REMARK  status: ('A' for Active; 'I' for Inactive)
REMARK    1  A    between atoms: C3_5  and  C4_6
REMARK    2  A    between atoms: N2_8  and  C5_9
REMARK    3  A    between atoms: C5_9  and  C6_10
REMARK                            x       y       z     vdW  Elec       q    Type
REMARK                         _______ _______ _______ _____ _____    ______ ____
ROOT
ATOM      1  C5  UNL     1      14.736  15.364  -1.710  0.00  0.00    +0.000 C 
ENDROOT
BRANCH   1   2
ATOM      2  C6  UNL     1      14.206  16.719  -2.058  0.00  0.00    +0.000 A 
ATOM      3  C7  UNL     1      12.761  16.989  -1.838  0.00  0.00    +0.000 A 
ATOM      4  O3  UNL     1      12.042  16.180  -1.257  0.00  0.00    +0.000 OA
ATOM      5  N3  UNL     1      12.293  18.194  -2.282  0.00  0.00    +0.000 N 
ATOM      6  C8  UNL     1      13.069  19.208  -2.759  0.00  0.00    +0.000 A 
ATOM      7  O4  UNL     1      12.611  20.310  -3.041  0.00  0.00    +0.000 OA
ATOM      8  N4  UNL     1      14.400  18.919  -2.894  0.00  0.00    +0.000 N 
ATOM      9  C9  UNL     1      14.949  17.710  -2.569  0.00  0.00    +0.000 A 
ATOM     10  H6  UNL     1      11.320  18.403  -2.125  0.00  0.00    +0.000 HD
ATOM     11  H7  UNL     1      14.977  19.666  -3.263  0.00  0.00    +0.000 HD
ENDBRANCH   1   2
BRANCH   1  14
ATOM     12  C4  UNL     1      14.988  13.214  -2.869  0.00  0.00    +0.000 C 
ATOM     13  O2  UNL     1      15.878  12.861  -2.098  0.00  0.00    +0.000 OA
ATOM     14  N2  UNL     1      14.296  14.398  -2.689  0.00  0.00    +0.000 N 
ATOM     15  H3  UNL     1      13.795  14.782  -3.483  0.00  0.00    +0.000 HD
BRANCH  12  20
ATOM     16  N1  UNL     1      14.101  12.983  -5.206  0.00  0.00    +0.000 NA
ATOM     17  C1  UNL     1      13.884  11.953  -5.987  0.00  0.00    +0.000 A 
ATOM     18  O1  UNL     1      14.191  10.744  -5.445  0.00  0.00    +0.000 OA
ATOM     19  C2  UNL     1      14.648  11.054  -4.199  0.00  0.00    +0.000 A 
ATOM     20  C3  UNL     1      14.596  12.424  -4.037  0.00  0.00    +0.000 A 
ENDBRANCH  12  20
ENDBRANCH   1  14
TORSDOF 3
ENDMDL
MODEL 3
REMARK VINA RESULT:    -5.194      3.099      4.133
REMARK INTER + INTRA:          -6.664
REMARK INTER:                  -6.116
REMARK INTRA:                  -0.548
REMARK UNBOUND:                -0.559
REMARK  Name = /home/anacleto/Desktop/manuscript_Mpro/naturecomm/supplementary_file_S2/6-chemical-library/molecular_docking/3D_ligand_structure/594.pdb
REMARK  3 active torsions:
REMARK  status: ('A' for Active; 'I' for Inactive)
REMARK    1  A    between atoms: C3_5  and  C4_6
REMARK    2  A    between atoms: N2_8  and  C5_9
REMARK    3  A    between atoms: C5_9  and  C6_10
REMARK                            x       y       z     vdW  Elec       q    Type
REMARK                         _______ _______ _______ _____ _____    ______ ____
ROOT
ATOM      1  C5  UNL     1      15.430  13.652  -5.038  0.00  0.00    +0.000 C 
ENDROOT
BRANCH   1   2
ATOM      2  C6  UNL     1      14.705  12.578  -5.783  0.00  0.00    +0.000 A 
ATOM      3  C7  UNL     1      15.417  11.878  -6.884  0.00  0.00    +0.000 A 
ATOM      4  O3  UNL     1      16.613  12.069  -7.093  0.00  0.00    +0.000 OA
ATOM      5  N3  UNL     1      14.681  10.991  -7.619  0.00  0.00    +0.000 N 
ATOM      6  C8  UNL     1      13.410  10.593  -7.321  0.00  0.00    +0.000 A 
ATOM      7  O4  UNL     1      12.834   9.711  -7.949  0.00  0.00    +0.000 OA
ATOM      8  N4  UNL     1      12.822  11.237  -6.267  0.00  0.00    +0.000 N 
ATOM      9  C9  UNL     1      13.442  12.208  -5.532  0.00  0.00    +0.000 A 
ATOM     10  H6  UNL     1      15.151  10.492  -8.357  0.00  0.00    +0.000 HD
ATOM     11  H7  UNL     1      11.872  10.954  -6.054  0.00  0.00    +0.000 HD
ENDBRANCH   1   2
BRANCH   1  14
ATOM     12  C4  UNL     1      16.110  13.020  -2.764  0.00  0.00    +0.000 C 
ATOM     13  O2  UNL     1      15.004  13.311  -2.314  0.00  0.00    +0.000 OA
ATOM     14  N2  UNL     1      16.377  13.062  -4.120  0.00  0.00    +0.000 N 
ATOM     15  H3  UNL     1      17.348  13.101  -4.414  0.00  0.00    +0.000 HD
BRANCH  12  20
ATOM     16  N1  UNL     1      18.057  13.520  -1.262  0.00  0.00    +0.000 NA
ATOM     17  C1  UNL     1      18.909  12.764  -0.612  0.00  0.00    +0.000 A 
ATOM     18  O1  UNL     1      18.725  11.426  -0.767  0.00  0.00    +0.000 OA
ATOM     19  C2  UNL     1      17.648  11.340  -1.597  0.00  0.00    +0.000 A 
ATOM     20  C3  UNL     1      17.229  12.617  -1.912  0.00  0.00    +0.000 A 
ENDBRANCH  12  20
ENDBRANCH   1  14
TORSDOF 3
ENDMDL
MODEL 4
REMARK VINA RESULT:    -5.118      3.756      4.754
REMARK INTER + INTRA:          -6.575
REMARK INTER:                  -6.047
REMARK INTRA:                  -0.528
REMARK UNBOUND:                -0.559
REMARK  Name = /home/anacleto/Desktop/manuscript_Mpro/naturecomm/supplementary_file_S2/6-chemical-library/molecular_docking/3D_ligand_structure/594.pdb
REMARK  3 active torsions:
REMARK  status: ('A' for Active; 'I' for Inactive)
REMARK    1  A    between atoms: C3_5  and  C4_6
REMARK    2  A    between atoms: N2_8  and  C5_9
REMARK    3  A    between atoms: C5_9  and  C6_10
REMARK                            x       y       z     vdW  Elec       q    Type
REMARK                         _______ _______ _______ _____ _____    ______ ____
ROOT
ATOM      1  C5  UNL     1      18.344  10.949  -3.243  0.00  0.00    +0.000 C 
ENDROOT
BRANCH   1   2
ATOM      2  C6  UNL     1      16.986  10.972  -3.869  0.00  0.00    +0.000 A 
ATOM      3  C7  UNL     1      15.807  10.706  -3.005  0.00  0.00    +0.000 A 
ATOM      4  O3  UNL     1      15.918  10.609  -1.786  0.00  0.00    +0.000 OA
ATOM      5  N3  UNL     1      14.598  10.614  -3.637  0.00  0.00    +0.000 N 
ATOM      6  C8  UNL     1      14.378  10.899  -4.953  0.00  0.00    +0.000 A 
ATOM      7  O4  UNL     1      13.256  10.907  -5.446  0.00  0.00    +0.000 OA
ATOM      8  N4  UNL     1      15.496  11.184  -5.689  0.00  0.00    +0.000 N 
ATOM      9  C9  UNL     1      16.760  11.205  -5.169  0.00  0.00    +0.000 A 
ATOM     10  H6  UNL     1      13.783  10.453  -3.066  0.00  0.00    +0.000 HD
ATOM     11  H7  UNL     1      15.338  11.381  -6.671  0.00  0.00    +0.000 HD
ENDBRANCH   1   2
BRANCH   1  14
ATOM     12  C4  UNL     1      18.787  12.186  -1.168  0.00  0.00    +0.000 C 
ATOM     13  O2  UNL     1      18.954  11.144  -0.539  0.00  0.00    +0.000 OA
ATOM     14  N2  UNL     1      18.581  12.187  -2.535  0.00  0.00    +0.000 N 
ATOM     15  H3  UNL     1      18.166  13.012  -2.955  0.00  0.00    +0.000 HD
BRANCH  12  20
ATOM     16  N1  UNL     1      19.852  14.001   0.201  0.00  0.00    +0.000 NA
ATOM     17  C1  UNL     1      19.450  15.187   0.589  0.00  0.00    +0.000 A 
ATOM     18  O1  UNL     1      18.199  15.533   0.184  0.00  0.00    +0.000 OA
ATOM     19  C2  UNL     1      17.779  14.452  -0.532  0.00  0.00    +0.000 A 
ATOM     20  C3  UNL     1      18.782  13.502  -0.528  0.00  0.00    +0.000 A 
ENDBRANCH  12  20
ENDBRANCH   1  14
TORSDOF 3
ENDMDL
MODEL 5
REMARK VINA RESULT:    -4.912      1.814      2.437
REMARK INTER + INTRA:          -6.333
REMARK INTER:                  -6.034
REMARK INTRA:                  -0.298
REMARK UNBOUND:                -0.559
REMARK  Name = /home/anacleto/Desktop/manuscript_Mpro/naturecomm/supplementary_file_S2/6-chemical-library/molecular_docking/3D_ligand_structure/594.pdb
REMARK  3 active torsions:
REMARK  status: ('A' for Active; 'I' for Inactive)
REMARK    1  A    between atoms: C3_5  and  C4_6
REMARK    2  A    between atoms: N2_8  and  C5_9
REMARK    3  A    between atoms: C5_9  and  C6_10
REMARK                            x       y       z     vdW  Elec       q    Type
REMARK                         _______ _______ _______ _____ _____    ______ ____
ROOT
ATOM      1  C5  UNL     1      16.009  13.951  -2.665  0.00  0.00    +0.000 C 
ENDROOT
BRANCH   1   2
ATOM      2  C6  UNL     1      15.253  12.964  -3.496  0.00  0.00    +0.000 A 
ATOM      3  C7  UNL     1      15.233  11.543  -3.060  0.00  0.00    +0.000 A 
ATOM      4  O3  UNL     1      15.701  11.202  -1.976  0.00  0.00    +0.000 OA
ATOM      5  N3  UNL     1      14.637  10.654  -3.909  0.00  0.00    +0.000 N 
ATOM      6  C8  UNL     1      13.935  10.991  -5.029  0.00  0.00    +0.000 A 
ATOM      7  O4  UNL     1      13.325  10.163  -5.697  0.00  0.00    +0.000 OA
ATOM      8  N4  UNL     1      13.947  12.320  -5.355  0.00  0.00    +0.000 N 
ATOM      9  C9  UNL     1      14.597  13.273  -4.623  0.00  0.00    +0.000 A 
ATOM     10  H6  UNL     1      14.596   9.689  -3.622  0.00  0.00    +0.000 HD
ATOM     11  H7  UNL     1      13.439  12.571  -6.196  0.00  0.00    +0.000 HD
ENDBRANCH   1   2
BRANCH   1  14
ATOM     12  C4  UNL     1      15.029  16.023  -1.782  0.00  0.00    +0.000 C 
ATOM     13  O2  UNL     1      15.243  15.673  -0.624  0.00  0.00    +0.000 OA
ATOM     14  N2  UNL     1      15.468  15.276  -2.861  0.00  0.00    +0.000 N 
ATOM     15  H3  UNL     1      15.030  15.437  -3.761  0.00  0.00    +0.000 HD
BRANCH  12  20
ATOM     16  N1  UNL     1      14.897  18.394  -2.595  0.00  0.00    +0.000 NA
ATOM     17  C1  UNL     1      13.902  19.230  -2.770  0.00  0.00    +0.000 A 
ATOM     18  O1  UNL     1      12.675  18.740  -2.449  0.00  0.00    +0.000 OA
ATOM     19  C2  UNL     1      12.932  17.467  -2.035  0.00  0.00    +0.000 A 
ATOM     20  C3  UNL     1      14.291  17.241  -2.116  0.00  0.00    +0.000 A 
ENDBRANCH  12  20
ENDBRANCH   1  14
TORSDOF 3
ENDMDL
MODEL 6
REMARK VINA RESULT:    -4.886      3.691      4.661
REMARK INTER + INTRA:          -6.302
REMARK INTER:                  -5.741
REMARK INTRA:                  -0.561
REMARK UNBOUND:                -0.559
REMARK  Name = /home/anacleto/Desktop/manuscript_Mpro/naturecomm/supplementary_file_S2/6-chemical-library/molecular_docking/3D_ligand_structure/594.pdb
REMARK  3 active torsions:
REMARK  status: ('A' for Active; 'I' for Inactive)
REMARK    1  A    between atoms: C3_5  and  C4_6
REMARK    2  A    between atoms: N2_8  and  C5_9
REMARK    3  A    between atoms: C5_9  and  C6_10
REMARK                            x       y       z     vdW  Elec       q    Type
REMARK                         _______ _______ _______ _____ _____    ______ ____
ROOT
ATOM      1  C5  UNL     1      16.383  11.714  -0.888  0.00  0.00    +0.000 C 
ENDROOT
BRANCH   1   2
ATOM      2  C6  UNL     1      16.030  11.571  -2.334  0.00  0.00    +0.000 A 
ATOM      3  C7  UNL     1      15.121  12.578  -2.941  0.00  0.00    +0.000 A 
ATOM      4  O3  UNL     1      14.776  13.581  -2.322  0.00  0.00    +0.000 OA
ATOM      5  N3  UNL     1      14.725  12.343  -4.228  0.00  0.00    +0.000 N 
ATOM      6  C8  UNL     1      15.219  11.357  -5.032  0.00  0.00    +0.000 A 
ATOM      7  O4  UNL     1      14.912  11.258  -6.215  0.00  0.00    +0.000 OA
ATOM      8  N4  UNL     1      16.090  10.489  -4.432  0.00  0.00    +0.000 N 
ATOM      9  C9  UNL     1      16.471  10.582  -3.123  0.00  0.00    +0.000 A 
ATOM     10  H6  UNL     1      14.124  13.024  -4.664  0.00  0.00    +0.000 HD
ATOM     11  H7  UNL     1      16.446   9.746  -5.023  0.00  0.00    +0.000 HD
ENDBRANCH   1   2
BRANCH   1  14
ATOM     12  C4  UNL     1      18.434  13.010  -0.504  0.00  0.00    +0.000 C 
ATOM     13  O2  UNL     1      19.138  12.025  -0.714  0.00  0.00    +0.000 OA
ATOM     14  N2  UNL     1      17.061  12.971  -0.669  0.00  0.00    +0.000 N 
ATOM     15  H3  UNL     1      16.506  13.690  -0.217  0.00  0.00    +0.000 HD
BRANCH  12  20
ATOM     16  N1  UNL     1      18.214  15.438   0.090  0.00  0.00    +0.000 NA
ATOM     17  C1  UNL     1      19.068  16.343   0.504  0.00  0.00    +0.000 A 
ATOM     18  O1  UNL     1      20.346  15.905   0.648  0.00  0.00    +0.000 OA
ATOM     19  C2  UNL     1      20.282  14.592   0.289  0.00  0.00    +0.000 A 
ATOM     20  C3  UNL     1      18.980  14.292  -0.059  0.00  0.00    +0.000 A 
ENDBRANCH  12  20
ENDBRANCH   1  14
TORSDOF 3
ENDMDL
MODEL 7
REMARK VINA RESULT:    -4.795      4.031      5.655
REMARK INTER + INTRA:          -6.195
REMARK INTER:                  -5.738
REMARK INTRA:                  -0.457
REMARK UNBOUND:                -0.559
REMARK  Name = /home/anacleto/Desktop/manuscript_Mpro/naturecomm/supplementary_file_S2/6-chemical-library/molecular_docking/3D_ligand_structure/594.pdb
REMARK  3 active torsions:
REMARK  status: ('A' for Active; 'I' for Inactive)
REMARK    1  A    between atoms: C3_5  and  C4_6
REMARK    2  A    between atoms: N2_8  and  C5_9
REMARK    3  A    between atoms: C5_9  and  C6_10
REMARK                            x       y       z     vdW  Elec       q    Type
REMARK                         _______ _______ _______ _____ _____    ______ ____
ROOT
ATOM      1  C5  UNL     1      15.868  15.476  -0.508  0.00  0.00    +0.000 C 
ENDROOT
BRANCH   1   2
ATOM      2  C6  UNL     1      15.363  14.800  -1.743  0.00  0.00    +0.000 A 
ATOM      3  C7  UNL     1      15.784  13.398  -2.001  0.00  0.00    +0.000 A 
ATOM      4  O3  UNL     1      16.410  12.755  -1.163  0.00  0.00    +0.000 OA
ATOM      5  N3  UNL     1      15.403  12.859  -3.199  0.00  0.00    +0.000 N 
ATOM      6  C8  UNL     1      14.550  13.447  -4.086  0.00  0.00    +0.000 A 
ATOM      7  O4  UNL     1      14.153  12.875  -5.095  0.00  0.00    +0.000 OA
ATOM      8  N4  UNL     1      14.157  14.720  -3.771  0.00  0.00    +0.000 N 
ATOM      9  C9  UNL     1      14.562  15.381  -2.646  0.00  0.00    +0.000 A 
ATOM     10  H6  UNL     1      15.661  11.904  -3.384  0.00  0.00    +0.000 HD
ATOM     11  H7  UNL     1      13.536  15.166  -4.437  0.00  0.00    +0.000 HD
ENDBRANCH   1   2
BRANCH   1  14
ATOM     12  C4  UNL     1      18.024  16.007   0.542  0.00  0.00    +0.000 C 
ATOM     13  O2  UNL     1      17.473  16.659   1.426  0.00  0.00    +0.000 OA
ATOM     14  N2  UNL     1      17.298  15.301  -0.400  0.00  0.00    +0.000 N 
ATOM     15  H3  UNL     1      17.767  15.030  -1.258  0.00  0.00    +0.000 HD
BRANCH  12  20
ATOM     16  N1  UNL     1      20.195  14.748   0.528  0.00  0.00    +0.000 NA
ATOM     17  C1  UNL     1      21.441  15.107   0.335  0.00  0.00    +0.000 A 
ATOM     18  O1  UNL     1      21.627  16.432   0.094  0.00  0.00    +0.000 OA
ATOM     19  C2  UNL     1      20.368  16.951   0.138  0.00  0.00    +0.000 A 
ATOM     20  C3  UNL     1      19.478  15.930   0.407  0.00  0.00    +0.000 A 
ENDBRANCH  12  20
ENDBRANCH   1  14
TORSDOF 3
ENDMDL
MODEL 8
REMARK VINA RESULT:    -4.785      2.435      3.024
REMARK INTER + INTRA:          -6.183
REMARK INTER:                  -5.624
REMARK INTRA:                  -0.559
REMARK UNBOUND:                -0.559
REMARK  Name = /home/anacleto/Desktop/manuscript_Mpro/naturecomm/supplementary_file_S2/6-chemical-library/molecular_docking/3D_ligand_structure/594.pdb
REMARK  3 active torsions:
REMARK  status: ('A' for Active; 'I' for Inactive)
REMARK    1  A    between atoms: C3_5  and  C4_6
REMARK    2  A    between atoms: N2_8  and  C5_9
REMARK    3  A    between atoms: C5_9  and  C6_10
REMARK                            x       y       z     vdW  Elec       q    Type
REMARK                         _______ _______ _______ _____ _____    ______ ____
ROOT
ATOM      1  C5  UNL     1      17.276  12.439  -4.634  0.00  0.00    +0.000 C 
ENDROOT
BRANCH   1   2
ATOM      2  C6  UNL     1      16.052  11.961  -5.347  0.00  0.00    +0.000 A 
ATOM      3  C7  UNL     1      15.124  11.053  -4.624  0.00  0.00    +0.000 A 
ATOM      4  O3  UNL     1      15.272  10.808  -3.429  0.00  0.00    +0.000 OA
ATOM      5  N3  UNL     1      14.084  10.541  -5.349  0.00  0.00    +0.000 N 
ATOM      6  C8  UNL     1      13.753  10.919  -6.617  0.00  0.00    +0.000 A 
ATOM      7  O4  UNL     1      12.745  10.510  -7.183  0.00  0.00    +0.000 OA
ATOM      8  N4  UNL     1      14.618  11.794  -7.216  0.00  0.00    +0.000 N 
ATOM      9  C9  UNL     1      15.738  12.287  -6.608  0.00  0.00    +0.000 A 
ATOM     10  H6  UNL     1      13.433   9.939  -4.871  0.00  0.00    +0.000 HD
ATOM     11  H7  UNL     1      14.382  12.065  -8.164  0.00  0.00    +0.000 HD
ENDBRANCH   1   2
BRANCH   1  14
ATOM     12  C4  UNL     1      17.273  13.325  -2.344  0.00  0.00    +0.000 C 
ATOM     13  O2  UNL     1      18.041  12.445  -1.963  0.00  0.00    +0.000 OA
ATOM     14  N2  UNL     1      16.920  13.458  -3.674  0.00  0.00    +0.000 N 
ATOM     15  H3  UNL     1      16.084  13.989  -3.895  0.00  0.00    +0.000 HD
BRANCH  12  20
ATOM     16  N1  UNL     1      17.199  14.611  -0.190  0.00  0.00    +0.000 NA
ATOM     17  C1  UNL     1      16.369  15.502   0.297  0.00  0.00    +0.000 A 
ATOM     18  O1  UNL     1      15.319  15.812  -0.509  0.00  0.00    +0.000 OA
ATOM     19  C2  UNL     1      15.516  15.036  -1.611  0.00  0.00    +0.000 A 
ATOM     20  C3  UNL     1      16.664  14.291  -1.429  0.00  0.00    +0.000 A 
ENDBRANCH  12  20
ENDBRANCH   1  14
TORSDOF 3
ENDMDL
MODEL 9
REMARK VINA RESULT:    -4.756      3.340      4.025
REMARK INTER + INTRA:          -6.150
REMARK INTER:                  -5.634
REMARK INTRA:                  -0.516
REMARK UNBOUND:                -0.559
REMARK  Name = /home/anacleto/Desktop/manuscript_Mpro/naturecomm/supplementary_file_S2/6-chemical-library/molecular_docking/3D_ligand_structure/594.pdb
REMARK  3 active torsions:
REMARK  status: ('A' for Active; 'I' for Inactive)
REMARK    1  A    between atoms: C3_5  and  C4_6
REMARK    2  A    between atoms: N2_8  and  C5_9
REMARK    3  A    between atoms: C5_9  and  C6_10
REMARK                            x       y       z     vdW  Elec       q    Type
REMARK                         _______ _______ _______ _____ _____    ______ ____
ROOT
ATOM      1  C5  UNL     1      17.895  12.527  -2.731  0.00  0.00    +0.000 C 
ENDROOT
BRANCH   1   2
ATOM      2  C6  UNL     1      16.675  12.038  -3.443  0.00  0.00    +0.000 A 
ATOM      3  C7  UNL     1      15.775  11.091  -2.733  0.00  0.00    +0.000 A 
ATOM      4  O3  UNL     1      15.942  10.822  -1.546  0.00  0.00    +0.000 OA
ATOM      5  N3  UNL     1      14.740  10.574  -3.460  0.00  0.00    +0.000 N 
ATOM      6  C8  UNL     1      14.387  10.975  -4.715  0.00  0.00    +0.000 A 
ATOM      7  O4  UNL     1      13.383  10.557  -5.281  0.00  0.00    +0.000 OA
ATOM      8  N4  UNL     1      15.225  11.884  -5.301  0.00  0.00    +0.000 N 
ATOM      9  C9  UNL     1      16.340  12.388  -4.692  0.00  0.00    +0.000 A 
ATOM     10  H6  UNL     1      14.108   9.945  -2.991  0.00  0.00    +0.000 HD
ATOM     11  H7  UNL     1      14.974  12.172  -6.240  0.00  0.00    +0.000 HD
ENDBRANCH   1   2
BRANCH   1  14
ATOM     12  C4  UNL     1      18.004  14.694  -1.580  0.00  0.00    +0.000 C 
ATOM     13  O2  UNL     1      18.622  15.199  -2.514  0.00  0.00    +0.000 OA
ATOM     14  N2  UNL     1      17.515  13.402  -1.646  0.00  0.00    +0.000 N 
ATOM     15  H3  UNL     1      17.279  12.936  -0.776  0.00  0.00    +0.000 HD
BRANCH  12  20
ATOM     16  N1  UNL     1      18.699  16.163   0.333  0.00  0.00    +0.000 NA
ATOM     17  C1  UNL     1      18.069  16.626   1.386  0.00  0.00    +0.000 A 
ATOM     18  O1  UNL     1      16.768  16.245   1.492  0.00  0.00    +0.000 OA
ATOM     19  C2  UNL     1      16.566  15.467   0.391  0.00  0.00    +0.000 A 
ATOM     20  C3  UNL     1      17.743  15.405  -0.328  0.00  0.00    +0.000 A 
ENDBRANCH  12  20
ENDBRANCH   1  14
TORSDOF 3
ENDMDL
