MODEL 1
REMARK VINA RESULT:    -5.407      0.000      0.000
REMARK INTER + INTRA:          -7.151
REMARK INTER:                  -6.738
REMARK INTRA:                  -0.413
REMARK UNBOUND:                -0.480
REMARK  Name = /home/anacleto/Desktop/manuscript_Mpro/naturecomm/supplementary_file_S2/6-chemical-library/molecular_docking/3D_ligand_structure/542.pdb
REMARK  4 active torsions:
REMARK  status: ('A' for Active; 'I' for Inactive)
REMARK    1  A    between atoms: C6_6  and  N1_7
REMARK    2  A    between atoms: C7_8  and  C8_10
REMARK    3  A    between atoms: C8_10  and  N2_11
REMARK    4  A    between atoms: C9_12  and  C10_14
REMARK                            x       y       z     vdW  Elec       q    Type
REMARK                         _______ _______ _______ _____ _____    ______ ____
ROOT
ATOM      1  C8  UNL     1      14.298  15.870  -2.691  0.00  0.00    +0.000 C 
ENDROOT
BRANCH   1   3
ATOM      2  N1  UNL     1      16.399  15.184  -1.647  0.00  0.00    +0.000 N 
ATOM      3  C7  UNL     1      15.107  15.611  -1.415  0.00  0.00    +0.000 C 
ATOM      4  O1  UNL     1      14.654  15.812  -0.290  0.00  0.00    +0.000 OA
ATOM      5  H12 UNL     1      16.740  15.149  -2.600  0.00  0.00    +0.000 HD
BRANCH   2  11
ATOM      6  C1  UNL     1      17.990  16.313  -0.149  0.00  0.00    +0.000 C 
ATOM      7  C2  UNL     1      19.042  16.120   0.940  0.00  0.00    +0.000 C 
ATOM      8  C3  UNL     1      20.098  15.098   0.527  0.00  0.00    +0.000 C 
ATOM      9  C4  UNL     1      19.467  13.772   0.115  0.00  0.00    +0.000 C 
ATOM     10  C5  UNL     1      18.418  13.964  -0.977  0.00  0.00    +0.000 C 
ATOM     11  C6  UNL     1      17.349  14.982  -0.563  0.00  0.00    +0.000 C 
ENDBRANCH   2  11
ENDBRANCH   1   3
BRANCH   1  12
ATOM     12  N2  UNL     1      13.917  14.624  -3.311  0.00  0.00    +0.000 N 
ATOM     13  C9  UNL     1      14.743  13.999  -4.217  0.00  0.00    +0.000 C 
ATOM     14  O2  UNL     1      15.722  14.533  -4.731  0.00  0.00    +0.000 OA
ATOM     15  H15 UNL     1      13.297  13.995  -2.805  0.00  0.00    +0.000 HD
BRANCH  13  16
ATOM     16  C10 UNL     1      14.336  12.622  -4.497  0.00  0.00    +0.000 A 
ATOM     17  C11 UNL     1      14.741  11.484  -3.826  0.00  0.00    +0.000 A 
ATOM     18  N3  UNL     1      14.090  10.450  -4.437  0.00  0.00    +0.000 N 
ATOM     19  C12 UNL     1      13.326  10.974  -5.441  0.00  0.00    +0.000 A 
ATOM     20  N4  UNL     1      13.449  12.280  -5.510  0.00  0.00    +0.000 NA
ATOM     21  H17 UNL     1      14.154   9.471  -4.192  0.00  0.00    +0.000 HD
ENDBRANCH  13  16
ENDBRANCH   1  12
TORSDOF 4
ENDMDL
MODEL 2
REMARK VINA RESULT:    -5.390     15.027     16.156
REMARK INTER + INTRA:          -7.131
REMARK INTER:                  -6.852
REMARK INTRA:                  -0.279
REMARK UNBOUND:                -0.480
REMARK  Name = /home/anacleto/Desktop/manuscript_Mpro/naturecomm/supplementary_file_S2/6-chemical-library/molecular_docking/3D_ligand_structure/542.pdb
REMARK  4 active torsions:
REMARK  status: ('A' for Active; 'I' for Inactive)
REMARK    1  A    between atoms: C6_6  and  N1_7
REMARK    2  A    between atoms: C7_8  and  C8_10
REMARK    3  A    between atoms: C8_10  and  N2_11
REMARK    4  A    between atoms: C9_12  and  C10_14
REMARK                            x       y       z     vdW  Elec       q    Type
REMARK                         _______ _______ _______ _____ _____    ______ ____
ROOT
ATOM      1  C8  UNL     1      16.338   2.766   7.692  0.00  0.00    +0.000 C 
ENDROOT
BRANCH   1   3
ATOM      2  N1  UNL     1      17.961   4.504   8.258  0.00  0.00    +0.000 N 
ATOM      3  C7  UNL     1      17.095   3.556   8.765  0.00  0.00    +0.000 C 
ATOM      4  O1  UNL     1      16.909   3.387   9.968  0.00  0.00    +0.000 OA
ATOM      5  H12 UNL     1      17.979   4.665   7.258  0.00  0.00    +0.000 HD
BRANCH   2  11
ATOM      6  C1  UNL     1      19.000   6.729   8.385  0.00  0.00    +0.000 C 
ATOM      7  C2  UNL     1      19.828   7.680   9.246  0.00  0.00    +0.000 C 
ATOM      8  C3  UNL     1      21.105   7.014   9.752  0.00  0.00    +0.000 C 
ATOM      9  C4  UNL     1      20.806   5.709  10.484  0.00  0.00    +0.000 C 
ATOM     10  C5  UNL     1      19.982   4.757   9.624  0.00  0.00    +0.000 C 
ATOM     11  C6  UNL     1      18.693   5.418   9.121  0.00  0.00    +0.000 C 
ENDBRANCH   2  11
ENDBRANCH   1   3
BRANCH   1  12
ATOM     12  N2  UNL     1      15.119   2.216   8.234  0.00  0.00    +0.000 N 
ATOM     13  C9  UNL     1      14.782   0.897   8.030  0.00  0.00    +0.000 C 
ATOM     14  O2  UNL     1      15.340   0.167   7.216  0.00  0.00    +0.000 OA
ATOM     15  H15 UNL     1      14.735   2.620   9.085  0.00  0.00    +0.000 HD
BRANCH  13  16
ATOM     16  C10 UNL     1      13.691   0.452   8.897  0.00  0.00    +0.000 A 
ATOM     17  C11 UNL     1      12.796   1.250   9.583  0.00  0.00    +0.000 A 
ATOM     18  N3  UNL     1      11.966   0.386  10.239  0.00  0.00    +0.000 N 
ATOM     19  C12 UNL     1      12.370  -0.884   9.944  0.00  0.00    +0.000 A 
ATOM     20  N4  UNL     1      13.409  -0.886   9.139  0.00  0.00    +0.000 NA
ATOM     21  H17 UNL     1      11.188   0.637  10.835  0.00  0.00    +0.000 HD
ENDBRANCH  13  16
ENDBRANCH   1  12
TORSDOF 4
ENDMDL
MODEL 3
REMARK VINA RESULT:    -5.371      2.555      7.164
REMARK INTER + INTRA:          -7.106
REMARK INTER:                  -6.637
REMARK INTRA:                  -0.470
REMARK UNBOUND:                -0.480
REMARK  Name = /home/anacleto/Desktop/manuscript_Mpro/naturecomm/supplementary_file_S2/6-chemical-library/molecular_docking/3D_ligand_structure/542.pdb
REMARK  4 active torsions:
REMARK  status: ('A' for Active; 'I' for Inactive)
REMARK    1  A    between atoms: C6_6  and  N1_7
REMARK    2  A    between atoms: C7_8  and  C8_10
REMARK    3  A    between atoms: C8_10  and  N2_11
REMARK    4  A    between atoms: C9_12  and  C10_14
REMARK                            x       y       z     vdW  Elec       q    Type
REMARK                         _______ _______ _______ _____ _____    ______ ____
ROOT
ATOM      1  C8  UNL     1      16.067  11.229  -0.885  0.00  0.00    +0.000 C 
ENDROOT
BRANCH   1   3
ATOM      2  N1  UNL     1      15.125  11.203  -3.141  0.00  0.00    +0.000 N 
ATOM      3  C7  UNL     1      16.106  10.687  -2.318  0.00  0.00    +0.000 C 
ATOM      4  O1  UNL     1      16.966   9.899  -2.706  0.00  0.00    +0.000 OA
ATOM      5  H12 UNL     1      14.521  11.933  -2.783  0.00  0.00    +0.000 HD
BRANCH   2  11
ATOM      6  C1  UNL     1      15.939  11.845  -5.370  0.00  0.00    +0.000 C 
ATOM      7  C2  UNL     1      15.837  11.574  -6.869  0.00  0.00    +0.000 C 
ATOM      8  C3  UNL     1      14.389  11.602  -7.350  0.00  0.00    +0.000 C 
ATOM      9  C4  UNL     1      13.512  10.647  -6.546  0.00  0.00    +0.000 C 
ATOM     10  C5  UNL     1      13.609  10.919  -5.048  0.00  0.00    +0.000 C 
ATOM     11  C6  UNL     1      15.062  10.882  -4.558  0.00  0.00    +0.000 C 
ENDBRANCH   2  11
ENDBRANCH   1   3
BRANCH   1  12
ATOM     12  N2  UNL     1      17.196  12.094  -0.640  0.00  0.00    +0.000 N 
ATOM     13  C9  UNL     1      17.121  13.447  -0.881  0.00  0.00    +0.000 C 
ATOM     14  O2  UNL     1      16.213  13.979  -1.514  0.00  0.00    +0.000 OA
ATOM     15  H15 UNL     1      17.865  11.833   0.081  0.00  0.00    +0.000 HD
BRANCH  13  16
ATOM     16  C10 UNL     1      18.235  14.189  -0.291  0.00  0.00    +0.000 A 
ATOM     17  C11 UNL     1      18.206  15.480   0.198  0.00  0.00    +0.000 A 
ATOM     18  N3  UNL     1      19.471  15.727   0.652  0.00  0.00    +0.000 N 
ATOM     19  C12 UNL     1      20.219  14.606   0.428  0.00  0.00    +0.000 A 
ATOM     20  N4  UNL     1      19.510  13.658  -0.140  0.00  0.00    +0.000 NA
ATOM     21  H17 UNL     1      19.800  16.582   1.081  0.00  0.00    +0.000 HD
ENDBRANCH  13  16
ENDBRANCH   1  12
TORSDOF 4
ENDMDL
MODEL 4
REMARK VINA RESULT:    -5.335      2.454      3.404
REMARK INTER + INTRA:          -7.062
REMARK INTER:                  -6.601
REMARK INTRA:                  -0.462
REMARK UNBOUND:                -0.480
REMARK  Name = /home/anacleto/Desktop/manuscript_Mpro/naturecomm/supplementary_file_S2/6-chemical-library/molecular_docking/3D_ligand_structure/542.pdb
REMARK  4 active torsions:
REMARK  status: ('A' for Active; 'I' for Inactive)
REMARK    1  A    between atoms: C6_6  and  N1_7
REMARK    2  A    between atoms: C7_8  and  C8_10
REMARK    3  A    between atoms: C8_10  and  N2_11
REMARK    4  A    between atoms: C9_12  and  C10_14
REMARK                            x       y       z     vdW  Elec       q    Type
REMARK                         _______ _______ _______ _____ _____    ______ ____
ROOT
ATOM      1  C8  UNL     1      17.523  10.410  -2.457  0.00  0.00    +0.000 C 
ENDROOT
BRANCH   1   3
ATOM      2  N1  UNL     1      17.762  12.504  -1.219  0.00  0.00    +0.000 N 
ATOM      3  C7  UNL     1      18.112  11.822  -2.367  0.00  0.00    +0.000 C 
ATOM      4  O1  UNL     1      18.865  12.282  -3.222  0.00  0.00    +0.000 OA
ATOM      5  H12 UNL     1      17.230  12.021  -0.505  0.00  0.00    +0.000 HD
BRANCH   2  11
ATOM      6  C1  UNL     1      19.536  13.697  -0.003  0.00  0.00    +0.000 C 
ATOM      7  C2  UNL     1      20.083  15.065   0.393  0.00  0.00    +0.000 C 
ATOM      8  C3  UNL     1      19.007  15.939   1.033  0.00  0.00    +0.000 C 
ATOM      9  C4  UNL     1      17.779  16.063   0.136  0.00  0.00    +0.000 C 
ATOM     10  C5  UNL     1      17.228  14.696  -0.258  0.00  0.00    +0.000 C 
ATOM     11  C6  UNL     1      18.304  13.818  -0.909  0.00  0.00    +0.000 C 
ENDBRANCH   2  11
ENDBRANCH   1   3
BRANCH   1  12
ATOM     12  N2  UNL     1      16.585  10.321  -3.550  0.00  0.00    +0.000 N 
ATOM     13  C9  UNL     1      15.408  11.033  -3.536  0.00  0.00    +0.000 C 
ATOM     14  O2  UNL     1      14.962  11.597  -2.541  0.00  0.00    +0.000 OA
ATOM     15  H15 UNL     1      16.937  10.111  -4.482  0.00  0.00    +0.000 HD
BRANCH  13  16
ATOM     16  C10 UNL     1      14.746  11.057  -4.841  0.00  0.00    +0.000 A 
ATOM     17  C11 UNL     1      13.473  10.607  -5.135  0.00  0.00    +0.000 A 
ATOM     18  N3  UNL     1      13.300  10.850  -6.468  0.00  0.00    +0.000 N 
ATOM     19  C12 UNL     1      14.446  11.425  -6.939  0.00  0.00    +0.000 A 
ATOM     20  N4  UNL     1      15.342  11.565  -5.988  0.00  0.00    +0.000 NA
ATOM     21  H17 UNL     1      12.473  10.646  -7.014  0.00  0.00    +0.000 HD
ENDBRANCH  13  16
ENDBRANCH   1  12
TORSDOF 4
ENDMDL
MODEL 5
REMARK VINA RESULT:    -5.304      2.418      7.254
REMARK INTER + INTRA:          -7.024
REMARK INTER:                  -6.648
REMARK INTRA:                  -0.376
REMARK UNBOUND:                -0.480
REMARK  Name = /home/anacleto/Desktop/manuscript_Mpro/naturecomm/supplementary_file_S2/6-chemical-library/molecular_docking/3D_ligand_structure/542.pdb
REMARK  4 active torsions:
REMARK  status: ('A' for Active; 'I' for Inactive)
REMARK    1  A    between atoms: C6_6  and  N1_7
REMARK    2  A    between atoms: C7_8  and  C8_10
REMARK    3  A    between atoms: C8_10  and  N2_11
REMARK    4  A    between atoms: C9_12  and  C10_14
REMARK                            x       y       z     vdW  Elec       q    Type
REMARK                         _______ _______ _______ _____ _____    ______ ____
ROOT
ATOM      1  C8  UNL     1      16.662  11.963  -1.239  0.00  0.00    +0.000 C 
ENDROOT
BRANCH   1   3
ATOM      2  N1  UNL     1      15.766  11.551  -3.475  0.00  0.00    +0.000 N 
ATOM      3  C7  UNL     1      15.850  12.460  -2.439  0.00  0.00    +0.000 C 
ATOM      4  O1  UNL     1      15.287  13.552  -2.453  0.00  0.00    +0.000 OA
ATOM      5  H12 UNL     1      16.161  10.627  -3.349  0.00  0.00    +0.000 HD
BRANCH   2  11
ATOM      6  C1  UNL     1      13.825  10.773  -4.769  0.00  0.00    +0.000 C 
ATOM      7  C2  UNL     1      13.002  10.973  -6.039  0.00  0.00    +0.000 C 
ATOM      8  C3  UNL     1      13.881  10.972  -7.286  0.00  0.00    +0.000 C 
ATOM      9  C4  UNL     1      15.008  11.994  -7.181  0.00  0.00    +0.000 C 
ATOM     10  C5  UNL     1      15.834  11.793  -5.915  0.00  0.00    +0.000 C 
ATOM     11  C6  UNL     1      14.957  11.804  -4.657  0.00  0.00    +0.000 C 
ENDBRANCH   2  11
ENDBRANCH   1   3
BRANCH   1  12
ATOM     12  N2  UNL     1      17.150  13.077  -0.461  0.00  0.00    +0.000 N 
ATOM     13  C9  UNL     1      18.477  13.439  -0.494  0.00  0.00    +0.000 C 
ATOM     14  O2  UNL     1      19.364  12.743  -0.978  0.00  0.00    +0.000 OA
ATOM     15  H15 UNL     1      16.512  13.839  -0.244  0.00  0.00    +0.000 HD
BRANCH  13  16
ATOM     16  C10 UNL     1      18.719  14.754   0.102  0.00  0.00    +0.000 A 
ATOM     17  C11 UNL     1      19.928  15.256   0.542  0.00  0.00    +0.000 A 
ATOM     18  N3  UNL     1      19.655  16.513   1.002  0.00  0.00    +0.000 N 
ATOM     19  C12 UNL     1      18.317  16.735   0.835  0.00  0.00    +0.000 A 
ATOM     20  N4  UNL     1      17.719  15.697   0.297  0.00  0.00    +0.000 NA
ATOM     21  H17 UNL     1      20.320  17.168   1.392  0.00  0.00    +0.000 HD
ENDBRANCH  13  16
ENDBRANCH   1  12
TORSDOF 4
ENDMDL
MODEL 6
REMARK VINA RESULT:    -5.070      2.522      6.575
REMARK INTER + INTRA:          -6.736
REMARK INTER:                  -6.360
REMARK INTRA:                  -0.376
REMARK UNBOUND:                -0.480
REMARK  Name = /home/anacleto/Desktop/manuscript_Mpro/naturecomm/supplementary_file_S2/6-chemical-library/molecular_docking/3D_ligand_structure/542.pdb
REMARK  4 active torsions:
REMARK  status: ('A' for Active; 'I' for Inactive)
REMARK    1  A    between atoms: C6_6  and  N1_7
REMARK    2  A    between atoms: C7_8  and  C8_10
REMARK    3  A    between atoms: C8_10  and  N2_11
REMARK    4  A    between atoms: C9_12  and  C10_14
REMARK                            x       y       z     vdW  Elec       q    Type
REMARK                         _______ _______ _______ _____ _____    ______ ____
ROOT
ATOM      1  C8  UNL     1      16.755  14.412  -2.549  0.00  0.00    +0.000 C 
ENDROOT
BRANCH   1   3
ATOM      2  N1  UNL     1      15.402  12.882  -3.891  0.00  0.00    +0.000 N 
ATOM      3  C7  UNL     1      16.687  13.270  -3.567  0.00  0.00    +0.000 C 
ATOM      4  O1  UNL     1      17.689  12.778  -4.081  0.00  0.00    +0.000 OA
ATOM      5  H12 UNL     1      14.623  13.408  -3.514  0.00  0.00    +0.000 HD
BRANCH   2  11
ATOM      6  C1  UNL     1      15.079  12.528  -6.303  0.00  0.00    +0.000 C 
ATOM      7  C2  UNL     1      14.730  11.510  -7.385  0.00  0.00    +0.000 C 
ATOM      8  C3  UNL     1      13.436  10.767  -7.065  0.00  0.00    +0.000 C 
ATOM      9  C4  UNL     1      13.485  10.123  -5.684  0.00  0.00    +0.000 C 
ATOM     10  C5  UNL     1      13.828  11.140  -4.600  0.00  0.00    +0.000 C 
ATOM     11  C6  UNL     1      15.134  11.881  -4.912  0.00  0.00    +0.000 C 
ENDBRANCH   2  11
ENDBRANCH   1   3
BRANCH   1  12
ATOM     12  N2  UNL     1      15.445  14.974  -2.328  0.00  0.00    +0.000 N 
ATOM     13  C9  UNL     1      15.199  15.807  -1.261  0.00  0.00    +0.000 C 
ATOM     14  O2  UNL     1      15.971  15.956  -0.317  0.00  0.00    +0.000 OA
ATOM     15  H15 UNL     1      14.836  15.128  -3.129  0.00  0.00    +0.000 HD
BRANCH  13  16
ATOM     16  C10 UNL     1      13.921  16.511  -1.375  0.00  0.00    +0.000 A 
ATOM     17  C11 UNL     1      13.665  17.654  -2.106  0.00  0.00    +0.000 A 
ATOM     18  N3  UNL     1      12.339  17.921  -1.914  0.00  0.00    +0.000 N 
ATOM     19  C12 UNL     1      11.837  16.956  -1.088  0.00  0.00    +0.000 A 
ATOM     20  N4  UNL     1      12.760  16.089  -0.740  0.00  0.00    +0.000 NA
ATOM     21  H17 UNL     1      11.817  18.690  -2.312  0.00  0.00    +0.000 HD
ENDBRANCH  13  16
ENDBRANCH   1  12
TORSDOF 4
ENDMDL
MODEL 7
REMARK VINA RESULT:    -4.914     15.339     17.437
REMARK INTER + INTRA:          -6.543
REMARK INTER:                  -6.185
REMARK INTRA:                  -0.359
REMARK UNBOUND:                -0.480
REMARK  Name = /home/anacleto/Desktop/manuscript_Mpro/naturecomm/supplementary_file_S2/6-chemical-library/molecular_docking/3D_ligand_structure/542.pdb
REMARK  4 active torsions:
REMARK  status: ('A' for Active; 'I' for Inactive)
REMARK    1  A    between atoms: C6_6  and  N1_7
REMARK    2  A    between atoms: C7_8  and  C8_10
REMARK    3  A    between atoms: C8_10  and  N2_11
REMARK    4  A    between atoms: C9_12  and  C10_14
REMARK                            x       y       z     vdW  Elec       q    Type
REMARK                         _______ _______ _______ _____ _____    ______ ____
ROOT
ATOM      1  C8  UNL     1      19.614   4.650   9.433  0.00  0.00    +0.000 C 
ENDROOT
BRANCH   1   3
ATOM      2  N1  UNL     1      17.446   3.558   9.149  0.00  0.00    +0.000 N 
ATOM      3  C7  UNL     1      18.734   3.411   9.625  0.00  0.00    +0.000 C 
ATOM      4  O1  UNL     1      19.156   2.367  10.118  0.00  0.00    +0.000 OA
ATOM      5  H12 UNL     1      17.202   4.406   8.654  0.00  0.00    +0.000 HD
BRANCH   2  11
ATOM      6  C1  UNL     1      16.131   2.050   7.719  0.00  0.00    +0.000 C 
ATOM      7  C2  UNL     1      15.080   0.943   7.696  0.00  0.00    +0.000 C 
ATOM      8  C3  UNL     1      13.838   1.328   8.495  0.00  0.00    +0.000 C 
ATOM      9  C4  UNL     1      14.193   1.735   9.922  0.00  0.00    +0.000 C 
ATOM     10  C5  UNL     1      15.240   2.844   9.948  0.00  0.00    +0.000 C 
ATOM     11  C6  UNL     1      16.494   2.458   9.154  0.00  0.00    +0.000 C 
ENDBRANCH   2  11
ENDBRANCH   1   3
BRANCH   1  12
ATOM     12  N2  UNL     1      19.695   5.410  10.657  0.00  0.00    +0.000 N 
ATOM     13  C9  UNL     1      19.496   6.771  10.663  0.00  0.00    +0.000 C 
ATOM     14  O2  UNL     1      19.465   7.462   9.649  0.00  0.00    +0.000 OA
ATOM     15  H15 UNL     1      19.468   4.949  11.535  0.00  0.00    +0.000 HD
BRANCH  13  16
ATOM     16  C10 UNL     1      19.313   7.310  12.011  0.00  0.00    +0.000 A 
ATOM     17  C11 UNL     1      18.118   7.653  12.613  0.00  0.00    +0.000 A 
ATOM     18  N3  UNL     1      18.452   8.092  13.863  0.00  0.00    +0.000 N 
ATOM     19  C12 UNL     1      19.810   8.009  13.983  0.00  0.00    +0.000 A 
ATOM     20  N4  UNL     1      20.365   7.544  12.888  0.00  0.00    +0.000 NA
ATOM     21  H17 UNL     1      17.813   8.418  14.576  0.00  0.00    +0.000 HD
ENDBRANCH  13  16
ENDBRANCH   1  12
TORSDOF 4
ENDMDL
MODEL 8
REMARK VINA RESULT:    -4.880     16.152     18.271
REMARK INTER + INTRA:          -6.501
REMARK INTER:                  -6.083
REMARK INTRA:                  -0.418
REMARK UNBOUND:                -0.480
REMARK  Name = /home/anacleto/Desktop/manuscript_Mpro/naturecomm/supplementary_file_S2/6-chemical-library/molecular_docking/3D_ligand_structure/542.pdb
REMARK  4 active torsions:
REMARK  status: ('A' for Active; 'I' for Inactive)
REMARK    1  A    between atoms: C6_6  and  N1_7
REMARK    2  A    between atoms: C7_8  and  C8_10
REMARK    3  A    between atoms: C8_10  and  N2_11
REMARK    4  A    between atoms: C9_12  and  C10_14
REMARK                            x       y       z     vdW  Elec       q    Type
REMARK                         _______ _______ _______ _____ _____    ______ ____
ROOT
ATOM      1  C8  UNL     1      15.544   4.240  13.585  0.00  0.00    +0.000 C 
ENDROOT
BRANCH   1   3
ATOM      2  N1  UNL     1      15.855   3.374  11.320  0.00  0.00    +0.000 N 
ATOM      3  C7  UNL     1      14.960   3.953  12.198  0.00  0.00    +0.000 C 
ATOM      4  O1  UNL     1      13.785   4.178  11.913  0.00  0.00    +0.000 OA
ATOM      5  H12 UNL     1      16.773   3.115  11.658  0.00  0.00    +0.000 HD
BRANCH   2  11
ATOM      6  C1  UNL     1      15.053   1.459  10.003  0.00  0.00    +0.000 C 
ATOM      7  C2  UNL     1      14.696   0.959   8.606  0.00  0.00    +0.000 C 
ATOM      8  C3  UNL     1      15.823   1.219   7.609  0.00  0.00    +0.000 C 
ATOM      9  C4  UNL     1      16.229   2.689   7.592  0.00  0.00    +0.000 C 
ATOM     10  C5  UNL     1      16.589   3.190   8.988  0.00  0.00    +0.000 C 
ATOM     11  C6  UNL     1      15.456   2.939   9.990  0.00  0.00    +0.000 C 
ENDBRANCH   2  11
ENDBRANCH   1   3
BRANCH   1  12
ATOM     12  N2  UNL     1      16.385   5.412  13.548  0.00  0.00    +0.000 N 
ATOM     13  C9  UNL     1      17.710   5.347  13.914  0.00  0.00    +0.000 C 
ATOM     14  O2  UNL     1      18.213   4.390  14.497  0.00  0.00    +0.000 OA
ATOM     15  H15 UNL     1      16.170   6.148  12.880  0.00  0.00    +0.000 HD
BRANCH  13  16
ATOM     16  C10 UNL     1      18.464   6.539  13.522  0.00  0.00    +0.000 A 
ATOM     17  C11 UNL     1      18.095   7.484  12.585  0.00  0.00    +0.000 A 
ATOM     18  N3  UNL     1      19.104   8.404  12.578  0.00  0.00    +0.000 N 
ATOM     19  C12 UNL     1      20.040   8.001  13.488  0.00  0.00    +0.000 A 
ATOM     20  N4  UNL     1      19.691   6.880  14.076  0.00  0.00    +0.000 NA
ATOM     21  H17 UNL     1      19.154   9.237  12.007  0.00  0.00    +0.000 HD
ENDBRANCH  13  16
ENDBRANCH   1  12
TORSDOF 4
ENDMDL
MODEL 9
REMARK VINA RESULT:    -4.772     14.770     16.180
REMARK INTER + INTRA:          -6.367
REMARK INTER:                  -5.887
REMARK INTRA:                  -0.480
REMARK UNBOUND:                -0.480
REMARK  Name = /home/anacleto/Desktop/manuscript_Mpro/naturecomm/supplementary_file_S2/6-chemical-library/molecular_docking/3D_ligand_structure/542.pdb
REMARK  4 active torsions:
REMARK  status: ('A' for Active; 'I' for Inactive)
REMARK    1  A    between atoms: C6_6  and  N1_7
REMARK    2  A    between atoms: C7_8  and  C8_10
REMARK    3  A    between atoms: C8_10  and  N2_11
REMARK    4  A    between atoms: C9_12  and  C10_14
REMARK                            x       y       z     vdW  Elec       q    Type
REMARK                         _______ _______ _______ _____ _____    ______ ____
ROOT
ATOM      1  C8  UNL     1      16.517   3.964  12.599  0.00  0.00    +0.000 C 
ENDROOT
BRANCH   1   3
ATOM      2  N1  UNL     1      18.238   5.092  11.280  0.00  0.00    +0.000 N 
ATOM      3  C7  UNL     1      17.459   5.159  12.418  0.00  0.00    +0.000 C 
ATOM      4  O1  UNL     1      17.481   6.110  13.195  0.00  0.00    +0.000 OA
ATOM      5  H12 UNL     1      18.086   4.333  10.627  0.00  0.00    +0.000 HD
BRANCH   2  11
ATOM      6  C1  UNL     1      18.902   6.549   9.414  0.00  0.00    +0.000 C 
ATOM      7  C2  UNL     1      19.865   7.642   8.956  0.00  0.00    +0.000 C 
ATOM      8  C3  UNL     1      21.318   7.260   9.223  0.00  0.00    +0.000 C 
ATOM      9  C4  UNL     1      21.542   6.890  10.686  0.00  0.00    +0.000 C 
ATOM     10  C5  UNL     1      20.583   5.796  11.144  0.00  0.00    +0.000 C 
ATOM     11  C6  UNL     1      19.121   6.179  10.887  0.00  0.00    +0.000 C 
ENDBRANCH   2  11
ENDBRANCH   1   3
BRANCH   1  12
ATOM     12  N2  UNL     1      16.478   3.163  11.399  0.00  0.00    +0.000 N 
ATOM     13  C9  UNL     1      15.319   3.035  10.668  0.00  0.00    +0.000 C 
ATOM     14  O2  UNL     1      14.213   3.380  11.074  0.00  0.00    +0.000 OA
ATOM     15  H15 UNL     1      17.331   3.053  10.856  0.00  0.00    +0.000 HD
BRANCH  13  16
ATOM     16  C10 UNL     1      15.546   2.451   9.346  0.00  0.00    +0.000 A 
ATOM     17  C11 UNL     1      16.378   2.938   8.356  0.00  0.00    +0.000 A 
ATOM     18  N3  UNL     1      16.267   2.054   7.320  0.00  0.00    +0.000 N 
ATOM     19  C12 UNL     1      15.389   1.079   7.698  0.00  0.00    +0.000 A 
ATOM     20  N4  UNL     1      14.931   1.285   8.912  0.00  0.00    +0.000 NA
ATOM     21  H17 UNL     1      16.749   2.105   6.432  0.00  0.00    +0.000 HD
ENDBRANCH  13  16
ENDBRANCH   1  12
TORSDOF 4
ENDMDL
