MODEL 1
REMARK VINA RESULT:    -3.918      0.000      0.000
REMARK INTER + INTRA:          -3.918
REMARK INTER:                  -3.918
REMARK INTRA:                   0.000
REMARK UNBOUND:                 0.000
REMARK  Name = /home/anacleto/Desktop/manuscript_Mpro/naturecomm/supplementary_file_S2/6-chemical-library/molecular_docking/3D_ligand_structure/266.pdb
REMARK  0 active torsions:
REMARK  status: ('A' for Active; 'I' for Inactive)
REMARK                            x       y       z     vdW  Elec       q    Type
REMARK                         _______ _______ _______ _____ _____    ______ ____
ROOT
ATOM      1  C1  UNL     1      16.467  11.806  -7.364  0.00  0.00    +0.000 A 
ATOM      2  C2  UNL     1      17.658  11.929  -6.680  0.00  0.00    +0.000 A 
ATOM      3  S1  UNL     1      17.480  11.607  -5.006  0.00  0.00    +0.000 S 
ATOM      4  C3  UNL     1      15.818  11.301  -5.192  0.00  0.00    +0.000 A 
ATOM      5  C4  UNL     1      15.394  11.445  -6.500  0.00  0.00    +0.000 A 
ATOM      6  C5  UNL     1      14.924  10.951  -4.040  0.00  0.00    +0.000 C 
ATOM      7  N1  UNL     1      13.664  10.338  -4.514  0.00  0.00    +0.000 NA
ATOM      8  C6  UNL     1      13.072  11.144  -5.603  0.00  0.00    +0.000 C 
ATOM      9  C7  UNL     1      13.961  11.203  -6.866  0.00  0.00    +0.000 C 
ATOM     10  H5  UNL     1      13.897   9.418  -4.889  0.00  0.00    +0.000 HD
ENDROOT
TORSDOF 0
ENDMDL
MODEL 2
REMARK VINA RESULT:    -3.644      1.568      1.593
REMARK INTER + INTRA:          -3.644
REMARK INTER:                  -3.644
REMARK INTRA:                   0.000
REMARK UNBOUND:                 0.000
REMARK  Name = /home/anacleto/Desktop/manuscript_Mpro/naturecomm/supplementary_file_S2/6-chemical-library/molecular_docking/3D_ligand_structure/266.pdb
REMARK  0 active torsions:
REMARK  status: ('A' for Active; 'I' for Inactive)
REMARK                            x       y       z     vdW  Elec       q    Type
REMARK                         _______ _______ _______ _____ _____    ______ ____
ROOT
ATOM      1  C1  UNL     1      15.609  13.264  -7.316  0.00  0.00    +0.000 A 
ATOM      2  C2  UNL     1      16.309  14.244  -6.644  0.00  0.00    +0.000 A 
ATOM      3  S1  UNL     1      16.208  14.062  -4.943  0.00  0.00    +0.000 S 
ATOM      4  C3  UNL     1      15.236  12.676  -5.100  0.00  0.00    +0.000 A 
ATOM      5  C4  UNL     1      14.980  12.353  -6.419  0.00  0.00    +0.000 A 
ATOM      6  C5  UNL     1      14.697  11.927  -3.918  0.00  0.00    +0.000 C 
ATOM      7  N1  UNL     1      14.256  10.569  -4.307  0.00  0.00    +0.000 NA
ATOM      8  C6  UNL     1      13.403  10.626  -5.513  0.00  0.00    +0.000 C 
ATOM      9  C7  UNL     1      14.150  11.153  -6.760  0.00  0.00    +0.000 C 
ATOM     10  H5  UNL     1      15.094  10.033  -4.535  0.00  0.00    +0.000 HD
ENDROOT
TORSDOF 0
ENDMDL
MODEL 3
REMARK VINA RESULT:    -3.564     18.020     19.313
REMARK INTER + INTRA:          -3.564
REMARK INTER:                  -3.564
REMARK INTRA:                   0.000
REMARK UNBOUND:                 0.000
REMARK  Name = /home/anacleto/Desktop/manuscript_Mpro/naturecomm/supplementary_file_S2/6-chemical-library/molecular_docking/3D_ligand_structure/266.pdb
REMARK  0 active torsions:
REMARK  status: ('A' for Active; 'I' for Inactive)
REMARK                            x       y       z     vdW  Elec       q    Type
REMARK                         _______ _______ _______ _____ _____    ______ ____
ROOT
ATOM      1  C1  UNL     1      17.942   7.568  12.704  0.00  0.00    +0.000 A 
ATOM      2  C2  UNL     1      18.087   7.700  14.069  0.00  0.00    +0.000 A 
ATOM      3  S1  UNL     1      19.727   7.610  14.559  0.00  0.00    +0.000 S 
ATOM      4  C3  UNL     1      20.245   7.399  12.953  0.00  0.00    +0.000 A 
ATOM      5  C4  UNL     1      19.196   7.389  12.053  0.00  0.00    +0.000 A 
ATOM      6  C5  UNL     1      21.686   7.210  12.585  0.00  0.00    +0.000 C 
ATOM      7  N1  UNL     1      21.903   7.469  11.144  0.00  0.00    +0.000 NA
ATOM      8  C6  UNL     1      20.901   6.748  10.330  0.00  0.00    +0.000 C 
ATOM      9  C7  UNL     1      19.454   7.227  10.586  0.00  0.00    +0.000 C 
ATOM     10  H5  UNL     1      21.776   8.470  10.994  0.00  0.00    +0.000 HD
ENDROOT
TORSDOF 0
ENDMDL
MODEL 4
REMARK VINA RESULT:    -3.425      1.332      2.186
REMARK INTER + INTRA:          -3.425
REMARK INTER:                  -3.425
REMARK INTRA:                   0.000
REMARK UNBOUND:                 0.000
REMARK  Name = /home/anacleto/Desktop/manuscript_Mpro/naturecomm/supplementary_file_S2/6-chemical-library/molecular_docking/3D_ligand_structure/266.pdb
REMARK  0 active torsions:
REMARK  status: ('A' for Active; 'I' for Inactive)
REMARK                            x       y       z     vdW  Elec       q    Type
REMARK                         _______ _______ _______ _____ _____    ______ ____
ROOT
ATOM      1  C1  UNL     1      17.139  10.787  -4.626  0.00  0.00    +0.000 A 
ATOM      2  C2  UNL     1      18.057  11.001  -5.632  0.00  0.00    +0.000 A 
ATOM      3  S1  UNL     1      17.310  11.480  -7.099  0.00  0.00    +0.000 S 
ATOM      4  C3  UNL     1      15.765  11.406  -6.393  0.00  0.00    +0.000 A 
ATOM      5  C4  UNL     1      15.804  11.018  -5.067  0.00  0.00    +0.000 A 
ATOM      6  C5  UNL     1      14.510  11.699  -7.159  0.00  0.00    +0.000 C 
ATOM      7  N1  UNL     1      13.381  11.972  -6.243  0.00  0.00    +0.000 NA
ATOM      8  C6  UNL     1      13.301  10.934  -5.194  0.00  0.00    +0.000 C 
ATOM      9  C7  UNL     1      14.540  10.908  -4.270  0.00  0.00    +0.000 C 
ATOM     10  H5  UNL     1      13.568  12.868  -5.791  0.00  0.00    +0.000 HD
ENDROOT
TORSDOF 0
ENDMDL
MODEL 5
REMARK VINA RESULT:    -3.388      1.832      2.685
REMARK INTER + INTRA:          -3.388
REMARK INTER:                  -3.388
REMARK INTRA:                   0.000
REMARK UNBOUND:                 0.000
REMARK  Name = /home/anacleto/Desktop/manuscript_Mpro/naturecomm/supplementary_file_S2/6-chemical-library/molecular_docking/3D_ligand_structure/266.pdb
REMARK  0 active torsions:
REMARK  status: ('A' for Active; 'I' for Inactive)
REMARK                            x       y       z     vdW  Elec       q    Type
REMARK                         _______ _______ _______ _____ _____    ______ ____
ROOT
ATOM      1  C1  UNL     1      14.811  12.370  -6.249  0.00  0.00    +0.000 A 
ATOM      2  C2  UNL     1      15.575  12.532  -7.386  0.00  0.00    +0.000 A 
ATOM      3  S1  UNL     1      17.108  11.778  -7.249  0.00  0.00    +0.000 S 
ATOM      4  C3  UNL     1      16.755  11.233  -5.678  0.00  0.00    +0.000 A 
ATOM      5  C4  UNL     1      15.497  11.617  -5.252  0.00  0.00    +0.000 A 
ATOM      6  C5  UNL     1      17.732  10.452  -4.852  0.00  0.00    +0.000 C 
ATOM      7  N1  UNL     1      17.050   9.758  -3.737  0.00  0.00    +0.000 NA
ATOM      8  C6  UNL     1      16.154  10.689  -3.018  0.00  0.00    +0.000 C 
ATOM      9  C7  UNL     1      14.998  11.219  -3.897  0.00  0.00    +0.000 C 
ATOM     10  H5  UNL     1      16.479   9.018  -4.146  0.00  0.00    +0.000 HD
ENDROOT
TORSDOF 0
ENDMDL
MODEL 6
REMARK VINA RESULT:    -3.294      2.078      3.307
REMARK INTER + INTRA:          -3.294
REMARK INTER:                  -3.294
REMARK INTRA:                   0.000
REMARK UNBOUND:                 0.000
REMARK  Name = /home/anacleto/Desktop/manuscript_Mpro/naturecomm/supplementary_file_S2/6-chemical-library/molecular_docking/3D_ligand_structure/266.pdb
REMARK  0 active torsions:
REMARK  status: ('A' for Active; 'I' for Inactive)
REMARK                            x       y       z     vdW  Elec       q    Type
REMARK                         _______ _______ _______ _____ _____    ______ ____
ROOT
ATOM      1  C1  UNL     1      14.296  11.913  -6.938  0.00  0.00    +0.000 A 
ATOM      2  C2  UNL     1      13.500  11.678  -5.836  0.00  0.00    +0.000 A 
ATOM      3  S1  UNL     1      14.397  11.085  -4.502  0.00  0.00    +0.000 S 
ATOM      4  C3  UNL     1      15.847  11.144  -5.388  0.00  0.00    +0.000 A 
ATOM      5  C4  UNL     1      15.662  11.599  -6.681  0.00  0.00    +0.000 A 
ATOM      6  C5  UNL     1      17.163  10.709  -4.818  0.00  0.00    +0.000 C 
ATOM      7  N1  UNL     1      18.289  11.243  -5.616  0.00  0.00    +0.000 NA
ATOM      8  C6  UNL     1      18.067  10.997  -7.057  0.00  0.00    +0.000 C 
ATOM      9  C7  UNL     1      16.827  11.733  -7.613  0.00  0.00    +0.000 C 
ATOM     10  H5  UNL     1      18.316  12.251  -5.465  0.00  0.00    +0.000 HD
ENDROOT
TORSDOF 0
ENDMDL
MODEL 7
REMARK VINA RESULT:    -3.277      6.895      7.671
REMARK INTER + INTRA:          -3.277
REMARK INTER:                  -3.277
REMARK INTRA:                   0.000
REMARK UNBOUND:                 0.000
REMARK  Name = /home/anacleto/Desktop/manuscript_Mpro/naturecomm/supplementary_file_S2/6-chemical-library/molecular_docking/3D_ligand_structure/266.pdb
REMARK  0 active torsions:
REMARK  status: ('A' for Active; 'I' for Inactive)
REMARK                            x       y       z     vdW  Elec       q    Type
REMARK                         _______ _______ _______ _____ _____    ______ ____
ROOT
ATOM      1  C1  UNL     1      20.773  14.883   0.191  0.00  0.00    +0.000 A 
ATOM      2  C2  UNL     1      20.671  16.221   0.510  0.00  0.00    +0.000 A 
ATOM      3  S1  UNL     1      19.050  16.775   0.467  0.00  0.00    +0.000 S 
ATOM      4  C3  UNL     1      18.483  15.233   0.028  0.00  0.00    +0.000 A 
ATOM      5  C4  UNL     1      19.502  14.307  -0.094  0.00  0.00    +0.000 A 
ATOM      6  C5  UNL     1      17.034  14.946  -0.230  0.00  0.00    +0.000 C 
ATOM      7  N1  UNL     1      16.764  13.492  -0.177  0.00  0.00    +0.000 NA
ATOM      8  C6  UNL     1      17.752  12.751  -0.991  0.00  0.00    +0.000 C 
ATOM      9  C7  UNL     1      19.198  12.886  -0.461  0.00  0.00    +0.000 C 
ATOM     10  H5  UNL     1      16.869  13.200   0.795  0.00  0.00    +0.000 HD
ENDROOT
TORSDOF 0
ENDMDL
MODEL 8
REMARK VINA RESULT:    -3.239     16.079     17.646
REMARK INTER + INTRA:          -3.239
REMARK INTER:                  -3.239
REMARK INTRA:                   0.000
REMARK UNBOUND:                 0.000
REMARK  Name = /home/anacleto/Desktop/manuscript_Mpro/naturecomm/supplementary_file_S2/6-chemical-library/molecular_docking/3D_ligand_structure/266.pdb
REMARK  0 active torsions:
REMARK  status: ('A' for Active; 'I' for Inactive)
REMARK                            x       y       z     vdW  Elec       q    Type
REMARK                         _______ _______ _______ _____ _____    ______ ____
ROOT
ATOM      1  C1  UNL     1      18.888   7.600  11.811  0.00  0.00    +0.000 A 
ATOM      2  C2  UNL     1      18.472   6.718  12.786  0.00  0.00    +0.000 A 
ATOM      3  S1  UNL     1      18.452   5.098  12.229  0.00  0.00    +0.000 S 
ATOM      4  C3  UNL     1      19.001   5.569  10.690  0.00  0.00    +0.000 A 
ATOM      5  C4  UNL     1      19.192   6.934  10.589  0.00  0.00    +0.000 A 
ATOM      6  C5  UNL     1      19.211   4.593   9.571  0.00  0.00    +0.000 C 
ATOM      7  N1  UNL     1      20.066   5.176   8.513  0.00  0.00    +0.000 NA
ATOM      8  C6  UNL     1      19.590   6.527   8.147  0.00  0.00    +0.000 C 
ATOM      9  C7  UNL     1      19.686   7.540   9.310  0.00  0.00    +0.000 C 
ATOM     10  H5  UNL     1      21.007   5.262   8.898  0.00  0.00    +0.000 HD
ENDROOT
TORSDOF 0
ENDMDL
MODEL 9
REMARK VINA RESULT:    -3.191      1.739      2.721
REMARK INTER + INTRA:          -3.191
REMARK INTER:                  -3.191
REMARK INTRA:                   0.000
REMARK UNBOUND:                 0.000
REMARK  Name = /home/anacleto/Desktop/manuscript_Mpro/naturecomm/supplementary_file_S2/6-chemical-library/molecular_docking/3D_ligand_structure/266.pdb
REMARK  0 active torsions:
REMARK  status: ('A' for Active; 'I' for Inactive)
REMARK                            x       y       z     vdW  Elec       q    Type
REMARK                         _______ _______ _______ _____ _____    ______ ____
ROOT
ATOM      1  C1  UNL     1      17.569  11.394  -6.329  0.00  0.00    +0.000 A 
ATOM      2  C2  UNL     1      16.666  11.684  -7.330  0.00  0.00    +0.000 A 
ATOM      3  S1  UNL     1      15.044  11.597  -6.785  0.00  0.00    +0.000 S 
ATOM      4  C3  UNL     1      15.542  11.178  -5.215  0.00  0.00    +0.000 A 
ATOM      5  C4  UNL     1      16.917  11.096  -5.098  0.00  0.00    +0.000 A 
ATOM      6  C5  UNL     1      14.574  10.898  -4.105  0.00  0.00    +0.000 C 
ATOM      7  N1  UNL     1      15.242  10.975  -2.786  0.00  0.00    +0.000 NA
ATOM      8  C6  UNL     1      16.498  10.196  -2.795  0.00  0.00    +0.000 C 
ATOM      9  C7  UNL     1      17.549  10.750  -3.784  0.00  0.00    +0.000 C 
ATOM     10  H5  UNL     1      15.475  11.954  -2.622  0.00  0.00    +0.000 HD
ENDROOT
TORSDOF 0
ENDMDL
