MODEL 1
REMARK VINA RESULT:    -5.132      0.000      0.000
REMARK INTER + INTRA:          -8.575
REMARK INTER:                  -6.215
REMARK INTRA:                  -2.360
REMARK UNBOUND:                -1.642
REMARK  Name = /home/anacleto/Desktop/manuscript_Mpro/naturecomm/supplementary_file_S2/6-chemical-library/molecular_docking/3D_ligand_structure/524.pdb
REMARK  6 active torsions:
REMARK  status: ('A' for Active; 'I' for Inactive)
REMARK    1  A    between atoms: C6_6  and  C7_7
REMARK    2  A    between atoms: C8_8  and  C9_9
REMARK    3  A    between atoms: C9_9  and  O2_11
REMARK    4  A    between atoms: O2_11  and  C10_12
REMARK    5  A    between atoms: C10_12  and  C11_13
REMARK    6  A    between atoms: C11_13  and  C12_14
REMARK                            x       y       z     vdW  Elec       q    Type
REMARK                         _______ _______ _______ _____ _____    ______ ____
ROOT
ATOM      1  C9  UNL     1      14.843  15.447  -2.043  0.00  0.00    +0.000 C 
ATOM      2  O1  UNL     1      14.100  16.314  -1.616  0.00  0.00    +0.000 OA
ENDROOT
BRANCH   1   4
ATOM      3  C7  UNL     1      15.089  14.189  -4.119  0.00  0.00    +0.000 C 
ATOM      4  C8  UNL     1      14.448  14.352  -2.953  0.00  0.00    +0.000 C 
BRANCH   3  10
ATOM      5  C1  UNL     1      15.399  13.050  -6.342  0.00  0.00    +0.000 A 
ATOM      6  C2  UNL     1      15.036  12.055  -7.254  0.00  0.00    +0.000 A 
ATOM      7  C3  UNL     1      14.027  11.150  -6.937  0.00  0.00    +0.000 A 
ATOM      8  C4  UNL     1      13.374  11.241  -5.709  0.00  0.00    +0.000 A 
ATOM      9  C5  UNL     1      13.735  12.237  -4.797  0.00  0.00    +0.000 A 
ATOM     10  C6  UNL     1      14.761  13.142  -5.097  0.00  0.00    +0.000 A 
ENDBRANCH   3  10
ENDBRANCH   1   4
BRANCH   1  11
ATOM     11  O2  UNL     1      16.165  15.307  -1.773  0.00  0.00    +0.000 OA
BRANCH  11  12
ATOM     12  C10 UNL     1      16.470  14.616  -0.550  0.00  0.00    +0.000 C 
BRANCH  12  13
ATOM     13  C11 UNL     1      17.684  13.706  -0.735  0.00  0.00    +0.000 C 
BRANCH  13  14
ATOM     14  C12 UNL     1      17.405  12.588  -1.705  0.00  0.00    +0.000 A 
ATOM     15  C13 UNL     1      18.112  12.507  -2.911  0.00  0.00    +0.000 A 
ATOM     16  C14 UNL     1      17.843  11.483  -3.821  0.00  0.00    +0.000 A 
ATOM     17  C15 UNL     1      16.862  10.535  -3.535  0.00  0.00    +0.000 A 
ATOM     18  C16 UNL     1      16.150  10.610  -2.340  0.00  0.00    +0.000 A 
ATOM     19  C17 UNL     1      16.418  11.633  -1.428  0.00  0.00    +0.000 A 
ENDBRANCH  13  14
ENDBRANCH  12  13
ENDBRANCH  11  12
ENDBRANCH   1  11
TORSDOF 6
ENDMDL
MODEL 2
REMARK VINA RESULT:    -5.129     14.973     17.677
REMARK INTER + INTRA:          -8.571
REMARK INTER:                  -7.144
REMARK INTRA:                  -1.426
REMARK UNBOUND:                -1.642
REMARK  Name = /home/anacleto/Desktop/manuscript_Mpro/naturecomm/supplementary_file_S2/6-chemical-library/molecular_docking/3D_ligand_structure/524.pdb
REMARK  6 active torsions:
REMARK  status: ('A' for Active; 'I' for Inactive)
REMARK    1  A    between atoms: C6_6  and  C7_7
REMARK    2  A    between atoms: C8_8  and  C9_9
REMARK    3  A    between atoms: C9_9  and  O2_11
REMARK    4  A    between atoms: O2_11  and  C10_12
REMARK    5  A    between atoms: C10_12  and  C11_13
REMARK    6  A    between atoms: C11_13  and  C12_14
REMARK                            x       y       z     vdW  Elec       q    Type
REMARK                         _______ _______ _______ _____ _____    ______ ____
ROOT
ATOM      1  C9  UNL     1      23.772   6.602  12.557  0.00  0.00    +0.000 C 
ATOM      2  O1  UNL     1      24.556   7.305  13.171  0.00  0.00    +0.000 OA
ENDROOT
BRANCH   1   4
ATOM      3  C7  UNL     1      21.635   7.630  13.131  0.00  0.00    +0.000 C 
ATOM      4  C8  UNL     1      22.318   6.523  12.804  0.00  0.00    +0.000 C 
BRANCH   3  10
ATOM      5  C1  UNL     1      19.682   7.793  14.708  0.00  0.00    +0.000 A 
ATOM      6  C2  UNL     1      18.302   7.782  14.933  0.00  0.00    +0.000 A 
ATOM      7  C3  UNL     1      17.421   7.620  13.867  0.00  0.00    +0.000 A 
ATOM      8  C4  UNL     1      17.918   7.463  12.575  0.00  0.00    +0.000 A 
ATOM      9  C5  UNL     1      19.297   7.473  12.349  0.00  0.00    +0.000 A 
ATOM     10  C6  UNL     1      20.193   7.653  13.411  0.00  0.00    +0.000 A 
ENDBRANCH   3  10
ENDBRANCH   1   4
BRANCH   1  11
ATOM     11  O2  UNL     1      24.068   5.755  11.539  0.00  0.00    +0.000 OA
BRANCH  11  12
ATOM     12  C10 UNL     1      22.945   5.056  10.977  0.00  0.00    +0.000 C 
BRANCH  12  13
ATOM     13  C11 UNL     1      22.814   5.363   9.486  0.00  0.00    +0.000 C 
BRANCH  13  14
ATOM     14  C12 UNL     1      21.471   5.957   9.150  0.00  0.00    +0.000 A 
ATOM     15  C13 UNL     1      21.283   7.345   9.192  0.00  0.00    +0.000 A 
ATOM     16  C14 UNL     1      20.035   7.898   8.901  0.00  0.00    +0.000 A 
ATOM     17  C15 UNL     1      18.964   7.070   8.571  0.00  0.00    +0.000 A 
ATOM     18  C16 UNL     1      19.140   5.688   8.531  0.00  0.00    +0.000 A 
ATOM     19  C17 UNL     1      20.388   5.132   8.822  0.00  0.00    +0.000 A 
ENDBRANCH  13  14
ENDBRANCH  12  13
ENDBRANCH  11  12
ENDBRANCH   1  11
TORSDOF 6
ENDMDL
MODEL 3
REMARK VINA RESULT:    -5.093      2.525      4.981
REMARK INTER + INTRA:          -8.522
REMARK INTER:                  -6.171
REMARK INTRA:                  -2.350
REMARK UNBOUND:                -1.642
REMARK  Name = /home/anacleto/Desktop/manuscript_Mpro/naturecomm/supplementary_file_S2/6-chemical-library/molecular_docking/3D_ligand_structure/524.pdb
REMARK  6 active torsions:
REMARK  status: ('A' for Active; 'I' for Inactive)
REMARK    1  A    between atoms: C6_6  and  C7_7
REMARK    2  A    between atoms: C8_8  and  C9_9
REMARK    3  A    between atoms: C9_9  and  O2_11
REMARK    4  A    between atoms: O2_11  and  C10_12
REMARK    5  A    between atoms: C10_12  and  C11_13
REMARK    6  A    between atoms: C11_13  and  C12_14
REMARK                            x       y       z     vdW  Elec       q    Type
REMARK                         _______ _______ _______ _____ _____    ______ ____
ROOT
ATOM      1  C9  UNL     1      13.211  11.796  -5.803  0.00  0.00    +0.000 C 
ATOM      2  O1  UNL     1      12.015  11.597  -5.681  0.00  0.00    +0.000 OA
ENDROOT
BRANCH   1   4
ATOM      3  C7  UNL     1      14.512  11.664  -3.743  0.00  0.00    +0.000 C 
ATOM      4  C8  UNL     1      14.088  12.401  -4.780  0.00  0.00    +0.000 C 
BRANCH   3  10
ATOM      5  C1  UNL     1      15.997  11.334  -1.739  0.00  0.00    +0.000 A 
ATOM      6  C2  UNL     1      16.784  11.866  -0.714  0.00  0.00    +0.000 A 
ATOM      7  C3  UNL     1      16.946  13.245  -0.601  0.00  0.00    +0.000 A 
ATOM      8  C4  UNL     1      16.316  14.093  -1.508  0.00  0.00    +0.000 A 
ATOM      9  C5  UNL     1      15.528  13.562  -2.533  0.00  0.00    +0.000 A 
ATOM     10  C6  UNL     1      15.371  12.177  -2.667  0.00  0.00    +0.000 A 
ENDBRANCH   3  10
ENDBRANCH   1   4
BRANCH   1  11
ATOM     11  O2  UNL     1      13.973  11.512  -6.889  0.00  0.00    +0.000 OA
BRANCH  11  12
ATOM     12  C10 UNL     1      15.087  12.395  -7.104  0.00  0.00    +0.000 C 
BRANCH  12  13
ATOM     13  C11 UNL     1      16.374  11.596  -7.304  0.00  0.00    +0.000 C 
BRANCH  13  14
ATOM     14  C12 UNL     1      17.257  11.637  -6.084  0.00  0.00    +0.000 A 
ATOM     15  C13 UNL     1      17.769  12.858  -5.625  0.00  0.00    +0.000 A 
ATOM     16  C14 UNL     1      18.605  12.898  -4.507  0.00  0.00    +0.000 A 
ATOM     17  C15 UNL     1      18.939  11.719  -3.843  0.00  0.00    +0.000 A 
ATOM     18  C16 UNL     1      18.439  10.500  -4.296  0.00  0.00    +0.000 A 
ATOM     19  C17 UNL     1      17.603  10.457  -5.414  0.00  0.00    +0.000 A 
ENDBRANCH  13  14
ENDBRANCH  12  13
ENDBRANCH  11  12
ENDBRANCH   1  11
TORSDOF 6
ENDMDL
MODEL 4
REMARK VINA RESULT:    -4.992     15.515     17.736
REMARK INTER + INTRA:          -8.386
REMARK INTER:                  -5.957
REMARK INTRA:                  -2.429
REMARK UNBOUND:                -1.642
REMARK  Name = /home/anacleto/Desktop/manuscript_Mpro/naturecomm/supplementary_file_S2/6-chemical-library/molecular_docking/3D_ligand_structure/524.pdb
REMARK  6 active torsions:
REMARK  status: ('A' for Active; 'I' for Inactive)
REMARK    1  A    between atoms: C6_6  and  C7_7
REMARK    2  A    between atoms: C8_8  and  C9_9
REMARK    3  A    between atoms: C9_9  and  O2_11
REMARK    4  A    between atoms: O2_11  and  C10_12
REMARK    5  A    between atoms: C10_12  and  C11_13
REMARK    6  A    between atoms: C11_13  and  C12_14
REMARK                            x       y       z     vdW  Elec       q    Type
REMARK                         _______ _______ _______ _____ _____    ______ ____
ROOT
ATOM      1  C9  UNL     1      17.472   7.675  14.215  0.00  0.00    +0.000 C 
ATOM      2  O1  UNL     1      16.332   7.972  14.528  0.00  0.00    +0.000 OA
ENDROOT
BRANCH   1   4
ATOM      3  C7  UNL     1      18.634   7.552  12.073  0.00  0.00    +0.000 C 
ATOM      4  C8  UNL     1      17.862   6.949  12.989  0.00  0.00    +0.000 C 
BRANCH   3  10
ATOM      5  C1  UNL     1      18.805   5.575  10.526  0.00  0.00    +0.000 A 
ATOM      6  C2  UNL     1      19.254   5.009   9.329  0.00  0.00    +0.000 A 
ATOM      7  C3  UNL     1      19.971   5.779   8.417  0.00  0.00    +0.000 A 
ATOM      8  C4  UNL     1      20.246   7.115   8.702  0.00  0.00    +0.000 A 
ATOM      9  C5  UNL     1      19.798   7.681   9.899  0.00  0.00    +0.000 A 
ATOM     10  C6  UNL     1      19.061   6.922  10.816  0.00  0.00    +0.000 A 
ENDBRANCH   3  10
ENDBRANCH   1   4
BRANCH   1  11
ATOM     11  O2  UNL     1      18.601   7.939  14.919  0.00  0.00    +0.000 OA
BRANCH  11  12
ATOM     12  C10 UNL     1      19.091   6.853  15.722  0.00  0.00    +0.000 C 
BRANCH  12  13
ATOM     13  C11 UNL     1      20.618   6.879  15.786  0.00  0.00    +0.000 C 
BRANCH  13  14
ATOM     14  C12 UNL     1      21.242   6.609  14.442  0.00  0.00    +0.000 A 
ATOM     15  C13 UNL     1      21.165   5.331  13.873  0.00  0.00    +0.000 A 
ATOM     16  C14 UNL     1      21.760   5.071  12.636  0.00  0.00    +0.000 A 
ATOM     17  C15 UNL     1      22.439   6.084  11.962  0.00  0.00    +0.000 A 
ATOM     18  C16 UNL     1      22.525   7.357  12.523  0.00  0.00    +0.000 A 
ATOM     19  C17 UNL     1      21.931   7.619  13.759  0.00  0.00    +0.000 A 
ENDBRANCH  13  14
ENDBRANCH  12  13
ENDBRANCH  11  12
ENDBRANCH   1  11
TORSDOF 6
ENDMDL
MODEL 5
REMARK VINA RESULT:    -4.932     15.138     17.603
REMARK INTER + INTRA:          -8.304
REMARK INTER:                  -5.843
REMARK INTRA:                  -2.461
REMARK UNBOUND:                -1.642
REMARK  Name = /home/anacleto/Desktop/manuscript_Mpro/naturecomm/supplementary_file_S2/6-chemical-library/molecular_docking/3D_ligand_structure/524.pdb
REMARK  6 active torsions:
REMARK  status: ('A' for Active; 'I' for Inactive)
REMARK    1  A    between atoms: C6_6  and  C7_7
REMARK    2  A    between atoms: C8_8  and  C9_9
REMARK    3  A    between atoms: C9_9  and  O2_11
REMARK    4  A    between atoms: O2_11  and  C10_12
REMARK    5  A    between atoms: C10_12  and  C11_13
REMARK    6  A    between atoms: C11_13  and  C12_14
REMARK                            x       y       z     vdW  Elec       q    Type
REMARK                         _______ _______ _______ _____ _____    ______ ____
ROOT
ATOM      1  C9  UNL     1      23.652   4.445  11.712  0.00  0.00    +0.000 C 
ATOM      2  O1  UNL     1      24.640   4.259  12.401  0.00  0.00    +0.000 OA
ENDROOT
BRANCH   1   4
ATOM      3  C7  UNL     1      21.314   4.956  12.185  0.00  0.00    +0.000 C 
ATOM      4  C8  UNL     1      22.567   5.401  12.012  0.00  0.00    +0.000 C 
BRANCH   3  10
ATOM      5  C1  UNL     1      20.306   7.199  12.722  0.00  0.00    +0.000 A 
ATOM      6  C2  UNL     1      19.190   7.986  13.016  0.00  0.00    +0.000 A 
ATOM      7  C3  UNL     1      17.923   7.409  13.071  0.00  0.00    +0.000 A 
ATOM      8  C4  UNL     1      17.772   6.044  12.839  0.00  0.00    +0.000 A 
ATOM      9  C5  UNL     1      18.889   5.256  12.546  0.00  0.00    +0.000 A 
ATOM     10  C6  UNL     1      20.165   5.827  12.470  0.00  0.00    +0.000 A 
ENDBRANCH   3  10
ENDBRANCH   1   4
BRANCH   1  11
ATOM     11  O2  UNL     1      23.346   3.820  10.548  0.00  0.00    +0.000 OA
BRANCH  11  12
ATOM     12  C10 UNL     1      23.522   4.612   9.362  0.00  0.00    +0.000 C 
BRANCH  12  13
ATOM     13  C11 UNL     1      22.350   4.410   8.403  0.00  0.00    +0.000 C 
BRANCH  13  14
ATOM     14  C12 UNL     1      21.225   5.373   8.679  0.00  0.00    +0.000 A 
ATOM     15  C13 UNL     1      19.900   4.919   8.708  0.00  0.00    +0.000 A 
ATOM     16  C14 UNL     1      18.852   5.812   8.944  0.00  0.00    +0.000 A 
ATOM     17  C15 UNL     1      19.120   7.164   9.147  0.00  0.00    +0.000 A 
ATOM     18  C16 UNL     1      20.434   7.625   9.115  0.00  0.00    +0.000 A 
ATOM     19  C17 UNL     1      21.483   6.735   8.879  0.00  0.00    +0.000 A 
ENDBRANCH  13  14
ENDBRANCH  12  13
ENDBRANCH  11  12
ENDBRANCH   1  11
TORSDOF 6
ENDMDL
MODEL 6
REMARK VINA RESULT:    -4.791      2.622      6.296
REMARK INTER + INTRA:          -8.114
REMARK INTER:                  -5.699
REMARK INTRA:                  -2.415
REMARK UNBOUND:                -1.642
REMARK  Name = /home/anacleto/Desktop/manuscript_Mpro/naturecomm/supplementary_file_S2/6-chemical-library/molecular_docking/3D_ligand_structure/524.pdb
REMARK  6 active torsions:
REMARK  status: ('A' for Active; 'I' for Inactive)
REMARK    1  A    between atoms: C6_6  and  C7_7
REMARK    2  A    between atoms: C8_8  and  C9_9
REMARK    3  A    between atoms: C9_9  and  O2_11
REMARK    4  A    between atoms: O2_11  and  C10_12
REMARK    5  A    between atoms: C10_12  and  C11_13
REMARK    6  A    between atoms: C11_13  and  C12_14
REMARK                            x       y       z     vdW  Elec       q    Type
REMARK                         _______ _______ _______ _____ _____    ______ ____
ROOT
ATOM      1  C9  UNL     1      16.561  11.056  -2.193  0.00  0.00    +0.000 C 
ATOM      2  O1  UNL     1      16.861   9.975  -2.671  0.00  0.00    +0.000 OA
ENDROOT
BRANCH   1   4
ATOM      3  C7  UNL     1      18.516  12.509  -2.066  0.00  0.00    +0.000 C 
ATOM      4  C8  UNL     1      17.472  11.943  -1.442  0.00  0.00    +0.000 C 
BRANCH   3  10
ATOM      5  C1  UNL     1      19.448  13.656  -0.028  0.00  0.00    +0.000 A 
ATOM      6  C2  UNL     1      20.374  14.523   0.555  0.00  0.00    +0.000 A 
ATOM      7  C3  UNL     1      21.343  15.144  -0.230  0.00  0.00    +0.000 A 
ATOM      8  C4  UNL     1      21.382  14.902  -1.602  0.00  0.00    +0.000 A 
ATOM      9  C5  UNL     1      20.455  14.035  -2.186  0.00  0.00    +0.000 A 
ATOM     10  C6  UNL     1      19.487  13.392  -1.405  0.00  0.00    +0.000 A 
ENDBRANCH   3  10
ENDBRANCH   1   4
BRANCH   1  11
ATOM     11  O2  UNL     1      15.345  11.656  -2.245  0.00  0.00    +0.000 OA
BRANCH  11  12
ATOM     12  C10 UNL     1      15.179  12.611  -3.306  0.00  0.00    +0.000 C 
BRANCH  12  13
ATOM     13  C11 UNL     1      14.616  13.924  -2.762  0.00  0.00    +0.000 C 
BRANCH  13  14
ATOM     14  C12 UNL     1      15.706  14.867  -2.328  0.00  0.00    +0.000 A 
ATOM     15  C13 UNL     1      15.830  15.230  -0.981  0.00  0.00    +0.000 A 
ATOM     16  C14 UNL     1      16.827  16.121  -0.577  0.00  0.00    +0.000 A 
ATOM     17  C15 UNL     1      17.704  16.658  -1.517  0.00  0.00    +0.000 A 
ATOM     18  C16 UNL     1      17.585  16.307  -2.860  0.00  0.00    +0.000 A 
ATOM     19  C17 UNL     1      16.589  15.417  -3.266  0.00  0.00    +0.000 A 
ENDBRANCH  13  14
ENDBRANCH  12  13
ENDBRANCH  11  12
ENDBRANCH   1  11
TORSDOF 6
ENDMDL
MODEL 7
REMARK VINA RESULT:    -4.741     15.112     17.328
REMARK INTER + INTRA:          -8.047
REMARK INTER:                  -5.665
REMARK INTRA:                  -2.381
REMARK UNBOUND:                -1.642
REMARK  Name = /home/anacleto/Desktop/manuscript_Mpro/naturecomm/supplementary_file_S2/6-chemical-library/molecular_docking/3D_ligand_structure/524.pdb
REMARK  6 active torsions:
REMARK  status: ('A' for Active; 'I' for Inactive)
REMARK    1  A    between atoms: C6_6  and  C7_7
REMARK    2  A    between atoms: C8_8  and  C9_9
REMARK    3  A    between atoms: C9_9  and  O2_11
REMARK    4  A    between atoms: O2_11  and  C10_12
REMARK    5  A    between atoms: C10_12  and  C11_13
REMARK    6  A    between atoms: C11_13  and  C12_14
REMARK                            x       y       z     vdW  Elec       q    Type
REMARK                         _______ _______ _______ _____ _____    ______ ____
ROOT
ATOM      1  C9  UNL     1      16.029   2.638  11.123  0.00  0.00    +0.000 C 
ATOM      2  O1  UNL     1      15.393   1.639  10.836  0.00  0.00    +0.000 OA
ENDROOT
BRANCH   1   4
ATOM      3  C7  UNL     1      17.636   3.926   9.814  0.00  0.00    +0.000 C 
ATOM      4  C8  UNL     1      17.409   2.930  10.684  0.00  0.00    +0.000 C 
BRANCH   3  10
ATOM      5  C1  UNL     1      20.080   3.445   9.458  0.00  0.00    +0.000 A 
ATOM      6  C2  UNL     1      21.335   3.836   8.982  0.00  0.00    +0.000 A 
ATOM      7  C3  UNL     1      21.493   5.072   8.359  0.00  0.00    +0.000 A 
ATOM      8  C4  UNL     1      20.397   5.920   8.216  0.00  0.00    +0.000 A 
ATOM      9  C5  UNL     1      19.142   5.530   8.693  0.00  0.00    +0.000 A 
ATOM     10  C6  UNL     1      18.967   4.283   9.305  0.00  0.00    +0.000 A 
ENDBRANCH   3  10
ENDBRANCH   1   4
BRANCH   1  11
ATOM     11  O2  UNL     1      15.611   3.671  11.897  0.00  0.00    +0.000 OA
BRANCH  11  12
ATOM     12  C10 UNL     1      16.356   3.868  13.110  0.00  0.00    +0.000 C 
BRANCH  12  13
ATOM     13  C11 UNL     1      16.561   5.358  13.378  0.00  0.00    +0.000 C 
BRANCH  13  14
ATOM     14  C12 UNL     1      17.893   5.844  12.869  0.00  0.00    +0.000 A 
ATOM     15  C13 UNL     1      19.039   5.054  13.025  0.00  0.00    +0.000 A 
ATOM     16  C14 UNL     1      20.278   5.510  12.573  0.00  0.00    +0.000 A 
ATOM     17  C15 UNL     1      20.383   6.760  11.965  0.00  0.00    +0.000 A 
ATOM     18  C16 UNL     1      19.250   7.555  11.810  0.00  0.00    +0.000 A 
ATOM     19  C17 UNL     1      18.009   7.101  12.262  0.00  0.00    +0.000 A 
ENDBRANCH  13  14
ENDBRANCH  12  13
ENDBRANCH  11  12
ENDBRANCH   1  11
TORSDOF 6
ENDMDL
MODEL 8
REMARK VINA RESULT:    -4.740     14.661     16.595
REMARK INTER + INTRA:          -8.044
REMARK INTER:                  -6.402
REMARK INTRA:                  -1.642
REMARK UNBOUND:                -1.642
REMARK  Name = /home/anacleto/Desktop/manuscript_Mpro/naturecomm/supplementary_file_S2/6-chemical-library/molecular_docking/3D_ligand_structure/524.pdb
REMARK  6 active torsions:
REMARK  status: ('A' for Active; 'I' for Inactive)
REMARK    1  A    between atoms: C6_6  and  C7_7
REMARK    2  A    between atoms: C8_8  and  C9_9
REMARK    3  A    between atoms: C9_9  and  O2_11
REMARK    4  A    between atoms: O2_11  and  C10_12
REMARK    5  A    between atoms: C10_12  and  C11_13
REMARK    6  A    between atoms: C11_13  and  C12_14
REMARK                            x       y       z     vdW  Elec       q    Type
REMARK                         _______ _______ _______ _____ _____    ______ ____
ROOT
ATOM      1  C9  UNL     1      18.035   4.614  12.907  0.00  0.00    +0.000 C 
ATOM      2  O1  UNL     1      18.789   4.219  13.779  0.00  0.00    +0.000 OA
ENDROOT
BRANCH   1   4
ATOM      3  C7  UNL     1      17.736   3.644  10.688  0.00  0.00    +0.000 C 
ATOM      4  C8  UNL     1      17.304   3.755  11.953  0.00  0.00    +0.000 C 
BRANCH   3  10
ATOM      5  C1  UNL     1      16.771   3.326   8.386  0.00  0.00    +0.000 A 
ATOM      6  C2  UNL     1      16.113   2.526   7.449  0.00  0.00    +0.000 A 
ATOM      7  C3  UNL     1      15.737   1.226   7.780  0.00  0.00    +0.000 A 
ATOM      8  C4  UNL     1      16.014   0.727   9.050  0.00  0.00    +0.000 A 
ATOM      9  C5  UNL     1      16.672   1.527   9.989  0.00  0.00    +0.000 A 
ATOM     10  C6  UNL     1      17.070   2.829   9.662  0.00  0.00    +0.000 A 
ENDBRANCH   3  10
ENDBRANCH   1   4
BRANCH   1  11
ATOM     11  O2  UNL     1      17.719   5.904  12.631  0.00  0.00    +0.000 OA
BRANCH  11  12
ATOM     12  C10 UNL     1      18.761   6.860  12.895  0.00  0.00    +0.000 C 
BRANCH  12  13
ATOM     13  C11 UNL     1      19.036   7.708  11.654  0.00  0.00    +0.000 C 
BRANCH  13  14
ATOM     14  C12 UNL     1      19.534   6.876  10.502  0.00  0.00    +0.000 A 
ATOM     15  C13 UNL     1      18.895   6.940   9.257  0.00  0.00    +0.000 A 
ATOM     16  C14 UNL     1      19.340   6.154   8.192  0.00  0.00    +0.000 A 
ATOM     17  C15 UNL     1      20.424   5.296   8.364  0.00  0.00    +0.000 A 
ATOM     18  C16 UNL     1      21.063   5.220   9.600  0.00  0.00    +0.000 A 
ATOM     19  C17 UNL     1      20.619   6.005  10.667  0.00  0.00    +0.000 A 
ENDBRANCH  13  14
ENDBRANCH  12  13
ENDBRANCH  11  12
ENDBRANCH   1  11
TORSDOF 6
ENDMDL
MODEL 9
REMARK VINA RESULT:    -4.701      2.959      5.146
REMARK INTER + INTRA:          -7.993
REMARK INTER:                  -5.638
REMARK INTRA:                  -2.354
REMARK UNBOUND:                -1.642
REMARK  Name = /home/anacleto/Desktop/manuscript_Mpro/naturecomm/supplementary_file_S2/6-chemical-library/molecular_docking/3D_ligand_structure/524.pdb
REMARK  6 active torsions:
REMARK  status: ('A' for Active; 'I' for Inactive)
REMARK    1  A    between atoms: C6_6  and  C7_7
REMARK    2  A    between atoms: C8_8  and  C9_9
REMARK    3  A    between atoms: C9_9  and  O2_11
REMARK    4  A    between atoms: O2_11  and  C10_12
REMARK    5  A    between atoms: C10_12  and  C11_13
REMARK    6  A    between atoms: C11_13  and  C12_14
REMARK                            x       y       z     vdW  Elec       q    Type
REMARK                         _______ _______ _______ _____ _____    ______ ____
ROOT
ATOM      1  C9  UNL     1      20.711  14.890   0.061  0.00  0.00    +0.000 C 
ATOM      2  O1  UNL     1      21.929  14.942   0.075  0.00  0.00    +0.000 OA
ENDROOT
BRANCH   1   4
ATOM      3  C7  UNL     1      18.917  13.336  -0.505  0.00  0.00    +0.000 C 
ATOM      4  C8  UNL     1      19.897  14.149  -0.925  0.00  0.00    +0.000 C 
BRANCH   3  10
ATOM      5  C1  UNL     1      18.260  12.515  -2.791  0.00  0.00    +0.000 A 
ATOM      6  C2  UNL     1      17.408  11.770  -3.612  0.00  0.00    +0.000 A 
ATOM      7  C3  UNL     1      16.348  11.057  -3.057  0.00  0.00    +0.000 A 
ATOM      8  C4  UNL     1      16.134  11.093  -1.681  0.00  0.00    +0.000 A 
ATOM      9  C5  UNL     1      16.985  11.838  -0.859  0.00  0.00    +0.000 A 
ATOM     10  C6  UNL     1      18.064  12.545  -1.403  0.00  0.00    +0.000 A 
ENDBRANCH   3  10
ENDBRANCH   1   4
BRANCH   1  11
ATOM     11  O2  UNL     1      19.864  15.496   0.929  0.00  0.00    +0.000 OA
BRANCH  11  12
ATOM     12  C10 UNL     1      19.493  16.841   0.586  0.00  0.00    +0.000 C 
BRANCH  12  13
ATOM     13  C11 UNL     1      17.987  17.041   0.752  0.00  0.00    +0.000 C 
BRANCH  13  14
ATOM     14  C12 UNL     1      17.213  16.490  -0.417  0.00  0.00    +0.000 A 
ATOM     15  C13 UNL     1      16.100  15.667  -0.201  0.00  0.00    +0.000 A 
ATOM     16  C14 UNL     1      15.393  15.137  -1.282  0.00  0.00    +0.000 A 
ATOM     17  C15 UNL     1      15.795  15.420  -2.586  0.00  0.00    +0.000 A 
ATOM     18  C16 UNL     1      16.905  16.233  -2.811  0.00  0.00    +0.000 A 
ATOM     19  C17 UNL     1      17.613  16.764  -1.731  0.00  0.00    +0.000 A 
ENDBRANCH  13  14
ENDBRANCH  12  13
ENDBRANCH  11  12
ENDBRANCH   1  11
TORSDOF 6
ENDMDL
