MODEL 1
REMARK VINA RESULT:    -3.855      0.000      0.000
REMARK INTER + INTRA:          -3.855
REMARK INTER:                  -3.855
REMARK INTRA:                   0.000
REMARK UNBOUND:                 0.000
REMARK  Name = /home/anacleto/Desktop/manuscript_Mpro/naturecomm/supplementary_file_S2/6-chemical-library/molecular_docking/3D_ligand_structure/281.pdb
REMARK  0 active torsions:
REMARK  status: ('A' for Active; 'I' for Inactive)
REMARK                            x       y       z     vdW  Elec       q    Type
REMARK                         _______ _______ _______ _____ _____    ______ ____
ROOT
ATOM      1  O1  UNL     1      14.035  12.867  -4.805  0.00  0.00    +0.000 OA
ATOM      2  C1  UNL     1      14.598  13.506  -3.650  0.00  0.00    +0.000 C 
ATOM      3  C2  UNL     1      15.716  12.617  -3.152  0.00  0.00    +0.000 C 
ATOM      4  C3  UNL     1      15.228  11.247  -3.556  0.00  0.00    +0.000 C 
ATOM      5  C4  UNL     1      14.561  11.529  -4.891  0.00  0.00    +0.000 C 
ATOM      6  C5  UNL     1      13.455  10.552  -5.267  0.00  0.00    +0.000 C 
ATOM      7  C6  UNL     1      13.250  10.772  -6.765  0.00  0.00    +0.000 C 
ATOM      8  C7  UNL     1      14.563  11.346  -7.297  0.00  0.00    +0.000 C 
ATOM      9  C8  UNL     1      15.501  11.447  -6.095  0.00  0.00    +0.000 C 
ENDROOT
TORSDOF 0
ENDMDL
MODEL 2
REMARK VINA RESULT:    -3.682     15.508     16.756
REMARK INTER + INTRA:          -3.682
REMARK INTER:                  -3.682
REMARK INTRA:                   0.000
REMARK UNBOUND:                 0.000
REMARK  Name = /home/anacleto/Desktop/manuscript_Mpro/naturecomm/supplementary_file_S2/6-chemical-library/molecular_docking/3D_ligand_structure/281.pdb
REMARK  0 active torsions:
REMARK  status: ('A' for Active; 'I' for Inactive)
REMARK                            x       y       z     vdW  Elec       q    Type
REMARK                         _______ _______ _______ _____ _____    ______ ____
ROOT
ATOM      1  O1  UNL     1      19.009   5.808  10.733  0.00  0.00    +0.000 OA
ATOM      2  C1  UNL     1      18.357   4.626  11.218  0.00  0.00    +0.000 C 
ATOM      3  C2  UNL     1      18.412   3.601  10.107  0.00  0.00    +0.000 C 
ATOM      4  C3  UNL     1      18.390   4.475   8.876  0.00  0.00    +0.000 C 
ATOM      5  C4  UNL     1      19.227   5.663   9.317  0.00  0.00    +0.000 C 
ATOM      6  C5  UNL     1      18.906   6.968   8.599  0.00  0.00    +0.000 C 
ATOM      7  C6  UNL     1      20.110   7.864   8.886  0.00  0.00    +0.000 C 
ATOM      8  C7  UNL     1      21.279   6.926   9.185  0.00  0.00    +0.000 C 
ATOM      9  C8  UNL     1      20.728   5.506   9.064  0.00  0.00    +0.000 C 
ENDROOT
TORSDOF 0
ENDMDL
MODEL 3
REMARK VINA RESULT:    -3.631     15.680     17.156
REMARK INTER + INTRA:          -3.631
REMARK INTER:                  -3.631
REMARK INTRA:                   0.000
REMARK UNBOUND:                 0.000
REMARK  Name = /home/anacleto/Desktop/manuscript_Mpro/naturecomm/supplementary_file_S2/6-chemical-library/molecular_docking/3D_ligand_structure/281.pdb
REMARK  0 active torsions:
REMARK  status: ('A' for Active; 'I' for Inactive)
REMARK                            x       y       z     vdW  Elec       q    Type
REMARK                         _______ _______ _______ _____ _____    ______ ____
ROOT
ATOM      1  O1  UNL     1      20.294   5.907  10.856  0.00  0.00    +0.000 OA
ATOM      2  C1  UNL     1      21.183   5.708  11.963  0.00  0.00    +0.000 C 
ATOM      3  C2  UNL     1      22.573   6.070  11.486  0.00  0.00    +0.000 C 
ATOM      4  C3  UNL     1      22.501   5.715  10.021  0.00  0.00    +0.000 C 
ATOM      5  C4  UNL     1      21.079   6.117   9.667  0.00  0.00    +0.000 C 
ATOM      6  C5  UNL     1      20.477   5.351   8.496  0.00  0.00    +0.000 C 
ATOM      7  C6  UNL     1      19.271   6.191   8.077  0.00  0.00    +0.000 C 
ATOM      8  C7  UNL     1      19.559   7.617   8.545  0.00  0.00    +0.000 C 
ATOM      9  C8  UNL     1      20.926   7.573   9.226  0.00  0.00    +0.000 C 
ENDROOT
TORSDOF 0
ENDMDL
MODEL 4
REMARK VINA RESULT:    -3.621      1.498      3.409
REMARK INTER + INTRA:          -3.621
REMARK INTER:                  -3.621
REMARK INTRA:                   0.000
REMARK UNBOUND:                 0.000
REMARK  Name = /home/anacleto/Desktop/manuscript_Mpro/naturecomm/supplementary_file_S2/6-chemical-library/molecular_docking/3D_ligand_structure/281.pdb
REMARK  0 active torsions:
REMARK  status: ('A' for Active; 'I' for Inactive)
REMARK                            x       y       z     vdW  Elec       q    Type
REMARK                         _______ _______ _______ _____ _____    ______ ____
ROOT
ATOM      1  O1  UNL     1      14.140  10.582  -4.262  0.00  0.00    +0.000 OA
ATOM      2  C1  UNL     1      13.313  10.897  -5.391  0.00  0.00    +0.000 C 
ATOM      3  C2  UNL     1      13.931  12.100  -6.070  0.00  0.00    +0.000 C 
ATOM      4  C3  UNL     1      14.573  12.818  -4.908  0.00  0.00    +0.000 C 
ATOM      5  C4  UNL     1      15.069  11.662  -4.056  0.00  0.00    +0.000 C 
ATOM      6  C5  UNL     1      15.193  11.975  -2.571  0.00  0.00    +0.000 C 
ATOM      7  C6  UNL     1      16.077  10.857  -2.021  0.00  0.00    +0.000 C 
ATOM      8  C7  UNL     1      16.901  10.344  -3.202  0.00  0.00    +0.000 C 
ATOM      9  C8  UNL     1      16.476  11.176  -4.411  0.00  0.00    +0.000 C 
ENDROOT
TORSDOF 0
ENDMDL
MODEL 5
REMARK VINA RESULT:    -3.617     15.638     17.136
REMARK INTER + INTRA:          -3.617
REMARK INTER:                  -3.617
REMARK INTRA:                   0.000
REMARK UNBOUND:                 0.000
REMARK  Name = /home/anacleto/Desktop/manuscript_Mpro/naturecomm/supplementary_file_S2/6-chemical-library/molecular_docking/3D_ligand_structure/281.pdb
REMARK  0 active torsions:
REMARK  status: ('A' for Active; 'I' for Inactive)
REMARK                            x       y       z     vdW  Elec       q    Type
REMARK                         _______ _______ _______ _____ _____    ______ ____
ROOT
ATOM      1  O1  UNL     1      18.897   5.279  10.805  0.00  0.00    +0.000 OA
ATOM      2  C1  UNL     1      18.249   5.555  12.055  0.00  0.00    +0.000 C 
ATOM      3  C2  UNL     1      18.367   7.044  12.296  0.00  0.00    +0.000 C 
ATOM      4  C3  UNL     1      19.670   7.369  11.607  0.00  0.00    +0.000 C 
ATOM      5  C4  UNL     1      19.625   6.452  10.396  0.00  0.00    +0.000 C 
ATOM      6  C5  UNL     1      20.989   6.059   9.846  0.00  0.00    +0.000 C 
ATOM      7  C6  UNL     1      20.692   5.523   8.446  0.00  0.00    +0.000 C 
ATOM      8  C7  UNL     1      19.374   6.164   8.014  0.00  0.00    +0.000 C 
ATOM      9  C8  UNL     1      18.934   7.058   9.172  0.00  0.00    +0.000 C 
ENDROOT
TORSDOF 0
ENDMDL
MODEL 6
REMARK VINA RESULT:    -3.600      1.483      2.266
REMARK INTER + INTRA:          -3.600
REMARK INTER:                  -3.600
REMARK INTRA:                   0.000
REMARK UNBOUND:                 0.000
REMARK  Name = /home/anacleto/Desktop/manuscript_Mpro/naturecomm/supplementary_file_S2/6-chemical-library/molecular_docking/3D_ligand_structure/281.pdb
REMARK  0 active torsions:
REMARK  status: ('A' for Active; 'I' for Inactive)
REMARK                            x       y       z     vdW  Elec       q    Type
REMARK                         _______ _______ _______ _____ _____    ______ ____
ROOT
ATOM      1  O1  UNL     1      16.263  10.855  -4.809  0.00  0.00    +0.000 OA
ATOM      2  C1  UNL     1      16.985  10.485  -3.626  0.00  0.00    +0.000 C 
ATOM      3  C2  UNL     1      16.053  10.699  -2.454  0.00  0.00    +0.000 C 
ATOM      4  C3  UNL     1      15.197  11.843  -2.941  0.00  0.00    +0.000 C 
ATOM      5  C4  UNL     1      15.048  11.521  -4.418  0.00  0.00    +0.000 C 
ATOM      6  C5  UNL     1      14.801  12.730  -5.310  0.00  0.00    +0.000 C 
ATOM      7  C6  UNL     1      14.278  12.136  -6.616  0.00  0.00    +0.000 C 
ATOM      8  C7  UNL     1      13.674  10.778  -6.257  0.00  0.00    +0.000 C 
ATOM      9  C8  UNL     1      13.861  10.615  -4.749  0.00  0.00    +0.000 C 
ENDROOT
TORSDOF 0
ENDMDL
MODEL 7
REMARK VINA RESULT:    -3.551     16.332     17.656
REMARK INTER + INTRA:          -3.551
REMARK INTER:                  -3.551
REMARK INTRA:                   0.000
REMARK UNBOUND:                 0.000
REMARK  Name = /home/anacleto/Desktop/manuscript_Mpro/naturecomm/supplementary_file_S2/6-chemical-library/molecular_docking/3D_ligand_structure/281.pdb
REMARK  0 active torsions:
REMARK  status: ('A' for Active; 'I' for Inactive)
REMARK                            x       y       z     vdW  Elec       q    Type
REMARK                         _______ _______ _______ _____ _____    ______ ____
ROOT
ATOM      1  O1  UNL     1      15.162   2.169   9.791  0.00  0.00    +0.000 OA
ATOM      2  C1  UNL     1      16.098   3.062   9.171  0.00  0.00    +0.000 C 
ATOM      3  C2  UNL     1      16.096   2.748   7.691  0.00  0.00    +0.000 C 
ATOM      4  C3  UNL     1      15.771   1.274   7.685  0.00  0.00    +0.000 C 
ATOM      5  C4  UNL     1      14.782   1.163   8.833  0.00  0.00    +0.000 C 
ATOM      6  C5  UNL     1      14.733  -0.206   9.499  0.00  0.00    +0.000 C 
ATOM      7  C6  UNL     1      13.426  -0.195  10.290  0.00  0.00    +0.000 C 
ATOM      8  C7  UNL     1      12.521   0.829   9.606  0.00  0.00    +0.000 C 
ATOM      9  C8  UNL     1      13.323   1.390   8.433  0.00  0.00    +0.000 C 
ENDROOT
TORSDOF 0
ENDMDL
MODEL 8
REMARK VINA RESULT:    -3.487      1.539      2.301
REMARK INTER + INTRA:          -3.487
REMARK INTER:                  -3.487
REMARK INTRA:                   0.000
REMARK UNBOUND:                 0.000
REMARK  Name = /home/anacleto/Desktop/manuscript_Mpro/naturecomm/supplementary_file_S2/6-chemical-library/molecular_docking/3D_ligand_structure/281.pdb
REMARK  0 active torsions:
REMARK  status: ('A' for Active; 'I' for Inactive)
REMARK                            x       y       z     vdW  Elec       q    Type
REMARK                         _______ _______ _______ _____ _____    ______ ____
ROOT
ATOM      1  O1  UNL     1      15.572  10.923  -5.142  0.00  0.00    +0.000 OA
ATOM      2  C1  UNL     1      16.727  11.438  -4.466  0.00  0.00    +0.000 C 
ATOM      3  C2  UNL     1      16.728  12.938  -4.669  0.00  0.00    +0.000 C 
ATOM      4  C3  UNL     1      16.058  13.070  -6.015  0.00  0.00    +0.000 C 
ATOM      5  C4  UNL     1      15.012  11.969  -5.958  0.00  0.00    +0.000 C 
ATOM      6  C5  UNL     1      14.599  11.415  -7.315  0.00  0.00    +0.000 C 
ATOM      7  C6  UNL     1      13.294  10.671  -7.038  0.00  0.00    +0.000 C 
ATOM      8  C7  UNL     1      12.699  11.304  -5.780  0.00  0.00    +0.000 C 
ATOM      9  C8  UNL     1      13.674  12.401  -5.354  0.00  0.00    +0.000 C 
ENDROOT
TORSDOF 0
ENDMDL
MODEL 9
REMARK VINA RESULT:    -3.281     18.945     19.843
REMARK INTER + INTRA:          -3.281
REMARK INTER:                  -3.281
REMARK INTRA:                   0.000
REMARK UNBOUND:                 0.000
REMARK  Name = /home/anacleto/Desktop/manuscript_Mpro/naturecomm/supplementary_file_S2/6-chemical-library/molecular_docking/3D_ligand_structure/281.pdb
REMARK  0 active torsions:
REMARK  status: ('A' for Active; 'I' for Inactive)
REMARK                            x       y       z     vdW  Elec       q    Type
REMARK                         _______ _______ _______ _____ _____    ______ ____
ROOT
ATOM      1  O1  UNL     1      24.456  17.215  11.930  0.00  0.00    +0.000 OA
ATOM      2  C1  UNL     1      25.064  17.902  10.827  0.00  0.00    +0.000 C 
ATOM      3  C2  UNL     1      24.840  17.051   9.597  0.00  0.00    +0.000 C 
ATOM      4  C3  UNL     1      24.813  15.659  10.181  0.00  0.00    +0.000 C 
ATOM      5  C4  UNL     1      24.103  15.885  11.505  0.00  0.00    +0.000 C 
ATOM      6  C5  UNL     1      24.450  14.876  12.592  0.00  0.00    +0.000 C 
ATOM      7  C6  UNL     1      23.342  15.043  13.630  0.00  0.00    +0.000 C 
ATOM      8  C7  UNL     1      22.140  15.624  12.884  0.00  0.00    +0.000 C 
ATOM      9  C8  UNL     1      22.579  15.781  11.429  0.00  0.00    +0.000 C 
ENDROOT
TORSDOF 0
ENDMDL
