MODEL 1
REMARK VINA RESULT:    -4.953      0.000      0.000
REMARK INTER + INTRA:          -6.130
REMARK INTER:                  -5.911
REMARK INTRA:                  -0.219
REMARK UNBOUND:                -0.308
REMARK  Name = /home/anacleto/Desktop/manuscript_Mpro/naturecomm/supplementary_file_S2/6-chemical-library/molecular_docking/3D_ligand_structure/993.pdb
REMARK  3 active torsions:
REMARK  status: ('A' for Active; 'I' for Inactive)
REMARK    1  A    between atoms: C4_6  and  C5_7
REMARK    2  A    between atoms: C5_7  and  N3_8
REMARK    3  A    between atoms: N3_8  and  C6_9
REMARK                            x       y       z     vdW  Elec       q    Type
REMARK                         _______ _______ _______ _____ _____    ______ ____
ROOT
ATOM      1  N3  UNL     1      18.059   4.696   8.447  0.00  0.00    +0.000 N 
ATOM      2  H6  UNL     1      17.259   5.133   7.993  0.00  0.00    +0.000 HD
ENDROOT
BRANCH   1   3
ATOM      3  C6  UNL     1      19.106   5.612   8.611  0.00  0.00    +0.000 A 
ATOM      4  C7  UNL     1      20.387   5.114   8.894  0.00  0.00    +0.000 A 
ATOM      5  C8  UNL     1      21.467   5.969   9.132  0.00  0.00    +0.000 A 
ATOM      6  C9  UNL     1      21.276   7.347   9.118  0.00  0.00    +0.000 A 
ATOM      7  C10 UNL     1      20.006   7.862   8.881  0.00  0.00    +0.000 A 
ATOM      8  C11 UNL     1      18.928   7.000   8.644  0.00  0.00    +0.000 A 
ENDBRANCH   1   3
BRANCH   1   9
ATOM      9  C5  UNL     1      17.679   3.834   9.557  0.00  0.00    +0.000 C 
BRANCH   9  15
ATOM     10  C1  UNL     1      16.507   2.287   7.947  0.00  0.00    +0.000 A 
ATOM     11  N1  UNL     1      15.498   1.481   7.559  0.00  0.00    +0.000 NA
ATOM     12  C2  UNL     1      14.483   1.363   8.428  0.00  0.00    +0.000 A 
ATOM     13  N2  UNL     1      14.392   1.966   9.623  0.00  0.00    +0.000 NA
ATOM     14  C3  UNL     1      15.430   2.758   9.958  0.00  0.00    +0.000 A 
ATOM     15  C4  UNL     1      16.532   2.963   9.153  0.00  0.00    +0.000 A 
ENDBRANCH   9  15
ENDBRANCH   1   9
TORSDOF 3
ENDMDL
MODEL 2
REMARK VINA RESULT:    -4.801     13.834     15.477
REMARK INTER + INTRA:          -5.951
REMARK INTER:                  -5.644
REMARK INTRA:                  -0.307
REMARK UNBOUND:                -0.308
REMARK  Name = /home/anacleto/Desktop/manuscript_Mpro/naturecomm/supplementary_file_S2/6-chemical-library/molecular_docking/3D_ligand_structure/993.pdb
REMARK  3 active torsions:
REMARK  status: ('A' for Active; 'I' for Inactive)
REMARK    1  A    between atoms: C4_6  and  C5_7
REMARK    2  A    between atoms: C5_7  and  N3_8
REMARK    3  A    between atoms: N3_8  and  C6_9
REMARK                            x       y       z     vdW  Elec       q    Type
REMARK                         _______ _______ _______ _____ _____    ______ ____
ROOT
ATOM      1  N3  UNL     1      14.962  11.036  -3.129  0.00  0.00    +0.000 N 
ATOM      2  H6  UNL     1      14.702  11.929  -2.713  0.00  0.00    +0.000 HD
ENDROOT
BRANCH   1   3
ATOM      3  C6  UNL     1      14.703  11.027  -4.504  0.00  0.00    +0.000 A 
ATOM      4  C7  UNL     1      15.653  11.597  -5.364  0.00  0.00    +0.000 A 
ATOM      5  C8  UNL     1      15.434  11.681  -6.743  0.00  0.00    +0.000 A 
ATOM      6  C9  UNL     1      14.241  11.216  -7.284  0.00  0.00    +0.000 A 
ATOM      7  C10 UNL     1      13.267  10.685  -6.446  0.00  0.00    +0.000 A 
ATOM      8  C11 UNL     1      13.491  10.605  -5.066  0.00  0.00    +0.000 A 
ENDBRANCH   1   3
BRANCH   1   9
ATOM      9  C5  UNL     1      16.236  10.532  -2.634  0.00  0.00    +0.000 C 
BRANCH   9  15
ATOM     10  C1  UNL     1      18.184  11.405  -1.293  0.00  0.00    +0.000 A 
ATOM     11  N1  UNL     1      18.863  12.358  -0.624  0.00  0.00    +0.000 NA
ATOM     12  C2  UNL     1      18.265  13.556  -0.553  0.00  0.00    +0.000 A 
ATOM     13  N2  UNL     1      17.074  13.876  -1.082  0.00  0.00    +0.000 NA
ATOM     14  C3  UNL     1      16.442  12.884  -1.741  0.00  0.00    +0.000 A 
ATOM     15  C4  UNL     1      16.951  11.609  -1.883  0.00  0.00    +0.000 A 
ENDBRANCH   9  15
ENDBRANCH   1   9
TORSDOF 3
ENDMDL
MODEL 3
REMARK VINA RESULT:    -4.576      4.521      6.001
REMARK INTER + INTRA:          -5.686
REMARK INTER:                  -5.319
REMARK INTRA:                  -0.367
REMARK UNBOUND:                -0.308
REMARK  Name = /home/anacleto/Desktop/manuscript_Mpro/naturecomm/supplementary_file_S2/6-chemical-library/molecular_docking/3D_ligand_structure/993.pdb
REMARK  3 active torsions:
REMARK  status: ('A' for Active; 'I' for Inactive)
REMARK    1  A    between atoms: C4_6  and  C5_7
REMARK    2  A    between atoms: C5_7  and  N3_8
REMARK    3  A    between atoms: N3_8  and  C6_9
REMARK                            x       y       z     vdW  Elec       q    Type
REMARK                         _______ _______ _______ _____ _____    ______ ____
ROOT
ATOM      1  N3  UNL     1      21.791   7.543  11.074  0.00  0.00    +0.000 N 
ATOM      2  H6  UNL     1      22.671   7.896  10.703  0.00  0.00    +0.000 HD
ENDROOT
BRANCH   1   3
ATOM      3  C6  UNL     1      20.988   7.018  10.054  0.00  0.00    +0.000 A 
ATOM      4  C7  UNL     1      21.398   5.830   9.430  0.00  0.00    +0.000 A 
ATOM      5  C8  UNL     1      20.681   5.281   8.363  0.00  0.00    +0.000 A 
ATOM      6  C9  UNL     1      19.550   5.931   7.881  0.00  0.00    +0.000 A 
ATOM      7  C10 UNL     1      19.149   7.132   8.457  0.00  0.00    +0.000 A 
ATOM      8  C11 UNL     1      19.872   7.677   9.526  0.00  0.00    +0.000 A 
ENDBRANCH   1   3
BRANCH   1   9
ATOM      9  C5  UNL     1      21.960   6.795  12.312  0.00  0.00    +0.000 C 
BRANCH   9  15
ATOM     10  C1  UNL     1      20.402   8.024  13.867  0.00  0.00    +0.000 A 
ATOM     11  N1  UNL     1      19.284   8.153  14.608  0.00  0.00    +0.000 NA
ATOM     12  C2  UNL     1      18.462   7.093  14.608  0.00  0.00    +0.000 A 
ATOM     13  N2  UNL     1      18.657   5.943  13.944  0.00  0.00    +0.000 NA
ATOM     14  C3  UNL     1      19.791   5.873  13.219  0.00  0.00    +0.000 A 
ATOM     15  C4  UNL     1      20.718   6.893  13.139  0.00  0.00    +0.000 A 
ENDBRANCH   9  15
ENDBRANCH   1   9
TORSDOF 3
ENDMDL
MODEL 4
REMARK VINA RESULT:    -4.488     14.940     16.448
REMARK INTER + INTRA:          -5.583
REMARK INTER:                  -5.223
REMARK INTRA:                  -0.360
REMARK UNBOUND:                -0.308
REMARK  Name = /home/anacleto/Desktop/manuscript_Mpro/naturecomm/supplementary_file_S2/6-chemical-library/molecular_docking/3D_ligand_structure/993.pdb
REMARK  3 active torsions:
REMARK  status: ('A' for Active; 'I' for Inactive)
REMARK    1  A    between atoms: C4_6  and  C5_7
REMARK    2  A    between atoms: C5_7  and  N3_8
REMARK    3  A    between atoms: N3_8  and  C6_9
REMARK                            x       y       z     vdW  Elec       q    Type
REMARK                         _______ _______ _______ _____ _____    ______ ____
ROOT
ATOM      1  N3  UNL     1      14.641  13.975  -4.921  0.00  0.00    +0.000 N 
ATOM      2  H6  UNL     1      15.555  14.303  -5.229  0.00  0.00    +0.000 HD
ENDROOT
BRANCH   1   3
ATOM      3  C6  UNL     1      14.257  12.825  -5.620  0.00  0.00    +0.000 A 
ATOM      4  C7  UNL     1      15.026  12.430  -6.726  0.00  0.00    +0.000 A 
ATOM      5  C8  UNL     1      14.667  11.329  -7.509  0.00  0.00    +0.000 A 
ATOM      6  C9  UNL     1      13.511  10.615  -7.213  0.00  0.00    +0.000 A 
ATOM      7  C10 UNL     1      12.711  11.014  -6.148  0.00  0.00    +0.000 A 
ATOM      8  C11 UNL     1      13.074  12.119  -5.368  0.00  0.00    +0.000 A 
ENDBRANCH   1   3
BRANCH   1   9
ATOM      9  C5  UNL     1      14.481  14.025  -3.475  0.00  0.00    +0.000 C 
BRANCH   9  15
ATOM     10  C1  UNL     1      15.203  11.948  -2.241  0.00  0.00    +0.000 A 
ATOM     11  N1  UNL     1      16.111  11.139  -1.658  0.00  0.00    +0.000 NA
ATOM     12  C2  UNL     1      17.375  11.587  -1.664  0.00  0.00    +0.000 A 
ATOM     13  N2  UNL     1      17.800  12.745  -2.192  0.00  0.00    +0.000 NA
ATOM     14  C3  UNL     1      16.848  13.511  -2.763  0.00  0.00    +0.000 A 
ATOM     15  C4  UNL     1      15.514  13.164  -2.820  0.00  0.00    +0.000 A 
ENDBRANCH   9  15
ENDBRANCH   1   9
TORSDOF 3
ENDMDL
MODEL 5
REMARK VINA RESULT:    -4.461     14.956     16.637
REMARK INTER + INTRA:          -5.552
REMARK INTER:                  -5.229
REMARK INTRA:                  -0.323
REMARK UNBOUND:                -0.308
REMARK  Name = /home/anacleto/Desktop/manuscript_Mpro/naturecomm/supplementary_file_S2/6-chemical-library/molecular_docking/3D_ligand_structure/993.pdb
REMARK  3 active torsions:
REMARK  status: ('A' for Active; 'I' for Inactive)
REMARK    1  A    between atoms: C4_6  and  C5_7
REMARK    2  A    between atoms: C5_7  and  N3_8
REMARK    3  A    between atoms: N3_8  and  C6_9
REMARK                            x       y       z     vdW  Elec       q    Type
REMARK                         _______ _______ _______ _____ _____    ______ ____
ROOT
ATOM      1  N3  UNL     1      14.803  14.320  -4.614  0.00  0.00    +0.000 N 
ATOM      2  H6  UNL     1      15.803  14.511  -4.586  0.00  0.00    +0.000 HD
ENDROOT
BRANCH   1   3
ATOM      3  C6  UNL     1      14.515  13.263  -5.485  0.00  0.00    +0.000 A 
ATOM      4  C7  UNL     1      13.428  12.429  -5.182  0.00  0.00    +0.000 A 
ATOM      5  C8  UNL     1      13.119  11.317  -5.971  0.00  0.00    +0.000 A 
ATOM      6  C9  UNL     1      13.914  11.002  -7.067  0.00  0.00    +0.000 A 
ATOM      7  C10 UNL     1      15.022  11.791  -7.361  0.00  0.00    +0.000 A 
ATOM      8  C11 UNL     1      15.327  12.903  -6.567  0.00  0.00    +0.000 A 
ENDBRANCH   1   3
BRANCH   1   9
ATOM      9  C5  UNL     1      14.186  14.354  -3.295  0.00  0.00    +0.000 C 
BRANCH   9  15
ATOM     10  C1  UNL     1      15.551  15.233  -1.367  0.00  0.00    +0.000 A 
ATOM     11  N1  UNL     1      16.479  15.131  -0.394  0.00  0.00    +0.000 NA
ATOM     12  C2  UNL     1      17.105  13.948  -0.311  0.00  0.00    +0.000 A 
ATOM     13  N2  UNL     1      16.887  12.882  -1.097  0.00  0.00    +0.000 NA
ATOM     14  C3  UNL     1      15.948  13.042  -2.050  0.00  0.00    +0.000 A 
ATOM     15  C4  UNL     1      15.235  14.209  -2.240  0.00  0.00    +0.000 A 
ENDBRANCH   9  15
ENDBRANCH   1   9
TORSDOF 3
ENDMDL
MODEL 6
REMARK VINA RESULT:    -4.271     14.714     15.834
REMARK INTER + INTRA:          -5.329
REMARK INTER:                  -5.052
REMARK INTRA:                  -0.277
REMARK UNBOUND:                -0.308
REMARK  Name = /home/anacleto/Desktop/manuscript_Mpro/naturecomm/supplementary_file_S2/6-chemical-library/molecular_docking/3D_ligand_structure/993.pdb
REMARK  3 active torsions:
REMARK  status: ('A' for Active; 'I' for Inactive)
REMARK    1  A    between atoms: C4_6  and  C5_7
REMARK    2  A    between atoms: C5_7  and  N3_8
REMARK    3  A    between atoms: N3_8  and  C6_9
REMARK                            x       y       z     vdW  Elec       q    Type
REMARK                         _______ _______ _______ _____ _____    ______ ____
ROOT
ATOM      1  N3  UNL     1      16.193  12.327  -3.120  0.00  0.00    +0.000 N 
ATOM      2  H6  UNL     1      16.763  12.511  -3.944  0.00  0.00    +0.000 HD
ENDROOT
BRANCH   1   3
ATOM      3  C6  UNL     1      15.723  13.520  -2.557  0.00  0.00    +0.000 A 
ATOM      4  C7  UNL     1      16.437  14.077  -1.486  0.00  0.00    +0.000 A 
ATOM      5  C8  UNL     1      15.993  15.231  -0.834  0.00  0.00    +0.000 A 
ATOM      6  C9  UNL     1      14.805  15.836  -1.227  0.00  0.00    +0.000 A 
ATOM      7  C10 UNL     1      14.058  15.277  -2.260  0.00  0.00    +0.000 A 
ATOM      8  C11 UNL     1      14.508  14.121  -2.908  0.00  0.00    +0.000 A 
ENDBRANCH   1   3
BRANCH   1   9
ATOM      9  C5  UNL     1      15.278  11.210  -3.304  0.00  0.00    +0.000 C 
BRANCH   9  15
ATOM     10  C1  UNL     1      13.585  10.685  -5.098  0.00  0.00    +0.000 A 
ATOM     11  N1  UNL     1      13.149  10.629  -6.372  0.00  0.00    +0.000 NA
ATOM     12  C2  UNL     1      14.018  11.053  -7.302  0.00  0.00    +0.000 A 
ATOM     13  N2  UNL     1      15.255  11.520  -7.072  0.00  0.00    +0.000 NA
ATOM     14  C3  UNL     1      15.635  11.554  -5.780  0.00  0.00    +0.000 A 
ATOM     15  C4  UNL     1      14.836  11.145  -4.731  0.00  0.00    +0.000 A 
ENDBRANCH   9  15
ENDBRANCH   1   9
TORSDOF 3
ENDMDL
MODEL 7
REMARK VINA RESULT:    -4.234      1.652      6.360
REMARK INTER + INTRA:          -5.285
REMARK INTER:                  -5.018
REMARK INTRA:                  -0.267
REMARK UNBOUND:                -0.308
REMARK  Name = /home/anacleto/Desktop/manuscript_Mpro/naturecomm/supplementary_file_S2/6-chemical-library/molecular_docking/3D_ligand_structure/993.pdb
REMARK  3 active torsions:
REMARK  status: ('A' for Active; 'I' for Inactive)
REMARK    1  A    between atoms: C4_6  and  C5_7
REMARK    2  A    between atoms: C5_7  and  N3_8
REMARK    3  A    between atoms: N3_8  and  C6_9
REMARK                            x       y       z     vdW  Elec       q    Type
REMARK                         _______ _______ _______ _____ _____    ______ ____
ROOT
ATOM      1  N3  UNL     1      17.534   3.430   8.608  0.00  0.00    +0.000 N 
ATOM      2  H6  UNL     1      18.246   3.031   7.999  0.00  0.00    +0.000 HD
ENDROOT
BRANCH   1   3
ATOM      3  C6  UNL     1      16.369   2.654   8.598  0.00  0.00    +0.000 A 
ATOM      4  C7  UNL     1      15.485   2.767   9.681  0.00  0.00    +0.000 A 
ATOM      5  C8  UNL     1      14.334   1.978   9.770  0.00  0.00    +0.000 A 
ATOM      6  C9  UNL     1      14.061   1.037   8.784  0.00  0.00    +0.000 A 
ATOM      7  C10 UNL     1      14.946   0.878   7.722  0.00  0.00    +0.000 A 
ATOM      8  C11 UNL     1      16.097   1.671   7.639  0.00  0.00    +0.000 A 
ENDBRANCH   1   3
BRANCH   1   9
ATOM      9  C5  UNL     1      18.075   3.898   9.877  0.00  0.00    +0.000 C 
BRANCH   9  15
ATOM     10  C1  UNL     1      19.118   6.014  10.766  0.00  0.00    +0.000 A 
ATOM     11  N1  UNL     1      19.698   7.224  10.640  0.00  0.00    +0.000 NA
ATOM     12  C2  UNL     1      19.854   7.664   9.382  0.00  0.00    +0.000 A 
ATOM     13  N2  UNL     1      19.489   7.013   8.267  0.00  0.00    +0.000 NA
ATOM     14  C3  UNL     1      18.916   5.808   8.456  0.00  0.00    +0.000 A 
ATOM     15  C4  UNL     1      18.698   5.245   9.697  0.00  0.00    +0.000 A 
ENDBRANCH   9  15
ENDBRANCH   1   9
TORSDOF 3
ENDMDL
MODEL 8
REMARK VINA RESULT:    -4.187     14.924     16.601
REMARK INTER + INTRA:          -5.229
REMARK INTER:                  -4.885
REMARK INTRA:                  -0.344
REMARK UNBOUND:                -0.308
REMARK  Name = /home/anacleto/Desktop/manuscript_Mpro/naturecomm/supplementary_file_S2/6-chemical-library/molecular_docking/3D_ligand_structure/993.pdb
REMARK  3 active torsions:
REMARK  status: ('A' for Active; 'I' for Inactive)
REMARK    1  A    between atoms: C4_6  and  C5_7
REMARK    2  A    between atoms: C5_7  and  N3_8
REMARK    3  A    between atoms: N3_8  and  C6_9
REMARK                            x       y       z     vdW  Elec       q    Type
REMARK                         _______ _______ _______ _____ _____    ______ ____
ROOT
ATOM      1  N3  UNL     1      16.347  12.329  -3.665  0.00  0.00    +0.000 N 
ATOM      2  H6  UNL     1      17.223  11.809  -3.670  0.00  0.00    +0.000 HD
ENDROOT
BRANCH   1   3
ATOM      3  C6  UNL     1      15.462  11.833  -4.630  0.00  0.00    +0.000 A 
ATOM      4  C7  UNL     1      15.545  12.345  -5.934  0.00  0.00    +0.000 A 
ATOM      5  C8  UNL     1      14.653  11.943  -6.933  0.00  0.00    +0.000 A 
ATOM      6  C9  UNL     1      13.640  11.039  -6.636  0.00  0.00    +0.000 A 
ATOM      7  C10 UNL     1      13.513  10.551  -5.340  0.00  0.00    +0.000 A 
ATOM      8  C11 UNL     1      14.408  10.957  -4.343  0.00  0.00    +0.000 A 
ENDBRANCH   1   3
BRANCH   1   9
ATOM      9  C5  UNL     1      15.863  12.607  -2.320  0.00  0.00    +0.000 C 
BRANCH   9  15
ATOM     10  C1  UNL     1      14.247  14.533  -2.514  0.00  0.00    +0.000 A 
ATOM     11  N1  UNL     1      13.886  15.827  -2.399  0.00  0.00    +0.000 NA
ATOM     12  C2  UNL     1      14.838  16.658  -1.951  0.00  0.00    +0.000 A 
ATOM     13  N2  UNL     1      16.091  16.314  -1.614  0.00  0.00    +0.000 NA
ATOM     14  C3  UNL     1      16.394  15.008  -1.747  0.00  0.00    +0.000 A 
ATOM     15  C4  UNL     1      15.504  14.054  -2.198  0.00  0.00    +0.000 A 
ENDBRANCH   9  15
ENDBRANCH   1   9
TORSDOF 3
ENDMDL
MODEL 9
REMARK VINA RESULT:    -4.176     13.114     14.405
REMARK INTER + INTRA:          -5.217
REMARK INTER:                  -4.909
REMARK INTRA:                  -0.308
REMARK UNBOUND:                -0.308
REMARK  Name = /home/anacleto/Desktop/manuscript_Mpro/naturecomm/supplementary_file_S2/6-chemical-library/molecular_docking/3D_ligand_structure/993.pdb
REMARK  3 active torsions:
REMARK  status: ('A' for Active; 'I' for Inactive)
REMARK    1  A    between atoms: C4_6  and  C5_7
REMARK    2  A    between atoms: C5_7  and  N3_8
REMARK    3  A    between atoms: N3_8  and  C6_9
REMARK                            x       y       z     vdW  Elec       q    Type
REMARK                         _______ _______ _______ _____ _____    ______ ____
ROOT
ATOM      1  N3  UNL     1      16.631  12.264  -1.149  0.00  0.00    +0.000 N 
ATOM      2  H6  UNL     1      16.359  11.575  -0.450  0.00  0.00    +0.000 HD
ENDROOT
BRANCH   1   3
ATOM      3  C6  UNL     1      17.506  13.213  -0.607  0.00  0.00    +0.000 A 
ATOM      4  C7  UNL     1      17.001  14.486  -0.302  0.00  0.00    +0.000 A 
ATOM      5  C8  UNL     1      17.830  15.503   0.183  0.00  0.00    +0.000 A 
ATOM      6  C9  UNL     1      19.190  15.270   0.346  0.00  0.00    +0.000 A 
ATOM      7  C10 UNL     1      19.720  14.028   0.010  0.00  0.00    +0.000 A 
ATOM      8  C11 UNL     1      18.886  13.014  -0.476  0.00  0.00    +0.000 A 
ENDBRANCH   1   3
BRANCH   1   9
ATOM      9  C5  UNL     1      16.929  11.668  -2.443  0.00  0.00    +0.000 C 
BRANCH   9  15
ATOM     10  C1  UNL     1      15.533  13.216  -3.862  0.00  0.00    +0.000 A 
ATOM     11  N1  UNL     1      14.546  13.498  -4.735  0.00  0.00    +0.000 NA
ATOM     12  C2  UNL     1      13.818  12.449  -5.147  0.00  0.00    +0.000 A 
ATOM     13  N2  UNL     1      13.991  11.173  -4.771  0.00  0.00    +0.000 NA
ATOM     14  C3  UNL     1      14.994  10.952  -3.898  0.00  0.00    +0.000 A 
ATOM     15  C4  UNL     1      15.812  11.944  -3.399  0.00  0.00    +0.000 A 
ENDBRANCH   9  15
ENDBRANCH   1   9
TORSDOF 3
ENDMDL
