MODEL 1
REMARK VINA RESULT:    -6.066      0.000      0.000
REMARK INTER + INTRA:          -7.163
REMARK INTER:                  -6.769
REMARK INTRA:                  -0.394
REMARK UNBOUND:                -0.388
REMARK  Name = /home/anacleto/Desktop/manuscript_Mpro/naturecomm/supplementary_file_S2/6-chemical-library/molecular_docking/3D_ligand_structure/389.pdb
REMARK  2 active torsions:
REMARK  status: ('A' for Active; 'I' for Inactive)
REMARK    1  A    between atoms: C6_6  and  C7_7
REMARK    2  A    between atoms: C7_7  and  C8_8
REMARK                            x       y       z     vdW  Elec       q    Type
REMARK                         _______ _______ _______ _____ _____    ______ ____
ROOT
ATOM      1  C8  UNL     1     -21.277  -6.235 -28.020  0.00  0.00    +0.000 C 
ATOM      2  C9  UNL     1     -20.954  -7.207 -29.180  0.00  0.00    +0.000 C 
ATOM      3  O1  UNL     1     -20.122  -8.113 -29.096  0.00  0.00    +0.000 OA
ATOM      4  N1  UNL     1     -20.180  -6.288 -27.063  0.00  0.00    +0.000 N 
ATOM      5  C10 UNL     1     -19.046  -5.523 -27.258  0.00  0.00    +0.000 C 
ATOM      6  O2  UNL     1     -19.035  -4.515 -27.957  0.00  0.00    +0.000 OA
ATOM      7  C11 UNL     1     -17.840  -5.986 -26.445  0.00  0.00    +0.000 C 
ATOM      8  N2  UNL     1     -17.877  -7.431 -26.239  0.00  0.00    +0.000 N 
ATOM      9  C12 UNL     1     -17.037  -8.011 -25.314  0.00  0.00    +0.000 C 
ATOM     10  O3  UNL     1     -16.359  -7.360 -24.527  0.00  0.00    +0.000 OA
ATOM     11  C13 UNL     1     -17.086  -9.524 -25.300  0.00  0.00    +0.000 C 
ATOM     12  C14 UNL     1     -15.708 -10.133 -25.097  0.00  0.00    +0.000 C 
ATOM     13  S1  UNL     1     -14.630 -10.074 -26.580  0.00  0.00    +0.000 S 
ATOM     14  S2  UNL     1     -15.439 -11.503 -27.821  0.00  0.00    +0.000 S 
ATOM     15  C15 UNL     1     -15.885 -10.593 -29.350  0.00  0.00    +0.000 C 
ATOM     16  C16 UNL     1     -16.853  -9.431 -29.136  0.00  0.00    +0.000 C 
ATOM     17  N3  UNL     1     -17.548  -9.008 -30.341  0.00  0.00    +0.000 N 
ATOM     18  C17 UNL     1     -16.871  -8.520 -31.444  0.00  0.00    +0.000 C 
ATOM     19  O4  UNL     1     -15.645  -8.477 -31.510  0.00  0.00    +0.000 OA
ATOM     20  C18 UNL     1     -17.760  -8.066 -32.614  0.00  0.00    +0.000 C 
ATOM     21  N4  UNL     1     -19.174  -8.323 -32.376  0.00  0.00    +0.000 N 
ATOM     22  C19 UNL     1     -20.050  -7.303 -32.083  0.00  0.00    +0.000 C 
ATOM     23  O5  UNL     1     -19.781  -6.113 -32.213  0.00  0.00    +0.000 OA
ATOM     24  C20 UNL     1     -21.391  -7.773 -31.515  0.00  0.00    +0.000 C 
ATOM     25  N5  UNL     1     -21.691  -6.986 -30.331  0.00  0.00    +0.000 N 
ATOM     26  H9  UNL     1     -20.037  -7.171 -26.583  0.00  0.00    +0.000 HD
ATOM     27  H12 UNL     1     -18.153  -7.992 -27.037  0.00  0.00    +0.000 HD
ATOM     28  H21 UNL     1     -18.493  -8.650 -30.206  0.00  0.00    +0.000 HD
ATOM     29  H24 UNL     1     -19.424  -9.277 -32.149  0.00  0.00    +0.000 HD
ATOM     30  H27 UNL     1     -21.950  -6.020 -30.508  0.00  0.00    +0.000 HD
ENDROOT
BRANCH   1  31
ATOM     31  C7  UNL     1     -22.638  -6.555 -27.380  0.00  0.00    +0.000 C 
BRANCH  31  37
ATOM     32  C1  UNL     1     -25.071  -5.864 -27.372  0.00  0.00    +0.000 A 
ATOM     33  C2  UNL     1     -26.099  -4.986 -27.718  0.00  0.00    +0.000 A 
ATOM     34  C3  UNL     1     -25.812  -3.818 -28.421  0.00  0.00    +0.000 A 
ATOM     35  C4  UNL     1     -24.497  -3.527 -28.776  0.00  0.00    +0.000 A 
ATOM     36  C5  UNL     1     -23.466  -4.403 -28.431  0.00  0.00    +0.000 A 
ATOM     37  C6  UNL     1     -23.744  -5.583 -27.729  0.00  0.00    +0.000 A 
ENDBRANCH  31  37
ENDBRANCH   1  31
TORSDOF 2
ENDMDL
MODEL 2
REMARK VINA RESULT:    -5.900      4.438      8.193
REMARK INTER + INTRA:          -6.978
REMARK INTER:                  -6.644
REMARK INTRA:                  -0.334
REMARK UNBOUND:                -0.388
REMARK  Name = /home/anacleto/Desktop/manuscript_Mpro/naturecomm/supplementary_file_S2/6-chemical-library/molecular_docking/3D_ligand_structure/389.pdb
REMARK  2 active torsions:
REMARK  status: ('A' for Active; 'I' for Inactive)
REMARK    1  A    between atoms: C6_6  and  C7_7
REMARK    2  A    between atoms: C7_7  and  C8_8
REMARK                            x       y       z     vdW  Elec       q    Type
REMARK                         _______ _______ _______ _____ _____    ______ ____
ROOT
ATOM      1  C8  UNL     1     -21.716  -4.732 -28.282  0.00  0.00    +0.000 C 
ATOM      2  C9  UNL     1     -22.203  -5.318 -26.936  0.00  0.00    +0.000 C 
ATOM      3  O1  UNL     1     -22.661  -6.457 -26.816  0.00  0.00    +0.000 OA
ATOM      4  N1  UNL     1     -22.284  -5.531 -29.360  0.00  0.00    +0.000 N 
ATOM      5  C10 UNL     1     -23.560  -5.273 -29.822  0.00  0.00    +0.000 C 
ATOM      6  O2  UNL     1     -24.115  -4.189 -29.674  0.00  0.00    +0.000 OA
ATOM      7  C11 UNL     1     -24.173  -6.421 -30.620  0.00  0.00    +0.000 C 
ATOM      8  N2  UNL     1     -23.675  -7.708 -30.143  0.00  0.00    +0.000 N 
ATOM      9  C12 UNL     1     -23.891  -8.843 -30.892  0.00  0.00    +0.000 C 
ATOM     10  O3  UNL     1     -24.345  -8.816 -32.031  0.00  0.00    +0.000 OA
ATOM     11  C13 UNL     1     -23.441 -10.122 -30.218  0.00  0.00    +0.000 C 
ATOM     12  C14 UNL     1     -24.410 -11.267 -30.471  0.00  0.00    +0.000 C 
ATOM     13  S1  UNL     1     -25.962 -11.172 -29.500  0.00  0.00    +0.000 S 
ATOM     14  S2  UNL     1     -25.367 -11.665 -27.592  0.00  0.00    +0.000 S 
ATOM     15  C15 UNL     1     -25.826 -10.211 -26.571  0.00  0.00    +0.000 C 
ATOM     16  C16 UNL     1     -25.198  -8.895 -27.027  0.00  0.00    +0.000 C 
ATOM     17  N3  UNL     1     -25.180  -7.861 -26.004  0.00  0.00    +0.000 N 
ATOM     18  C17 UNL     1     -26.343  -7.361 -25.447  0.00  0.00    +0.000 C 
ATOM     19  O4  UNL     1     -27.456  -7.800 -25.722  0.00  0.00    +0.000 OA
ATOM     20  C18 UNL     1     -26.148  -6.234 -24.419  0.00  0.00    +0.000 C 
ATOM     21  N4  UNL     1     -24.744  -5.958 -24.149  0.00  0.00    +0.000 N 
ATOM     22  C19 UNL     1     -24.128  -4.826 -24.631  0.00  0.00    +0.000 C 
ATOM     23  O5  UNL     1     -24.732  -3.875 -25.119  0.00  0.00    +0.000 OA
ATOM     24  C20 UNL     1     -22.600  -4.869 -24.568  0.00  0.00    +0.000 C 
ATOM     25  N5  UNL     1     -22.073  -4.458 -25.858  0.00  0.00    +0.000 N 
ATOM     26  H9  UNL     1     -21.985  -6.499 -29.414  0.00  0.00    +0.000 HD
ATOM     27  H12 UNL     1     -23.602  -7.818 -29.138  0.00  0.00    +0.000 HD
ATOM     28  H21 UNL     1     -24.391  -7.216 -26.039  0.00  0.00    +0.000 HD
ATOM     29  H24 UNL     1     -24.181  -6.746 -23.855  0.00  0.00    +0.000 HD
ATOM     30  H27 UNL     1     -22.173  -3.470 -26.071  0.00  0.00    +0.000 HD
ENDROOT
BRANCH   1  31
ATOM     31  C7  UNL     1     -20.181  -4.662 -28.342  0.00  0.00    +0.000 C 
BRANCH  31  37
ATOM     32  C1  UNL     1     -19.033  -6.833 -27.737  0.00  0.00    +0.000 A 
ATOM     33  C2  UNL     1     -18.381  -8.016 -28.087  0.00  0.00    +0.000 A 
ATOM     34  C3  UNL     1     -18.196  -8.340 -29.429  0.00  0.00    +0.000 A 
ATOM     35  C4  UNL     1     -18.666  -7.482 -30.422  0.00  0.00    +0.000 A 
ATOM     36  C5  UNL     1     -19.318  -6.298 -30.075  0.00  0.00    +0.000 A 
ATOM     37  C6  UNL     1     -19.504  -5.959 -28.728  0.00  0.00    +0.000 A 
ENDBRANCH  31  37
ENDBRANCH   1  31
TORSDOF 2
ENDMDL
MODEL 3
REMARK VINA RESULT:    -5.772      8.236     11.037
REMARK INTER + INTRA:          -6.835
REMARK INTER:                  -6.471
REMARK INTRA:                  -0.364
REMARK UNBOUND:                -0.388
REMARK  Name = /home/anacleto/Desktop/manuscript_Mpro/naturecomm/supplementary_file_S2/6-chemical-library/molecular_docking/3D_ligand_structure/389.pdb
REMARK  2 active torsions:
REMARK  status: ('A' for Active; 'I' for Inactive)
REMARK    1  A    between atoms: C6_6  and  C7_7
REMARK    2  A    between atoms: C7_7  and  C8_8
REMARK                            x       y       z     vdW  Elec       q    Type
REMARK                         _______ _______ _______ _____ _____    ______ ____
ROOT
ATOM      1  C8  UNL     1     -26.235  -6.206 -24.707  0.00  0.00    +0.000 C 
ATOM      2  C9  UNL     1     -27.758  -6.464 -24.641  0.00  0.00    +0.000 C 
ATOM      3  O1  UNL     1     -28.357  -6.733 -23.596  0.00  0.00    +0.000 OA
ATOM      4  N1  UNL     1     -25.626  -6.755 -23.502  0.00  0.00    +0.000 N 
ATOM      5  C10 UNL     1     -25.297  -8.095 -23.435  0.00  0.00    +0.000 C 
ATOM      6  O2  UNL     1     -25.115  -8.786 -24.431  0.00  0.00    +0.000 OA
ATOM      7  C11 UNL     1     -25.080  -8.607 -22.013  0.00  0.00    +0.000 C 
ATOM      8  N2  UNL     1     -25.919  -7.879 -21.066  0.00  0.00    +0.000 N 
ATOM      9  C12 UNL     1     -25.683  -7.998 -19.714  0.00  0.00    +0.000 C 
ATOM     10  O3  UNL     1     -24.697  -8.564 -19.255  0.00  0.00    +0.000 OA
ATOM     11  C13 UNL     1     -26.707  -7.299 -18.845  0.00  0.00    +0.000 C 
ATOM     12  C14 UNL     1     -27.042  -8.108 -17.602  0.00  0.00    +0.000 C 
ATOM     13  S1  UNL     1     -28.130  -9.552 -17.910  0.00  0.00    +0.000 S 
ATOM     14  S2  UNL     1     -29.973  -8.702 -18.253  0.00  0.00    +0.000 S 
ATOM     15  C15 UNL     1     -30.440  -9.266 -19.934  0.00  0.00    +0.000 C 
ATOM     16  C16 UNL     1     -29.443  -8.889 -21.028  0.00  0.00    +0.000 C 
ATOM     17  N3  UNL     1     -29.997  -8.922 -22.372  0.00  0.00    +0.000 N 
ATOM     18  C17 UNL     1     -30.496 -10.085 -22.931  0.00  0.00    +0.000 C 
ATOM     19  O4  UNL     1     -30.572 -11.143 -22.313  0.00  0.00    +0.000 OA
ATOM     20  C18 UNL     1     -30.994  -9.957 -24.381  0.00  0.00    +0.000 C 
ATOM     21  N4  UNL     1     -30.930  -8.589 -24.877  0.00  0.00    +0.000 N 
ATOM     22  C19 UNL     1     -29.978  -8.199 -25.790  0.00  0.00    +0.000 C 
ATOM     23  O5  UNL     1     -29.269  -8.983 -26.414  0.00  0.00    +0.000 OA
ATOM     24  C20 UNL     1     -29.824  -6.682 -25.926  0.00  0.00    +0.000 C 
ATOM     25  N5  UNL     1     -28.410  -6.355 -25.857  0.00  0.00    +0.000 N 
ATOM     26  H9  UNL     1     -25.889  -6.322 -22.623  0.00  0.00    +0.000 HD
ATOM     27  H12 UNL     1     -26.870  -7.690 -21.359  0.00  0.00    +0.000 HD
ATOM     28  H21 UNL     1     -29.609  -8.245 -23.028  0.00  0.00    +0.000 HD
ATOM     29  H24 UNL     1     -31.407  -7.888 -24.322  0.00  0.00    +0.000 HD
ATOM     30  H27 UNL     1     -27.864  -6.621 -26.672  0.00  0.00    +0.000 HD
ENDROOT
BRANCH   1  31
ATOM     31  C7  UNL     1     -25.925  -4.712 -24.900  0.00  0.00    +0.000 C 
BRANCH  31  37
ATOM     32  C1  UNL     1     -23.946  -4.369 -26.438  0.00  0.00    +0.000 A 
ATOM     33  C2  UNL     1     -23.396  -4.015 -27.670  0.00  0.00    +0.000 A 
ATOM     34  C3  UNL     1     -24.228  -3.650 -28.727  0.00  0.00    +0.000 A 
ATOM     35  C4  UNL     1     -25.610  -3.641 -28.551  0.00  0.00    +0.000 A 
ATOM     36  C5  UNL     1     -26.163  -3.995 -27.319  0.00  0.00    +0.000 A 
ATOM     37  C6  UNL     1     -25.336  -4.359 -26.249  0.00  0.00    +0.000 A 
ENDBRANCH  31  37
ENDBRANCH   1  31
TORSDOF 2
ENDMDL
MODEL 4
REMARK VINA RESULT:    -5.751      8.202     11.470
REMARK INTER + INTRA:          -6.812
REMARK INTER:                  -6.441
REMARK INTRA:                  -0.371
REMARK UNBOUND:                -0.388
REMARK  Name = /home/anacleto/Desktop/manuscript_Mpro/naturecomm/supplementary_file_S2/6-chemical-library/molecular_docking/3D_ligand_structure/389.pdb
REMARK  2 active torsions:
REMARK  status: ('A' for Active; 'I' for Inactive)
REMARK    1  A    between atoms: C6_6  and  C7_7
REMARK    2  A    between atoms: C7_7  and  C8_8
REMARK                            x       y       z     vdW  Elec       q    Type
REMARK                         _______ _______ _______ _____ _____    ______ ____
ROOT
ATOM      1  C8  UNL     1     -23.135  -8.372 -19.648  0.00  0.00    +0.000 C 
ATOM      2  C9  UNL     1     -24.274  -9.035 -20.458  0.00  0.00    +0.000 C 
ATOM      3  O1  UNL     1     -24.578  -8.697 -21.605  0.00  0.00    +0.000 OA
ATOM      4  N1  UNL     1     -22.833  -7.083 -20.256  0.00  0.00    +0.000 N 
ATOM      5  C10 UNL     1     -23.580  -5.967 -19.934  0.00  0.00    +0.000 C 
ATOM      6  O2  UNL     1     -24.226  -5.876 -18.896  0.00  0.00    +0.000 OA
ATOM      7  C11 UNL     1     -23.443  -4.821 -20.934  0.00  0.00    +0.000 C 
ATOM      8  N2  UNL     1     -23.200  -5.334 -22.279  0.00  0.00    +0.000 N 
ATOM      9  C12 UNL     1     -22.784  -4.475 -23.272  0.00  0.00    +0.000 C 
ATOM     10  O3  UNL     1     -22.448  -3.315 -23.055  0.00  0.00    +0.000 OA
ATOM     11  C13 UNL     1     -22.700  -5.111 -24.643  0.00  0.00    +0.000 C 
ATOM     12  C14 UNL     1     -23.176  -4.166 -25.736  0.00  0.00    +0.000 C 
ATOM     13  S1  UNL     1     -24.997  -3.966 -25.821  0.00  0.00    +0.000 S 
ATOM     14  S2  UNL     1     -25.641  -5.747 -26.627  0.00  0.00    +0.000 S 
ATOM     15  C15 UNL     1     -26.786  -6.438 -25.372  0.00  0.00    +0.000 C 
ATOM     16  C16 UNL     1     -26.164  -6.645 -23.993  0.00  0.00    +0.000 C 
ATOM     17  N3  UNL     1     -26.891  -7.580 -23.148  0.00  0.00    +0.000 N 
ATOM     18  C17 UNL     1     -28.198  -7.353 -22.759  0.00  0.00    +0.000 C 
ATOM     19  O4  UNL     1     -28.854  -6.393 -23.154  0.00  0.00    +0.000 OA
ATOM     20  C18 UNL     1     -28.800  -8.414 -21.823  0.00  0.00    +0.000 C 
ATOM     21  N4  UNL     1     -27.896  -9.530 -21.585  0.00  0.00    +0.000 N 
ATOM     22  C19 UNL     1     -27.245  -9.685 -20.383  0.00  0.00    +0.000 C 
ATOM     23  O5  UNL     1     -27.527  -9.055 -19.368  0.00  0.00    +0.000 OA
ATOM     24  C20 UNL     1     -26.081 -10.677 -20.423  0.00  0.00    +0.000 C 
ATOM     25  N5  UNL     1     -24.926 -10.059 -19.794  0.00  0.00    +0.000 N 
ATOM     26  H9  UNL     1     -22.456  -7.102 -21.199  0.00  0.00    +0.000 HD
ATOM     27  H12 UNL     1     -23.744  -6.142 -22.558  0.00  0.00    +0.000 HD
ATOM     28  H21 UNL     1     -26.324  -8.126 -22.500  0.00  0.00    +0.000 HD
ATOM     29  H24 UNL     1     -27.545 -10.006 -22.408  0.00  0.00    +0.000 HD
ATOM     30  H27 UNL     1     -24.985  -9.960 -18.785  0.00  0.00    +0.000 HD
ENDROOT
BRANCH   1  31
ATOM     31  C7  UNL     1     -21.903  -9.287 -19.556  0.00  0.00    +0.000 C 
BRANCH  31  37
ATOM     32  C1  UNL     1     -20.055 -10.048 -18.005  0.00  0.00    +0.000 A 
ATOM     33  C2  UNL     1     -19.395 -10.021 -16.776  0.00  0.00    +0.000 A 
ATOM     34  C3  UNL     1     -19.839  -9.173 -15.764  0.00  0.00    +0.000 A 
ATOM     35  C4  UNL     1     -20.943  -8.351 -15.981  0.00  0.00    +0.000 A 
ATOM     36  C5  UNL     1     -21.606  -8.376 -17.209  0.00  0.00    +0.000 A 
ATOM     37  C6  UNL     1     -21.171  -9.229 -18.232  0.00  0.00    +0.000 A 
ENDBRANCH  31  37
ENDBRANCH   1  31
TORSDOF 2
ENDMDL
MODEL 5
REMARK VINA RESULT:    -5.735      6.306      9.037
REMARK INTER + INTRA:          -6.793
REMARK INTER:                  -6.394
REMARK INTRA:                  -0.400
REMARK UNBOUND:                -0.388
REMARK  Name = /home/anacleto/Desktop/manuscript_Mpro/naturecomm/supplementary_file_S2/6-chemical-library/molecular_docking/3D_ligand_structure/389.pdb
REMARK  2 active torsions:
REMARK  status: ('A' for Active; 'I' for Inactive)
REMARK    1  A    between atoms: C6_6  and  C7_7
REMARK    2  A    between atoms: C7_7  and  C8_8
REMARK                            x       y       z     vdW  Elec       q    Type
REMARK                         _______ _______ _______ _____ _____    ______ ____
ROOT
ATOM      1  C8  UNL     1     -27.823  -6.840 -23.624  0.00  0.00    +0.000 C 
ATOM      2  C9  UNL     1     -26.910  -8.028 -24.004  0.00  0.00    +0.000 C 
ATOM      3  O1  UNL     1     -25.985  -7.942 -24.816  0.00  0.00    +0.000 OA
ATOM      4  N1  UNL     1     -27.700  -5.820 -24.658  0.00  0.00    +0.000 N 
ATOM      5  C10 UNL     1     -28.453  -5.902 -25.813  0.00  0.00    +0.000 C 
ATOM      6  O2  UNL     1     -29.496  -6.543 -25.883  0.00  0.00    +0.000 OA
ATOM      7  C11 UNL     1     -27.924  -5.042 -26.958  0.00  0.00    +0.000 C 
ATOM      8  N2  UNL     1     -26.471  -4.918 -26.886  0.00  0.00    +0.000 N 
ATOM      9  C12 UNL     1     -25.827  -3.976 -27.656  0.00  0.00    +0.000 C 
ATOM     10  O3  UNL     1     -26.422  -3.113 -28.293  0.00  0.00    +0.000 OA
ATOM     11  C13 UNL     1     -24.316  -4.047 -27.584  0.00  0.00    +0.000 C 
ATOM     12  C14 UNL     1     -23.672  -3.793 -28.937  0.00  0.00    +0.000 C 
ATOM     13  S1  UNL     1     -23.790  -5.200 -30.107  0.00  0.00    +0.000 S 
ATOM     14  S2  UNL     1     -22.445  -6.565 -29.357  0.00  0.00    +0.000 S 
ATOM     15  C15 UNL     1     -23.443  -8.067 -29.022  0.00  0.00    +0.000 C 
ATOM     16  C16 UNL     1     -24.610  -7.850 -28.061  0.00  0.00    +0.000 C 
ATOM     17  N3  UNL     1     -25.110  -9.072 -27.450  0.00  0.00    +0.000 N 
ATOM     18  C17 UNL     1     -25.644 -10.102 -28.202  0.00  0.00    +0.000 C 
ATOM     19  O4  UNL     1     -25.667 -10.089 -29.430  0.00  0.00    +0.000 OA
ATOM     20  C18 UNL     1     -26.176 -11.299 -27.396  0.00  0.00    +0.000 C 
ATOM     21  N4  UNL     1     -25.934 -11.163 -25.966  0.00  0.00    +0.000 N 
ATOM     22  C19 UNL     1     -26.952 -10.871 -25.089  0.00  0.00    +0.000 C 
ATOM     23  O5  UNL     1     -28.142 -10.918 -25.384  0.00  0.00    +0.000 OA
ATOM     24  C20 UNL     1     -26.478 -10.414 -23.708  0.00  0.00    +0.000 C 
ATOM     25  N5  UNL     1     -27.205  -9.210 -23.345  0.00  0.00    +0.000 N 
ATOM     26  H9  UNL     1     -26.790  -5.382 -24.757  0.00  0.00    +0.000 HD
ATOM     27  H12 UNL     1     -25.958  -5.761 -26.652  0.00  0.00    +0.000 HD
ATOM     28  H21 UNL     1     -25.478  -8.976 -26.504  0.00  0.00    +0.000 HD
ATOM     29  H24 UNL     1     -24.973 -11.004 -25.688  0.00  0.00    +0.000 HD
ATOM     30  H27 UNL     1     -28.184  -9.349 -23.114  0.00  0.00    +0.000 HD
ENDROOT
BRANCH   1  31
ATOM     31  C7  UNL     1     -27.496  -6.304 -22.221  0.00  0.00    +0.000 C 
BRANCH  31  37
ATOM     32  C1  UNL     1     -25.352  -6.847 -20.992  0.00  0.00    +0.000 A 
ATOM     33  C2  UNL     1     -24.001  -6.626 -20.724  0.00  0.00    +0.000 A 
ATOM     34  C3  UNL     1     -23.304  -5.641 -21.420  0.00  0.00    +0.000 A 
ATOM     35  C4  UNL     1     -23.958  -4.878 -22.386  0.00  0.00    +0.000 A 
ATOM     36  C5  UNL     1     -25.310  -5.097 -22.656  0.00  0.00    +0.000 A 
ATOM     37  C6  UNL     1     -26.021  -6.081 -21.958  0.00  0.00    +0.000 A 
ENDBRANCH  31  37
ENDBRANCH   1  31
TORSDOF 2
ENDMDL
MODEL 6
REMARK VINA RESULT:    -5.733      6.266      9.724
REMARK INTER + INTRA:          -6.791
REMARK INTER:                  -6.387
REMARK INTRA:                  -0.405
REMARK UNBOUND:                -0.388
REMARK  Name = /home/anacleto/Desktop/manuscript_Mpro/naturecomm/supplementary_file_S2/6-chemical-library/molecular_docking/3D_ligand_structure/389.pdb
REMARK  2 active torsions:
REMARK  status: ('A' for Active; 'I' for Inactive)
REMARK    1  A    between atoms: C6_6  and  C7_7
REMARK    2  A    between atoms: C7_7  and  C8_8
REMARK                            x       y       z     vdW  Elec       q    Type
REMARK                         _______ _______ _______ _____ _____    ______ ____
ROOT
ATOM      1  C8  UNL     1     -25.394  -4.956 -27.931  0.00  0.00    +0.000 C 
ATOM      2  C9  UNL     1     -24.463  -5.347 -26.760  0.00  0.00    +0.000 C 
ATOM      3  O1  UNL     1     -24.730  -6.235 -25.946  0.00  0.00    +0.000 OA
ATOM      4  N1  UNL     1     -26.730  -5.460 -27.640  0.00  0.00    +0.000 N 
ATOM      5  C10 UNL     1     -27.592  -4.733 -26.842  0.00  0.00    +0.000 C 
ATOM      6  O2  UNL     1     -27.478  -3.524 -26.669  0.00  0.00    +0.000 OA
ATOM      7  C11 UNL     1     -28.753  -5.550 -26.280  0.00  0.00    +0.000 C 
ATOM      8  N2  UNL     1     -28.357  -6.940 -26.075  0.00  0.00    +0.000 N 
ATOM      9  C12 UNL     1     -29.319  -7.895 -25.832  0.00  0.00    +0.000 C 
ATOM     10  O3  UNL     1     -30.521  -7.675 -25.936  0.00  0.00    +0.000 OA
ATOM     11  C13 UNL     1     -28.761  -9.264 -25.506  0.00  0.00    +0.000 C 
ATOM     12  C14 UNL     1     -29.563  -9.958 -24.416  0.00  0.00    +0.000 C 
ATOM     13  S1  UNL     1     -29.258  -9.312 -22.727  0.00  0.00    +0.000 S 
ATOM     14  S2  UNL     1     -27.387 -10.034 -22.264  0.00  0.00    +0.000 S 
ATOM     15  C15 UNL     1     -26.380  -8.538 -21.929  0.00  0.00    +0.000 C 
ATOM     16  C16 UNL     1     -26.321  -7.542 -23.085  0.00  0.00    +0.000 C 
ATOM     17  N3  UNL     1     -25.204  -6.613 -23.012  0.00  0.00    +0.000 N 
ATOM     18  C17 UNL     1     -25.056  -5.727 -21.961  0.00  0.00    +0.000 C 
ATOM     19  O4  UNL     1     -25.808  -5.711 -20.990  0.00  0.00    +0.000 OA
ATOM     20  C18 UNL     1     -23.850  -4.778 -22.066  0.00  0.00    +0.000 C 
ATOM     21  N4  UNL     1     -23.020  -5.053 -23.230  0.00  0.00    +0.000 N 
ATOM     22  C19 UNL     1     -23.022  -4.224 -24.327  0.00  0.00    +0.000 C 
ATOM     23  O5  UNL     1     -23.528  -3.105 -24.336  0.00  0.00    +0.000 OA
ATOM     24  C20 UNL     1     -22.388  -4.836 -25.578  0.00  0.00    +0.000 C 
ATOM     25  N5  UNL     1     -23.285  -4.623 -26.701  0.00  0.00    +0.000 N 
ATOM     26  H9  UNL     1     -26.836  -6.468 -27.596  0.00  0.00    +0.000 HD
ATOM     27  H12 UNL     1     -27.436  -7.093 -25.678  0.00  0.00    +0.000 HD
ATOM     28  H21 UNL     1     -24.821  -6.310 -23.907  0.00  0.00    +0.000 HD
ATOM     29  H24 UNL     1     -22.677  -6.002 -23.322  0.00  0.00    +0.000 HD
ATOM     30  H27 UNL     1     -23.342  -3.665 -27.033  0.00  0.00    +0.000 HD
ENDROOT
BRANCH   1  31
ATOM     31  C7  UNL     1     -24.850  -5.463 -29.277  0.00  0.00    +0.000 C 
BRANCH  31  37
ATOM     32  C1  UNL     1     -22.904  -7.077 -29.358  0.00  0.00    +0.000 A 
ATOM     33  C2  UNL     1     -22.380  -8.370 -29.357  0.00  0.00    +0.000 A 
ATOM     34  C3  UNL     1     -23.231  -9.467 -29.234  0.00  0.00    +0.000 A 
ATOM     35  C4  UNL     1     -24.605  -9.270 -29.111  0.00  0.00    +0.000 A 
ATOM     36  C5  UNL     1     -25.131  -7.977 -29.112  0.00  0.00    +0.000 A 
ATOM     37  C6  UNL     1     -24.286  -6.867 -29.241  0.00  0.00    +0.000 A 
ENDBRANCH  31  37
ENDBRANCH   1  31
TORSDOF 2
ENDMDL
MODEL 7
REMARK VINA RESULT:    -5.620     18.361     20.932
REMARK INTER + INTRA:          -6.666
REMARK INTER:                  -6.266
REMARK INTRA:                  -0.400
REMARK UNBOUND:                -0.388
REMARK  Name = /home/anacleto/Desktop/manuscript_Mpro/naturecomm/supplementary_file_S2/6-chemical-library/molecular_docking/3D_ligand_structure/389.pdb
REMARK  2 active torsions:
REMARK  status: ('A' for Active; 'I' for Inactive)
REMARK    1  A    between atoms: C6_6  and  C7_7
REMARK    2  A    between atoms: C7_7  and  C8_8
REMARK                            x       y       z     vdW  Elec       q    Type
REMARK                         _______ _______ _______ _____ _____    ______ ____
ROOT
ATOM      1  C8  UNL     1     -23.514   7.153 -40.054  0.00  0.00    +0.000 C 
ATOM      2  C9  UNL     1     -23.957   8.487 -40.699  0.00  0.00    +0.000 C 
ATOM      3  O1  UNL     1     -23.166   9.353 -41.081  0.00  0.00    +0.000 OA
ATOM      4  N1  UNL     1     -22.139   7.303 -39.594  0.00  0.00    +0.000 N 
ATOM      5  C10 UNL     1     -21.873   7.872 -38.364  0.00  0.00    +0.000 C 
ATOM      6  O2  UNL     1     -22.697   7.914 -37.457  0.00  0.00    +0.000 OA
ATOM      7  C11 UNL     1     -20.432   8.351 -38.204  0.00  0.00    +0.000 C 
ATOM      8  N2  UNL     1     -19.881   8.778 -39.487  0.00  0.00    +0.000 N 
ATOM      9  C12 UNL     1     -18.526   8.989 -39.611  0.00  0.00    +0.000 C 
ATOM     10  O3  UNL     1     -17.719   8.683 -38.740  0.00  0.00    +0.000 OA
ATOM     11  C13 UNL     1     -18.111   9.556 -40.952  0.00  0.00    +0.000 C 
ATOM     12  C14 UNL     1     -17.006  10.591 -40.812  0.00  0.00    +0.000 C 
ATOM     13  S1  UNL     1     -17.570  12.217 -40.177  0.00  0.00    +0.000 S 
ATOM     14  S2  UNL     1     -18.581  13.033 -41.773  0.00  0.00    +0.000 S 
ATOM     15  C15 UNL     1     -20.278  13.331 -41.146  0.00  0.00    +0.000 C 
ATOM     16  C16 UNL     1     -20.986  12.085 -40.619  0.00  0.00    +0.000 C 
ATOM     17  N3  UNL     1     -22.434  12.210 -40.549  0.00  0.00    +0.000 N 
ATOM     18  C17 UNL     1     -23.050  13.157 -39.752  0.00  0.00    +0.000 C 
ATOM     19  O4  UNL     1     -22.425  13.997 -39.111  0.00  0.00    +0.000 OA
ATOM     20  C18 UNL     1     -24.588  13.118 -39.753  0.00  0.00    +0.000 C 
ATOM     21  N4  UNL     1     -25.123  12.130 -40.679  0.00  0.00    +0.000 N 
ATOM     22  C19 UNL     1     -25.678  10.953 -40.234  0.00  0.00    +0.000 C 
ATOM     23  O5  UNL     1     -25.967  10.735 -39.061  0.00  0.00    +0.000 OA
ATOM     24  C20 UNL     1     -25.855   9.892 -41.322  0.00  0.00    +0.000 C 
ATOM     25  N5  UNL     1     -25.328   8.632 -40.828  0.00  0.00    +0.000 N 
ATOM     26  H9  UNL     1     -21.435   7.452 -40.309  0.00  0.00    +0.000 HD
ATOM     27  H12 UNL     1     -20.496   9.321 -40.082  0.00  0.00    +0.000 HD
ATOM     28  H21 UNL     1     -22.961  11.352 -40.707  0.00  0.00    +0.000 HD
ATOM     29  H24 UNL     1     -24.814  12.205 -41.641  0.00  0.00    +0.000 HD
ATOM     30  H27 UNL     1     -25.886   8.182 -40.108  0.00  0.00    +0.000 HD
ENDROOT
BRANCH   1  31
ATOM     31  C7  UNL     1     -23.689   5.973 -41.024  0.00  0.00    +0.000 C 
BRANCH  31  37
ATOM     32  C1  UNL     1     -24.793   4.772 -39.091  0.00  0.00    +0.000 A 
ATOM     33  C2  UNL     1     -25.431   3.660 -38.539  0.00  0.00    +0.000 A 
ATOM     34  C3  UNL     1     -25.697   2.545 -39.330  0.00  0.00    +0.000 A 
ATOM     35  C4  UNL     1     -25.326   2.542 -40.674  0.00  0.00    +0.000 A 
ATOM     36  C5  UNL     1     -24.688   3.653 -41.228  0.00  0.00    +0.000 A 
ATOM     37  C6  UNL     1     -24.411   4.777 -40.440  0.00  0.00    +0.000 A 
ENDBRANCH  31  37
ENDBRANCH   1  31
TORSDOF 2
ENDMDL
MODEL 8
REMARK VINA RESULT:    -5.550      5.062      8.981
REMARK INTER + INTRA:          -6.587
REMARK INTER:                  -6.199
REMARK INTRA:                  -0.388
REMARK UNBOUND:                -0.388
REMARK  Name = /home/anacleto/Desktop/manuscript_Mpro/naturecomm/supplementary_file_S2/6-chemical-library/molecular_docking/3D_ligand_structure/389.pdb
REMARK  2 active torsions:
REMARK  status: ('A' for Active; 'I' for Inactive)
REMARK    1  A    between atoms: C6_6  and  C7_7
REMARK    2  A    between atoms: C7_7  and  C8_8
REMARK                            x       y       z     vdW  Elec       q    Type
REMARK                         _______ _______ _______ _____ _____    ______ ____
ROOT
ATOM      1  C8  UNL     1     -21.655  -7.797 -28.294  0.00  0.00    +0.000 C 
ATOM      2  C9  UNL     1     -22.246  -6.920 -27.167  0.00  0.00    +0.000 C 
ATOM      3  O1  UNL     1     -23.270  -7.212 -26.544  0.00  0.00    +0.000 OA
ATOM      4  N1  UNL     1     -22.695  -8.706 -28.759  0.00  0.00    +0.000 N 
ATOM      5  C10 UNL     1     -23.616  -8.289 -29.700  0.00  0.00    +0.000 C 
ATOM      6  O2  UNL     1     -23.408  -7.354 -30.466  0.00  0.00    +0.000 OA
ATOM      7  C11 UNL     1     -24.867  -9.161 -29.770  0.00  0.00    +0.000 C 
ATOM      8  N2  UNL     1     -25.173  -9.734 -28.463  0.00  0.00    +0.000 N 
ATOM      9  C12 UNL     1     -26.093 -10.754 -28.363  0.00  0.00    +0.000 C 
ATOM     10  O3  UNL     1     -26.563 -11.328 -29.339  0.00  0.00    +0.000 OA
ATOM     11  C13 UNL     1     -26.412 -11.160 -26.940  0.00  0.00    +0.000 C 
ATOM     12  C14 UNL     1     -27.889 -11.475 -26.759  0.00  0.00    +0.000 C 
ATOM     13  S1  UNL     1     -28.975  -9.999 -26.696  0.00  0.00    +0.000 S 
ATOM     14  S2  UNL     1     -28.584  -9.191 -24.844  0.00  0.00    +0.000 S 
ATOM     15  C15 UNL     1     -27.989  -7.492 -25.193  0.00  0.00    +0.000 C 
ATOM     16  C16 UNL     1     -26.760  -7.425 -26.098  0.00  0.00    +0.000 C 
ATOM     17  N3  UNL     1     -26.030  -6.171 -26.015  0.00  0.00    +0.000 N 
ATOM     18  C17 UNL     1     -26.609  -4.961 -26.353  0.00  0.00    +0.000 C 
ATOM     19  O4  UNL     1     -27.789  -4.854 -26.675  0.00  0.00    +0.000 OA
ATOM     20  C18 UNL     1     -25.681  -3.738 -26.260  0.00  0.00    +0.000 C 
ATOM     21  N4  UNL     1     -24.364  -4.073 -25.736  0.00  0.00    +0.000 N 
ATOM     22  C19 UNL     1     -23.256  -4.116 -26.551  0.00  0.00    +0.000 C 
ATOM     23  O5  UNL     1     -23.233  -3.676 -27.696  0.00  0.00    +0.000 OA
ATOM     24  C20 UNL     1     -22.048  -4.822 -25.930  0.00  0.00    +0.000 C 
ATOM     25  N5  UNL     1     -21.522  -5.771 -26.897  0.00  0.00    +0.000 N 
ATOM     26  H9  UNL     1     -23.030  -9.393 -28.091  0.00  0.00    +0.000 HD
ATOM     27  H12 UNL     1     -25.072  -9.116 -27.666  0.00  0.00    +0.000 HD
ATOM     28  H21 UNL     1     -25.022  -6.234 -26.153  0.00  0.00    +0.000 HD
ATOM     29  H24 UNL     1     -24.344  -4.546 -24.841  0.00  0.00    +0.000 HD
ATOM     30  H27 UNL     1     -21.044  -5.357 -27.692  0.00  0.00    +0.000 HD
ENDROOT
BRANCH   1  31
ATOM     31  C7  UNL     1     -20.389  -8.535 -27.828  0.00  0.00    +0.000 C 
BRANCH  31  37
ATOM     32  C1  UNL     1     -19.443  -8.021 -30.117  0.00  0.00    +0.000 A 
ATOM     33  C2  UNL     1     -18.400  -8.028 -31.044  0.00  0.00    +0.000 A 
ATOM     34  C3  UNL     1     -17.150  -8.527 -30.685  0.00  0.00    +0.000 A 
ATOM     35  C4  UNL     1     -16.942  -9.015 -29.397  0.00  0.00    +0.000 A 
ATOM     36  C5  UNL     1     -17.983  -9.009 -28.466  0.00  0.00    +0.000 A 
ATOM     37  C6  UNL     1     -19.245  -8.516 -28.819  0.00  0.00    +0.000 A 
ENDBRANCH  31  37
ENDBRANCH   1  31
TORSDOF 2
ENDMDL
MODEL 9
REMARK VINA RESULT:    -5.548     17.999     21.106
REMARK INTER + INTRA:          -6.585
REMARK INTER:                  -6.264
REMARK INTRA:                  -0.321
REMARK UNBOUND:                -0.388
REMARK  Name = /home/anacleto/Desktop/manuscript_Mpro/naturecomm/supplementary_file_S2/6-chemical-library/molecular_docking/3D_ligand_structure/389.pdb
REMARK  2 active torsions:
REMARK  status: ('A' for Active; 'I' for Inactive)
REMARK    1  A    between atoms: C6_6  and  C7_7
REMARK    2  A    between atoms: C7_7  and  C8_8
REMARK                            x       y       z     vdW  Elec       q    Type
REMARK                         _______ _______ _______ _____ _____    ______ ____
ROOT
ATOM      1  C8  UNL     1     -23.693   6.894 -39.966  0.00  0.00    +0.000 C 
ATOM      2  C9  UNL     1     -24.852   5.929 -40.308  0.00  0.00    +0.000 C 
ATOM      3  O1  UNL     1     -25.942   6.304 -40.747  0.00  0.00    +0.000 OA
ATOM      4  N1  UNL     1     -24.243   8.236 -39.826  0.00  0.00    +0.000 N 
ATOM      5  C10 UNL     1     -24.802   8.640 -38.629  0.00  0.00    +0.000 C 
ATOM      6  O2  UNL     1     -24.533   8.109 -37.557  0.00  0.00    +0.000 OA
ATOM      7  C11 UNL     1     -25.701   9.869 -38.749  0.00  0.00    +0.000 C 
ATOM      8  N2  UNL     1     -26.347   9.913 -40.058  0.00  0.00    +0.000 N 
ATOM      9  C12 UNL     1     -26.980  11.065 -40.468  0.00  0.00    +0.000 C 
ATOM     10  O3  UNL     1     -26.899  12.126 -39.858  0.00  0.00    +0.000 OA
ATOM     11  C13 UNL     1     -27.719  10.928 -41.782  0.00  0.00    +0.000 C 
ATOM     12  C14 UNL     1     -29.041  11.680 -41.769  0.00  0.00    +0.000 C 
ATOM     13  S1  UNL     1     -30.370  10.856 -40.811  0.00  0.00    +0.000 S 
ATOM     14  S2  UNL     1     -30.910   9.268 -42.004  0.00  0.00    +0.000 S 
ATOM     15  C15 UNL     1     -30.625   7.785 -40.963  0.00  0.00    +0.000 C 
ATOM     16  C16 UNL     1     -29.193   7.635 -40.454  0.00  0.00    +0.000 C 
ATOM     17  N3  UNL     1     -28.851   6.286 -40.030  0.00  0.00    +0.000 N 
ATOM     18  C17 UNL     1     -29.513   5.654 -38.993  0.00  0.00    +0.000 C 
ATOM     19  O4  UNL     1     -30.472   6.154 -38.411  0.00  0.00    +0.000 OA
ATOM     20  C18 UNL     1     -28.992   4.252 -38.638  0.00  0.00    +0.000 C 
ATOM     21  N4  UNL     1     -27.936   3.802 -39.536  0.00  0.00    +0.000 N 
ATOM     22  C19 UNL     1     -26.622   3.751 -39.132  0.00  0.00    +0.000 C 
ATOM     23  O5  UNL     1     -26.263   3.858 -37.963  0.00  0.00    +0.000 OA
ATOM     24  C20 UNL     1     -25.619   3.610 -40.278  0.00  0.00    +0.000 C 
ATOM     25  N5  UNL     1     -24.564   4.592 -40.092  0.00  0.00    +0.000 N 
ATOM     26  H9  UNL     1     -24.645   8.652 -40.660  0.00  0.00    +0.000 HD
ATOM     27  H12 UNL     1     -26.700   9.032 -40.415  0.00  0.00    +0.000 HD
ATOM     28  H21 UNL     1     -27.881   6.009 -40.172  0.00  0.00    +0.000 HD
ATOM     29  H24 UNL     1     -28.155   3.811 -40.524  0.00  0.00    +0.000 HD
ATOM     30  H27 UNL     1     -23.924   4.399 -39.326  0.00  0.00    +0.000 HD
ENDROOT
BRANCH   1  31
ATOM     31  C7  UNL     1     -22.571   6.821 -41.015  0.00  0.00    +0.000 C 
BRANCH  31  37
ATOM     32  C1  UNL     1     -20.959   7.537 -39.202  0.00  0.00    +0.000 A 
ATOM     33  C2  UNL     1     -19.668   7.673 -38.691  0.00  0.00    +0.000 A 
ATOM     34  C3  UNL     1     -18.576   7.207 -39.420  0.00  0.00    +0.000 A 
ATOM     35  C4  UNL     1     -18.776   6.602 -40.659  0.00  0.00    +0.000 A 
ATOM     36  C5  UNL     1     -20.067   6.465 -41.173  0.00  0.00    +0.000 A 
ATOM     37  C6  UNL     1     -21.171   6.935 -40.451  0.00  0.00    +0.000 A 
ENDBRANCH  31  37
ENDBRANCH   1  31
TORSDOF 2
ENDMDL
