MODEL 1
REMARK VINA RESULT:    -4.242      0.000      0.000
REMARK INTER + INTRA:          -4.242
REMARK INTER:                  -4.242
REMARK INTRA:                   0.000
REMARK UNBOUND:                 0.000
REMARK  Name = /home/anacleto/Desktop/manuscript_Mpro/naturecomm/supplementary_file_S2/6-chemical-library/molecular_docking/3D_ligand_structure/235.pdb
REMARK  0 active torsions:
REMARK  status: ('A' for Active; 'I' for Inactive)
REMARK                            x       y       z     vdW  Elec       q    Type
REMARK                         _______ _______ _______ _____ _____    ______ ____
ROOT
ATOM      1  C1  UNL     1      19.103   7.223   8.920  0.00  0.00    +0.000 C 
ATOM      2  C2  UNL     1      19.498   5.975   8.124  0.00  0.00    +0.000 C 
ATOM      3  C3  UNL     1      20.918   5.451   8.394  0.00  0.00    +0.000 C 
ATOM      4  C4  UNL     1      21.749   6.326   9.332  0.00  0.00    +0.000 C 
ATOM      5  C5  UNL     1      20.938   6.731  10.533  0.00  0.00    +0.000 A 
ATOM      6  C6  UNL     1      19.628   7.171  10.324  0.00  0.00    +0.000 A 
ATOM      7  N1  UNL     1      21.520   6.680  11.753  0.00  0.00    +0.000 NA
ATOM      8  C7  UNL     1      20.768   7.079  12.801  0.00  0.00    +0.000 A 
ATOM      9  C8  UNL     1      19.465   7.537  12.690  0.00  0.00    +0.000 A 
ATOM     10  C9  UNL     1      18.886   7.589  11.427  0.00  0.00    +0.000 A 
ENDROOT
TORSDOF 0
ENDMDL
MODEL 2
REMARK VINA RESULT:    -4.173     16.214     17.749
REMARK INTER + INTRA:          -4.173
REMARK INTER:                  -4.173
REMARK INTRA:                   0.000
REMARK UNBOUND:                 0.000
REMARK  Name = /home/anacleto/Desktop/manuscript_Mpro/naturecomm/supplementary_file_S2/6-chemical-library/molecular_docking/3D_ligand_structure/235.pdb
REMARK  0 active torsions:
REMARK  status: ('A' for Active; 'I' for Inactive)
REMARK                            x       y       z     vdW  Elec       q    Type
REMARK                         _______ _______ _______ _____ _____    ______ ____
ROOT
ATOM      1  C1  UNL     1      16.781  11.750  -7.400  0.00  0.00    +0.000 C 
ATOM      2  C2  UNL     1      17.957  10.840  -7.037  0.00  0.00    +0.000 C 
ATOM      3  C3  UNL     1      18.059  10.468  -5.548  0.00  0.00    +0.000 C 
ATOM      4  C4  UNL     1      17.032  11.158  -4.651  0.00  0.00    +0.000 C 
ATOM      5  C5  UNL     1      15.663  11.096  -5.271  0.00  0.00    +0.000 A 
ATOM      6  C6  UNL     1      15.544  11.387  -6.633  0.00  0.00    +0.000 A 
ATOM      7  N1  UNL     1      14.609  10.792  -4.480  0.00  0.00    +0.000 NA
ATOM      8  C7  UNL     1      13.393  10.777  -5.068  0.00  0.00    +0.000 A 
ATOM      9  C8  UNL     1      13.177  11.058  -6.408  0.00  0.00    +0.000 A 
ATOM     10  C9  UNL     1      14.273  11.375  -7.203  0.00  0.00    +0.000 A 
ENDROOT
TORSDOF 0
ENDMDL
MODEL 3
REMARK VINA RESULT:    -4.087      2.539      3.973
REMARK INTER + INTRA:          -4.087
REMARK INTER:                  -4.087
REMARK INTRA:                   0.000
REMARK UNBOUND:                 0.000
REMARK  Name = /home/anacleto/Desktop/manuscript_Mpro/naturecomm/supplementary_file_S2/6-chemical-library/molecular_docking/3D_ligand_structure/235.pdb
REMARK  0 active torsions:
REMARK  status: ('A' for Active; 'I' for Inactive)
REMARK                            x       y       z     vdW  Elec       q    Type
REMARK                         _______ _______ _______ _____ _____    ______ ____
ROOT
ATOM      1  C1  UNL     1      21.621   5.737   8.872  0.00  0.00    +0.000 C 
ATOM      2  C2  UNL     1      21.310   7.169   9.317  0.00  0.00    +0.000 C 
ATOM      3  C3  UNL     1      19.883   7.652   9.010  0.00  0.00    +0.000 C 
ATOM      4  C4  UNL     1      19.037   6.663   8.209  0.00  0.00    +0.000 C 
ATOM      5  C5  UNL     1      19.175   5.275   8.772  0.00  0.00    +0.000 A 
ATOM      6  C6  UNL     1      20.455   4.822   9.101  0.00  0.00    +0.000 A 
ATOM      7  N1  UNL     1      18.061   4.519   8.905  0.00  0.00    +0.000 NA
ATOM      8  C7  UNL     1      18.230   3.268   9.386  0.00  0.00    +0.000 A 
ATOM      9  C8  UNL     1      19.460   2.731   9.732  0.00  0.00    +0.000 A 
ATOM     10  C9  UNL     1      20.594   3.522   9.581  0.00  0.00    +0.000 A 
ENDROOT
TORSDOF 0
ENDMDL
MODEL 4
REMARK VINA RESULT:    -4.059      1.856      2.271
REMARK INTER + INTRA:          -4.059
REMARK INTER:                  -4.059
REMARK INTRA:                   0.000
REMARK UNBOUND:                 0.000
REMARK  Name = /home/anacleto/Desktop/manuscript_Mpro/naturecomm/supplementary_file_S2/6-chemical-library/molecular_docking/3D_ligand_structure/235.pdb
REMARK  0 active torsions:
REMARK  status: ('A' for Active; 'I' for Inactive)
REMARK                            x       y       z     vdW  Elec       q    Type
REMARK                         _______ _______ _______ _____ _____    ______ ____
ROOT
ATOM      1  C1  UNL     1      19.867   7.609   9.836  0.00  0.00    +0.000 C 
ATOM      2  C2  UNL     1      19.416   7.149   8.446  0.00  0.00    +0.000 C 
ATOM      3  C3  UNL     1      19.049   5.660   8.339  0.00  0.00    +0.000 C 
ATOM      4  C4  UNL     1      19.300   4.852   9.612  0.00  0.00    +0.000 C 
ATOM      5  C5  UNL     1      18.783   5.591  10.816  0.00  0.00    +0.000 A 
ATOM      6  C6  UNL     1      19.063   6.956  10.921  0.00  0.00    +0.000 A 
ATOM      7  N1  UNL     1      18.099   4.898  11.755  0.00  0.00    +0.000 NA
ATOM      8  C7  UNL     1      17.678   5.591  12.835  0.00  0.00    +0.000 A 
ATOM      9  C8  UNL     1      17.914   6.943  13.028  0.00  0.00    +0.000 A 
ATOM     10  C9  UNL     1      18.626   7.636  12.055  0.00  0.00    +0.000 A 
ENDROOT
TORSDOF 0
ENDMDL
MODEL 5
REMARK VINA RESULT:    -4.002     15.282     17.146
REMARK INTER + INTRA:          -4.002
REMARK INTER:                  -4.002
REMARK INTRA:                   0.000
REMARK UNBOUND:                 0.000
REMARK  Name = /home/anacleto/Desktop/manuscript_Mpro/naturecomm/supplementary_file_S2/6-chemical-library/molecular_docking/3D_ligand_structure/235.pdb
REMARK  0 active torsions:
REMARK  status: ('A' for Active; 'I' for Inactive)
REMARK                            x       y       z     vdW  Elec       q    Type
REMARK                         _______ _______ _______ _____ _____    ______ ____
ROOT
ATOM      1  C1  UNL     1      17.379  11.666  -5.333  0.00  0.00    +0.000 C 
ATOM      2  C2  UNL     1      17.961  10.644  -4.352  0.00  0.00    +0.000 C 
ATOM      3  C3  UNL     1      17.001  10.186  -3.241  0.00  0.00    +0.000 C 
ATOM      4  C4  UNL     1      15.656  10.910  -3.228  0.00  0.00    +0.000 C 
ATOM      5  C5  UNL     1      15.088  10.995  -4.618  0.00  0.00    +0.000 A 
ATOM      6  C6  UNL     1      15.946  11.366  -5.657  0.00  0.00    +0.000 A 
ATOM      7  N1  UNL     1      13.772  10.737  -4.796  0.00  0.00    +0.000 NA
ATOM      8  C7  UNL     1      13.295  10.853  -6.054  0.00  0.00    +0.000 A 
ATOM      9  C8  UNL     1      14.067  11.222  -7.144  0.00  0.00    +0.000 A 
ATOM     10  C9  UNL     1      15.416  11.489  -6.940  0.00  0.00    +0.000 A 
ENDROOT
TORSDOF 0
ENDMDL
MODEL 6
REMARK VINA RESULT:    -3.935     15.194     16.836
REMARK INTER + INTRA:          -3.935
REMARK INTER:                  -3.935
REMARK INTRA:                   0.000
REMARK UNBOUND:                 0.000
REMARK  Name = /home/anacleto/Desktop/manuscript_Mpro/naturecomm/supplementary_file_S2/6-chemical-library/molecular_docking/3D_ligand_structure/235.pdb
REMARK  0 active torsions:
REMARK  status: ('A' for Active; 'I' for Inactive)
REMARK                            x       y       z     vdW  Elec       q    Type
REMARK                         _______ _______ _______ _____ _____    ______ ____
ROOT
ATOM      1  C1  UNL     1      14.002  12.120  -4.830  0.00  0.00    +0.000 C 
ATOM      2  C2  UNL     1      13.411  11.599  -6.143  0.00  0.00    +0.000 C 
ATOM      3  C3  UNL     1      14.439  11.291  -7.244  0.00  0.00    +0.000 C 
ATOM      4  C4  UNL     1      15.879  11.661  -6.889  0.00  0.00    +0.000 C 
ATOM      5  C5  UNL     1      16.217  11.194  -5.500  0.00  0.00    +0.000 A 
ATOM      6  C6  UNL     1      15.284  11.421  -4.485  0.00  0.00    +0.000 A 
ATOM      7  N1  UNL     1      17.416  10.605  -5.290  0.00  0.00    +0.000 NA
ATOM      8  C7  UNL     1      17.693  10.226  -4.024  0.00  0.00    +0.000 A 
ATOM      9  C8  UNL     1      16.835  10.416  -2.953  0.00  0.00    +0.000 A 
ATOM     10  C9  UNL     1      15.609  11.030  -3.188  0.00  0.00    +0.000 A 
ENDROOT
TORSDOF 0
ENDMDL
MODEL 7
REMARK VINA RESULT:    -3.869      1.965      3.637
REMARK INTER + INTRA:          -3.869
REMARK INTER:                  -3.869
REMARK INTRA:                   0.000
REMARK UNBOUND:                 0.000
REMARK  Name = /home/anacleto/Desktop/manuscript_Mpro/naturecomm/supplementary_file_S2/6-chemical-library/molecular_docking/3D_ligand_structure/235.pdb
REMARK  0 active torsions:
REMARK  status: ('A' for Active; 'I' for Inactive)
REMARK                            x       y       z     vdW  Elec       q    Type
REMARK                         _______ _______ _______ _____ _____    ______ ____
ROOT
ATOM      1  C1  UNL     1      19.499   5.259   8.727  0.00  0.00    +0.000 C 
ATOM      2  C2  UNL     1      19.197   6.690   8.274  0.00  0.00    +0.000 C 
ATOM      3  C3  UNL     1      20.107   7.772   8.879  0.00  0.00    +0.000 C 
ATOM      4  C4  UNL     1      21.097   7.257   9.924  0.00  0.00    +0.000 C 
ATOM      5  C5  UNL     1      21.769   6.001   9.439  0.00  0.00    +0.000 A 
ATOM      6  C6  UNL     1      20.975   5.017   8.845  0.00  0.00    +0.000 A 
ATOM      7  N1  UNL     1      23.102   5.869   9.627  0.00  0.00    +0.000 NA
ATOM      8  C7  UNL     1      23.663   4.715   9.205  0.00  0.00    +0.000 A 
ATOM      9  C8  UNL     1      22.956   3.682   8.612  0.00  0.00    +0.000 A 
ATOM     10  C9  UNL     1      21.585   3.834   8.434  0.00  0.00    +0.000 A 
ENDROOT
TORSDOF 0
ENDMDL
MODEL 8
REMARK VINA RESULT:    -3.850      7.989      9.150
REMARK INTER + INTRA:          -3.850
REMARK INTER:                  -3.850
REMARK INTRA:                   0.000
REMARK UNBOUND:                 0.000
REMARK  Name = /home/anacleto/Desktop/manuscript_Mpro/naturecomm/supplementary_file_S2/6-chemical-library/molecular_docking/3D_ligand_structure/235.pdb
REMARK  0 active torsions:
REMARK  status: ('A' for Active; 'I' for Inactive)
REMARK                            x       y       z     vdW  Elec       q    Type
REMARK                         _______ _______ _______ _____ _____    ______ ____
ROOT
ATOM      1  C1  UNL     1      15.519  -0.594   7.222  0.00  0.00    +0.000 C 
ATOM      2  C2  UNL     1      16.841   0.072   7.617  0.00  0.00    +0.000 C 
ATOM      3  C3  UNL     1      16.722   1.529   8.093  0.00  0.00    +0.000 C 
ATOM      4  C4  UNL     1      15.314   2.116   7.991  0.00  0.00    +0.000 C 
ATOM      5  C5  UNL     1      14.297   1.145   8.525  0.00  0.00    +0.000 A 
ATOM      6  C6  UNL     1      14.405  -0.196   8.144  0.00  0.00    +0.000 A 
ATOM      7  N1  UNL     1      13.311   1.615   9.322  0.00  0.00    +0.000 NA
ATOM      8  C7  UNL     1      12.401   0.716   9.756  0.00  0.00    +0.000 A 
ATOM      9  C8  UNL     1      12.422  -0.629   9.426  0.00  0.00    +0.000 A 
ATOM     10  C9  UNL     1      13.440  -1.092   8.599  0.00  0.00    +0.000 A 
ENDROOT
TORSDOF 0
ENDMDL
MODEL 9
REMARK VINA RESULT:    -3.770      1.877      4.022
REMARK INTER + INTRA:          -3.770
REMARK INTER:                  -3.770
REMARK INTRA:                   0.000
REMARK UNBOUND:                 0.000
REMARK  Name = /home/anacleto/Desktop/manuscript_Mpro/naturecomm/supplementary_file_S2/6-chemical-library/molecular_docking/3D_ligand_structure/235.pdb
REMARK  0 active torsions:
REMARK  status: ('A' for Active; 'I' for Inactive)
REMARK                            x       y       z     vdW  Elec       q    Type
REMARK                         _______ _______ _______ _____ _____    ______ ____
ROOT
ATOM      1  C1  UNL     1      18.373   4.997  12.154  0.00  0.00    +0.000 C 
ATOM      2  C2  UNL     1      17.455   5.896  12.987  0.00  0.00    +0.000 C 
ATOM      3  C3  UNL     1      17.800   7.394  12.949  0.00  0.00    +0.000 C 
ATOM      4  C4  UNL     1      19.074   7.732  12.175  0.00  0.00    +0.000 C 
ATOM      5  C5  UNL     1      19.104   6.998  10.862  0.00  0.00    +0.000 A 
ATOM      6  C6  UNL     1      18.753   5.646  10.856  0.00  0.00    +0.000 A 
ATOM      7  N1  UNL     1      19.496   7.670   9.755  0.00  0.00    +0.000 NA
ATOM      8  C7  UNL     1      19.537   6.968   8.602  0.00  0.00    +0.000 A 
ATOM      9  C8  UNL     1      19.215   5.625   8.501  0.00  0.00    +0.000 A 
ATOM     10  C9  UNL     1      18.821   4.950   9.651  0.00  0.00    +0.000 A 
ENDROOT
TORSDOF 0
ENDMDL
