MODEL 1
REMARK VINA RESULT:    -3.446      0.000      0.000
REMARK INTER + INTRA:          -3.446
REMARK INTER:                  -3.446
REMARK INTRA:                   0.000
REMARK UNBOUND:                 0.000
REMARK  Name = /home/anacleto/Desktop/manuscript_Mpro/naturecomm/supplementary_file_S2/6-chemical-library/molecular_docking/3D_ligand_structure/330.pdb
REMARK  0 active torsions:
REMARK  status: ('A' for Active; 'I' for Inactive)
REMARK                            x       y       z     vdW  Elec       q    Type
REMARK                         _______ _______ _______ _____ _____    ______ ____
ROOT
ATOM      1  C1  UNL     1      16.946  11.556  -4.811  0.00  0.00    +0.000 A 
ATOM      2  C2  UNL     1      16.592  11.189  -3.500  0.00  0.00    +0.000 A 
ATOM      3  N1  UNL     1      15.324  10.784  -3.399  0.00  0.00    +0.000 NA
ATOM      4  N2  UNL     1      14.835  10.888  -4.658  0.00  0.00    +0.000 N 
ATOM      5  C3  UNL     1      15.795  11.352  -5.531  0.00  0.00    +0.000 A 
ATOM      6  C4  UNL     1      13.568  10.601  -5.134  0.00  0.00    +0.000 A 
ATOM      7  C5  UNL     1      13.310  10.782  -6.439  0.00  0.00    +0.000 A 
ATOM      8  N3  UNL     1      14.240  11.245  -7.351  0.00  0.00    +0.000 NA
ATOM      9  C6  UNL     1      15.436  11.518  -6.908  0.00  0.00    +0.000 A 
ENDROOT
TORSDOF 0
ENDMDL
MODEL 2
REMARK VINA RESULT:    -3.390      1.228      3.036
REMARK INTER + INTRA:          -3.390
REMARK INTER:                  -3.390
REMARK INTRA:                   0.000
REMARK UNBOUND:                 0.000
REMARK  Name = /home/anacleto/Desktop/manuscript_Mpro/naturecomm/supplementary_file_S2/6-chemical-library/molecular_docking/3D_ligand_structure/330.pdb
REMARK  0 active torsions:
REMARK  status: ('A' for Active; 'I' for Inactive)
REMARK                            x       y       z     vdW  Elec       q    Type
REMARK                         _______ _______ _______ _____ _____    ______ ____
ROOT
ATOM      1  C1  UNL     1      14.456  11.366  -7.037  0.00  0.00    +0.000 A 
ATOM      2  C2  UNL     1      13.294  10.796  -6.486  0.00  0.00    +0.000 A 
ATOM      3  N1  UNL     1      13.400  10.565  -5.175  0.00  0.00    +0.000 NA
ATOM      4  N2  UNL     1      14.648  10.987  -4.859  0.00  0.00    +0.000 N 
ATOM      5  C3  UNL     1      15.307  11.475  -5.966  0.00  0.00    +0.000 A 
ATOM      6  C4  UNL     1      15.292  10.982  -3.634  0.00  0.00    +0.000 A 
ATOM      7  C5  UNL     1      16.545  11.457  -3.558  0.00  0.00    +0.000 A 
ATOM      8  N3  UNL     1      17.246  11.957  -4.641  0.00  0.00    +0.000 NA
ATOM      9  C6  UNL     1      16.644  11.963  -5.798  0.00  0.00    +0.000 A 
ENDROOT
TORSDOF 0
ENDMDL
MODEL 3
REMARK VINA RESULT:    -3.171      2.157      4.064
REMARK INTER + INTRA:          -3.171
REMARK INTER:                  -3.171
REMARK INTRA:                   0.000
REMARK UNBOUND:                 0.000
REMARK  Name = /home/anacleto/Desktop/manuscript_Mpro/naturecomm/supplementary_file_S2/6-chemical-library/molecular_docking/3D_ligand_structure/330.pdb
REMARK  0 active torsions:
REMARK  status: ('A' for Active; 'I' for Inactive)
REMARK                            x       y       z     vdW  Elec       q    Type
REMARK                         _______ _______ _______ _____ _____    ______ ____
ROOT
ATOM      1  C1  UNL     1      14.493  10.997  -4.700  0.00  0.00    +0.000 A 
ATOM      2  C2  UNL     1      13.907  12.216  -5.088  0.00  0.00    +0.000 A 
ATOM      3  N1  UNL     1      14.228  13.227  -4.277  0.00  0.00    +0.000 NA
ATOM      4  N2  UNL     1      15.034  12.667  -3.343  0.00  0.00    +0.000 N 
ATOM      5  C3  UNL     1      15.209  11.321  -3.576  0.00  0.00    +0.000 A 
ATOM      6  C4  UNL     1      15.657  13.255  -2.256  0.00  0.00    +0.000 A 
ATOM      7  C5  UNL     1      16.419  12.492  -1.456  0.00  0.00    +0.000 A 
ATOM      8  N3  UNL     1      16.624  11.138  -1.649  0.00  0.00    +0.000 NA
ATOM      9  C6  UNL     1      16.039  10.579  -2.672  0.00  0.00    +0.000 A 
ENDROOT
TORSDOF 0
ENDMDL
MODEL 4
REMARK VINA RESULT:    -3.170      1.395      2.452
REMARK INTER + INTRA:          -3.170
REMARK INTER:                  -3.170
REMARK INTRA:                   0.000
REMARK UNBOUND:                 0.000
REMARK  Name = /home/anacleto/Desktop/manuscript_Mpro/naturecomm/supplementary_file_S2/6-chemical-library/molecular_docking/3D_ligand_structure/330.pdb
REMARK  0 active torsions:
REMARK  status: ('A' for Active; 'I' for Inactive)
REMARK                            x       y       z     vdW  Elec       q    Type
REMARK                         _______ _______ _______ _____ _____    ______ ____
ROOT
ATOM      1  C1  UNL     1      16.866  12.118  -5.169  0.00  0.00    +0.000 A 
ATOM      2  C2  UNL     1      17.296  12.492  -6.456  0.00  0.00    +0.000 A 
ATOM      3  N1  UNL     1      16.399  12.210  -7.405  0.00  0.00    +0.000 NA
ATOM      4  N2  UNL     1      15.367  11.643  -6.735  0.00  0.00    +0.000 N 
ATOM      5  C3  UNL     1      15.624  11.575  -5.383  0.00  0.00    +0.000 A 
ATOM      6  C4  UNL     1      14.166  11.157  -7.223  0.00  0.00    +0.000 A 
ATOM      7  C5  UNL     1      13.282  10.632  -6.360  0.00  0.00    +0.000 A 
ATOM      8  N3  UNL     1      13.495  10.543  -4.996  0.00  0.00    +0.000 NA
ATOM      9  C6  UNL     1      14.625  10.999  -4.532  0.00  0.00    +0.000 A 
ENDROOT
TORSDOF 0
ENDMDL
MODEL 5
REMARK VINA RESULT:    -3.138     15.456     16.299
REMARK INTER + INTRA:          -3.138
REMARK INTER:                  -3.138
REMARK INTRA:                   0.000
REMARK UNBOUND:                 0.000
REMARK  Name = /home/anacleto/Desktop/manuscript_Mpro/naturecomm/supplementary_file_S2/6-chemical-library/molecular_docking/3D_ligand_structure/330.pdb
REMARK  0 active torsions:
REMARK  status: ('A' for Active; 'I' for Inactive)
REMARK                            x       y       z     vdW  Elec       q    Type
REMARK                         _______ _______ _______ _____ _____    ______ ____
ROOT
ATOM      1  C1  UNL     1      20.219   3.781   9.407  0.00  0.00    +0.000 A 
ATOM      2  C2  UNL     1      18.849   3.535   9.206  0.00  0.00    +0.000 A 
ATOM      3  N1  UNL     1      18.156   4.645   8.939  0.00  0.00    +0.000 NA
ATOM      4  N2  UNL     1      19.082   5.634   8.965  0.00  0.00    +0.000 N 
ATOM      5  C3  UNL     1      20.336   5.139   9.245  0.00  0.00    +0.000 A 
ATOM      6  C4  UNL     1      18.920   6.993   8.755  0.00  0.00    +0.000 A 
ATOM      7  C5  UNL     1      19.996   7.792   8.832  0.00  0.00    +0.000 A 
ATOM      8  N3  UNL     1      21.273   7.341   9.110  0.00  0.00    +0.000 NA
ATOM      9  C6  UNL     1      21.431   6.061   9.308  0.00  0.00    +0.000 A 
ENDROOT
TORSDOF 0
ENDMDL
MODEL 6
REMARK VINA RESULT:    -3.116      2.132      2.783
REMARK INTER + INTRA:          -3.116
REMARK INTER:                  -3.116
REMARK INTRA:                   0.000
REMARK UNBOUND:                 0.000
REMARK  Name = /home/anacleto/Desktop/manuscript_Mpro/naturecomm/supplementary_file_S2/6-chemical-library/molecular_docking/3D_ligand_structure/330.pdb
REMARK  0 active torsions:
REMARK  status: ('A' for Active; 'I' for Inactive)
REMARK                            x       y       z     vdW  Elec       q    Type
REMARK                         _______ _______ _______ _____ _____    ______ ____
ROOT
ATOM      1  C1  UNL     1      16.061  10.819  -2.048  0.00  0.00    +0.000 A 
ATOM      2  C2  UNL     1      16.485  11.923  -1.285  0.00  0.00    +0.000 A 
ATOM      3  N1  UNL     1      16.074  13.090  -1.789  0.00  0.00    +0.000 NA
ATOM      4  N2  UNL     1      15.372  12.750  -2.897  0.00  0.00    +0.000 N 
ATOM      5  C3  UNL     1      15.349  11.384  -3.076  0.00  0.00    +0.000 A 
ATOM      6  C4  UNL     1      14.721  13.564  -3.807  0.00  0.00    +0.000 A 
ATOM      7  C5  UNL     1      14.082  12.997  -4.842  0.00  0.00    +0.000 A 
ATOM      8  N3  UNL     1      14.032  11.633  -5.062  0.00  0.00    +0.000 NA
ATOM      9  C6  UNL     1      14.644  10.861  -4.208  0.00  0.00    +0.000 A 
ENDROOT
TORSDOF 0
ENDMDL
MODEL 7
REMARK VINA RESULT:    -3.006     17.116     17.834
REMARK INTER + INTRA:          -3.006
REMARK INTER:                  -3.006
REMARK INTRA:                   0.000
REMARK UNBOUND:                 0.000
REMARK  Name = /home/anacleto/Desktop/manuscript_Mpro/naturecomm/supplementary_file_S2/6-chemical-library/molecular_docking/3D_ligand_structure/330.pdb
REMARK  0 active torsions:
REMARK  status: ('A' for Active; 'I' for Inactive)
REMARK                            x       y       z     vdW  Elec       q    Type
REMARK                         _______ _______ _______ _____ _____    ______ ____
ROOT
ATOM      1  C1  UNL     1      15.658   0.331   7.363  0.00  0.00    +0.000 A 
ATOM      2  C2  UNL     1      15.647  -1.043   7.064  0.00  0.00    +0.000 A 
ATOM      3  N1  UNL     1      14.627  -1.691   7.633  0.00  0.00    +0.000 NA
ATOM      4  N2  UNL     1      13.958  -0.731   8.316  0.00  0.00    +0.000 N 
ATOM      5  C3  UNL     1      14.561   0.500   8.170  0.00  0.00    +0.000 A 
ATOM      6  C4  UNL     1      12.817  -0.840   9.092  0.00  0.00    +0.000 A 
ATOM      7  C5  UNL     1      12.327   0.263   9.681  0.00  0.00    +0.000 A 
ATOM      8  N3  UNL     1      12.897   1.517   9.563  0.00  0.00    +0.000 NA
ATOM      9  C6  UNL     1      13.972   1.625   8.834  0.00  0.00    +0.000 A 
ENDROOT
TORSDOF 0
ENDMDL
MODEL 8
REMARK VINA RESULT:    -2.989      6.955      8.332
REMARK INTER + INTRA:          -2.989
REMARK INTER:                  -2.989
REMARK INTRA:                   0.000
REMARK UNBOUND:                 0.000
REMARK  Name = /home/anacleto/Desktop/manuscript_Mpro/naturecomm/supplementary_file_S2/6-chemical-library/molecular_docking/3D_ligand_structure/330.pdb
REMARK  0 active torsions:
REMARK  status: ('A' for Active; 'I' for Inactive)
REMARK                            x       y       z     vdW  Elec       q    Type
REMARK                         _______ _______ _______ _____ _____    ______ ____
ROOT
ATOM      1  C1  UNL     1      20.219  14.351  -0.551  0.00  0.00    +0.000 A 
ATOM      2  C2  UNL     1      21.187  15.162   0.070  0.00  0.00    +0.000 A 
ATOM      3  N1  UNL     1      20.651  16.099   0.857  0.00  0.00    +0.000 NA
ATOM      4  N2  UNL     1      19.315  15.903   0.753  0.00  0.00    +0.000 N 
ATOM      5  C3  UNL     1      19.027  14.853  -0.092  0.00  0.00    +0.000 A 
ATOM      6  C4  UNL     1      18.277  16.591   1.357  0.00  0.00    +0.000 A 
ATOM      7  C5  UNL     1      17.014  16.213   1.102  0.00  0.00    +0.000 A 
ATOM      8  N3  UNL     1      16.678  15.167   0.262  0.00  0.00    +0.000 NA
ATOM      9  C6  UNL     1      17.652  14.516  -0.310  0.00  0.00    +0.000 A 
ENDROOT
TORSDOF 0
ENDMDL
MODEL 9
REMARK VINA RESULT:    -2.887     15.767     17.342
REMARK INTER + INTRA:          -2.887
REMARK INTER:                  -2.887
REMARK INTRA:                   0.000
REMARK UNBOUND:                 0.000
REMARK  Name = /home/anacleto/Desktop/manuscript_Mpro/naturecomm/supplementary_file_S2/6-chemical-library/molecular_docking/3D_ligand_structure/330.pdb
REMARK  0 active torsions:
REMARK  status: ('A' for Active; 'I' for Inactive)
REMARK                            x       y       z     vdW  Elec       q    Type
REMARK                         _______ _______ _______ _____ _____    ______ ____
ROOT
ATOM      1  C1  UNL     1      20.969   6.964  12.402  0.00  0.00    +0.000 A 
ATOM      2  C2  UNL     1      19.735   7.508  12.804  0.00  0.00    +0.000 A 
ATOM      3  N1  UNL     1      18.850   7.580  11.806  0.00  0.00    +0.000 NA
ATOM      4  N2  UNL     1      19.509   7.079  10.734  0.00  0.00    +0.000 N 
ATOM      5  C3  UNL     1      20.791   6.699  11.068  0.00  0.00    +0.000 A 
ATOM      6  C4  UNL     1      19.071   6.916   9.432  0.00  0.00    +0.000 A 
ATOM      7  C5  UNL     1      19.911   6.390   8.526  0.00  0.00    +0.000 A 
ATOM      8  N3  UNL     1      21.205   5.995   8.814  0.00  0.00    +0.000 NA
ATOM      9  C6  UNL     1      21.623   6.146  10.040  0.00  0.00    +0.000 A 
ENDROOT
TORSDOF 0
ENDMDL
