MODEL 1
REMARK VINA RESULT:    -5.472      0.000      0.000
REMARK INTER + INTRA:          -5.472
REMARK INTER:                  -5.472
REMARK INTRA:                   0.000
REMARK UNBOUND:                 0.000
REMARK  Name = /home/anacleto/Desktop/manuscript_Mpro/naturecomm/supplementary_file_S2/6-chemical-library/molecular_docking/3D_ligand_structure/1426.pdb
REMARK  0 active torsions:
REMARK  status: ('A' for Active; 'I' for Inactive)
REMARK                            x       y       z     vdW  Elec       q    Type
REMARK                         _______ _______ _______ _____ _____    ______ ____
ROOT
ATOM      1  C1  UNL     1      15.247  11.392  -6.988  0.00  0.00    +0.000 A 
ATOM      2  C2  UNL     1      13.970  11.015  -7.413  0.00  0.00    +0.000 A 
ATOM      3  C3  UNL     1      13.022  10.604  -6.483  0.00  0.00    +0.000 A 
ATOM      4  C4  UNL     1      13.347  10.580  -5.127  0.00  0.00    +0.000 A 
ATOM      5  C5  UNL     1      14.618  10.980  -4.687  0.00  0.00    +0.000 A 
ATOM      6  C6  UNL     1      15.591  11.371  -5.624  0.00  0.00    +0.000 A 
ATOM      7  N1  UNL     1      14.926  10.904  -3.322  0.00  0.00    +0.000 N 
ATOM      8  C7  UNL     1      16.131  11.370  -2.782  0.00  0.00    +0.000 A 
ATOM      9  C8  UNL     1      17.185  11.781  -3.618  0.00  0.00    +0.000 A 
ATOM     10  C9  UNL     1      16.968  11.756  -5.119  0.00  0.00    +0.000 A 
ATOM     11  S1  UNL     1      18.229  12.139  -6.199  0.00  0.00    +0.000 S 
ATOM     12  C10 UNL     1      18.392  12.202  -3.030  0.00  0.00    +0.000 A 
ATOM     13  C11 UNL     1      18.554  12.194  -1.642  0.00  0.00    +0.000 A 
ATOM     14  C12 UNL     1      17.519  11.761  -0.823  0.00  0.00    +0.000 A 
ATOM     15  C13 UNL     1      16.315  11.344  -1.391  0.00  0.00    +0.000 A 
ATOM     16  H5  UNL     1      14.139  10.857  -2.688  0.00  0.00    +0.000 HD
ENDROOT
TORSDOF 0
ENDMDL
MODEL 2
REMARK VINA RESULT:    -5.362     14.470     16.231
REMARK INTER + INTRA:          -5.362
REMARK INTER:                  -5.362
REMARK INTRA:                   0.000
REMARK UNBOUND:                 0.000
REMARK  Name = /home/anacleto/Desktop/manuscript_Mpro/naturecomm/supplementary_file_S2/6-chemical-library/molecular_docking/3D_ligand_structure/1426.pdb
REMARK  0 active torsions:
REMARK  status: ('A' for Active; 'I' for Inactive)
REMARK                            x       y       z     vdW  Elec       q    Type
REMARK                         _______ _______ _______ _____ _____    ______ ____
ROOT
ATOM      1  C1  UNL     1      21.334   5.910   9.721  0.00  0.00    +0.000 A 
ATOM      2  C2  UNL     1      21.330   7.272   9.409  0.00  0.00    +0.000 A 
ATOM      3  C3  UNL     1      20.218   7.842   8.800  0.00  0.00    +0.000 A 
ATOM      4  C4  UNL     1      19.105   7.052   8.513  0.00  0.00    +0.000 A 
ATOM      5  C5  UNL     1      19.089   5.688   8.844  0.00  0.00    +0.000 A 
ATOM      6  C6  UNL     1      20.221   5.099   9.435  0.00  0.00    +0.000 A 
ATOM      7  N1  UNL     1      17.972   4.914   8.503  0.00  0.00    +0.000 N 
ATOM      8  C7  UNL     1      17.827   3.572   8.878  0.00  0.00    +0.000 A 
ATOM      9  C8  UNL     1      18.893   2.870   9.470  0.00  0.00    +0.000 A 
ATOM     10  C9  UNL     1      20.186   3.615   9.741  0.00  0.00    +0.000 A 
ATOM     11  S1  UNL     1      21.554   2.809  10.359  0.00  0.00    +0.000 S 
ATOM     12  C10 UNL     1      18.715   1.512   9.790  0.00  0.00    +0.000 A 
ATOM     13  C11 UNL     1      17.510   0.861   9.509  0.00  0.00    +0.000 A 
ATOM     14  C12 UNL     1      16.471   1.553   8.898  0.00  0.00    +0.000 A 
ATOM     15  C13 UNL     1      16.632   2.900   8.578  0.00  0.00    +0.000 A 
ATOM     16  H5  UNL     1      17.117   5.420   8.313  0.00  0.00    +0.000 HD
ENDROOT
TORSDOF 0
ENDMDL
MODEL 3
REMARK VINA RESULT:    -5.292     14.412     15.882
REMARK INTER + INTRA:          -5.292
REMARK INTER:                  -5.292
REMARK INTRA:                   0.000
REMARK UNBOUND:                 0.000
REMARK  Name = /home/anacleto/Desktop/manuscript_Mpro/naturecomm/supplementary_file_S2/6-chemical-library/molecular_docking/3D_ligand_structure/1426.pdb
REMARK  0 active torsions:
REMARK  status: ('A' for Active; 'I' for Inactive)
REMARK                            x       y       z     vdW  Elec       q    Type
REMARK                         _______ _______ _______ _____ _____    ______ ____
ROOT
ATOM      1  C1  UNL     1      18.922   1.524   9.686  0.00  0.00    +0.000 A 
ATOM      2  C2  UNL     1      17.779   0.794   9.347  0.00  0.00    +0.000 A 
ATOM      3  C3  UNL     1      16.690   1.437   8.768  0.00  0.00    +0.000 A 
ATOM      4  C4  UNL     1      16.749   2.808   8.520  0.00  0.00    +0.000 A 
ATOM      5  C5  UNL     1      17.901   3.546   8.834  0.00  0.00    +0.000 A 
ATOM      6  C6  UNL     1      18.995   2.907   9.444  0.00  0.00    +0.000 A 
ATOM      7  N1  UNL     1      17.910   4.929   8.610  0.00  0.00    +0.000 N 
ATOM      8  C7  UNL     1      19.045   5.728   8.802  0.00  0.00    +0.000 A 
ATOM      9  C8  UNL     1      20.200   5.205   9.412  0.00  0.00    +0.000 A 
ATOM     10  C9  UNL     1      20.207   3.741   9.809  0.00  0.00    +0.000 A 
ATOM     11  S1  UNL     1      21.527   3.061  10.645  0.00  0.00    +0.000 S 
ATOM     12  C10 UNL     1      21.300   6.057   9.622  0.00  0.00    +0.000 A 
ATOM     13  C11 UNL     1      21.244   7.404   9.254  0.00  0.00    +0.000 A 
ATOM     14  C12 UNL     1      20.090   7.921   8.678  0.00  0.00    +0.000 A 
ATOM     15  C13 UNL     1      18.993   7.088   8.460  0.00  0.00    +0.000 A 
ATOM     16  H5  UNL     1      17.218   5.283   7.963  0.00  0.00    +0.000 HD
ENDROOT
TORSDOF 0
ENDMDL
MODEL 4
REMARK VINA RESULT:    -5.039      3.051      3.410
REMARK INTER + INTRA:          -5.039
REMARK INTER:                  -5.039
REMARK INTRA:                   0.000
REMARK UNBOUND:                 0.000
REMARK  Name = /home/anacleto/Desktop/manuscript_Mpro/naturecomm/supplementary_file_S2/6-chemical-library/molecular_docking/3D_ligand_structure/1426.pdb
REMARK  0 active torsions:
REMARK  status: ('A' for Active; 'I' for Inactive)
REMARK                            x       y       z     vdW  Elec       q    Type
REMARK                         _______ _______ _______ _____ _____    ______ ____
ROOT
ATOM      1  C1  UNL     1      16.838  11.917  -5.519  0.00  0.00    +0.000 A 
ATOM      2  C2  UNL     1      16.309  11.382  -6.696  0.00  0.00    +0.000 A 
ATOM      3  C3  UNL     1      14.989  11.643  -7.046  0.00  0.00    +0.000 A 
ATOM      4  C4  UNL     1      14.202  12.449  -6.224  0.00  0.00    +0.000 A 
ATOM      5  C5  UNL     1      14.730  13.012  -5.052  0.00  0.00    +0.000 A 
ATOM      6  C6  UNL     1      16.056  12.729  -4.678  0.00  0.00    +0.000 A 
ATOM      7  N1  UNL     1      13.899  13.781  -4.227  0.00  0.00    +0.000 N 
ATOM      8  C7  UNL     1      14.363  14.459  -3.092  0.00  0.00    +0.000 A 
ATOM      9  C8  UNL     1      15.670  14.253  -2.613  0.00  0.00    +0.000 A 
ATOM     10  C9  UNL     1      16.582  13.318  -3.384  0.00  0.00    +0.000 A 
ATOM     11  S1  UNL     1      18.141  12.937  -2.810  0.00  0.00    +0.000 S 
ATOM     12  C10 UNL     1      16.077  14.924  -1.445  0.00  0.00    +0.000 A 
ATOM     13  C11 UNL     1      15.197  15.764  -0.757  0.00  0.00    +0.000 A 
ATOM     14  C12 UNL     1      13.899  15.942  -1.221  0.00  0.00    +0.000 A 
ATOM     15  C13 UNL     1      13.482  15.286  -2.379  0.00  0.00    +0.000 A 
ATOM     16  H5  UNL     1      13.058  14.146  -4.654  0.00  0.00    +0.000 HD
ENDROOT
TORSDOF 0
ENDMDL
MODEL 5
REMARK VINA RESULT:    -5.031     17.298     18.730
REMARK INTER + INTRA:          -5.031
REMARK INTER:                  -5.031
REMARK INTRA:                   0.000
REMARK UNBOUND:                 0.000
REMARK  Name = /home/anacleto/Desktop/manuscript_Mpro/naturecomm/supplementary_file_S2/6-chemical-library/molecular_docking/3D_ligand_structure/1426.pdb
REMARK  0 active torsions:
REMARK  status: ('A' for Active; 'I' for Inactive)
REMARK                            x       y       z     vdW  Elec       q    Type
REMARK                         _______ _______ _______ _____ _____    ______ ____
ROOT
ATOM      1  C1  UNL     1      28.166  13.922  10.365  0.00  0.00    +0.000 A 
ATOM      2  C2  UNL     1      28.676  13.957   9.064  0.00  0.00    +0.000 A 
ATOM      3  C3  UNL     1      27.867  14.373   8.013  0.00  0.00    +0.000 A 
ATOM      4  C4  UNL     1      26.552  14.764   8.263  0.00  0.00    +0.000 A 
ATOM      5  C5  UNL     1      26.038  14.755   9.569  0.00  0.00    +0.000 A 
ATOM      6  C6  UNL     1      26.841  14.309  10.633  0.00  0.00    +0.000 A 
ATOM      7  N1  UNL     1      24.700  15.113   9.780  0.00  0.00    +0.000 N 
ATOM      8  C7  UNL     1      24.129  15.226  11.055  0.00  0.00    +0.000 A 
ATOM      9  C8  UNL     1      24.832  14.804  12.198  0.00  0.00    +0.000 A 
ATOM     10  C9  UNL     1      26.241  14.272  12.025  0.00  0.00    +0.000 A 
ATOM     11  S1  UNL     1      27.116  13.647  13.347  0.00  0.00    +0.000 S 
ATOM     12  C10 UNL     1      24.201  14.898  13.453  0.00  0.00    +0.000 A 
ATOM     13  C11 UNL     1      22.894  15.380  13.565  0.00  0.00    +0.000 A 
ATOM     14  C12 UNL     1      22.196  15.769  12.428  0.00  0.00    +0.000 A 
ATOM     15  C13 UNL     1      22.809  15.685  11.178  0.00  0.00    +0.000 A 
ATOM     16  H5  UNL     1      24.257  15.645   9.043  0.00  0.00    +0.000 HD
ENDROOT
TORSDOF 0
ENDMDL
MODEL 6
REMARK VINA RESULT:    -5.019     14.695     17.892
REMARK INTER + INTRA:          -5.019
REMARK INTER:                  -5.019
REMARK INTRA:                   0.000
REMARK UNBOUND:                 0.000
REMARK  Name = /home/anacleto/Desktop/manuscript_Mpro/naturecomm/supplementary_file_S2/6-chemical-library/molecular_docking/3D_ligand_structure/1426.pdb
REMARK  0 active torsions:
REMARK  status: ('A' for Active; 'I' for Inactive)
REMARK                            x       y       z     vdW  Elec       q    Type
REMARK                         _______ _______ _______ _____ _____    ______ ____
ROOT
ATOM      1  C1  UNL     1      18.593   5.436  14.408  0.00  0.00    +0.000 A 
ATOM      2  C2  UNL     1      18.785   6.216  15.552  0.00  0.00    +0.000 A 
ATOM      3  C3  UNL     1      19.305   7.500  15.438  0.00  0.00    +0.000 A 
ATOM      4  C4  UNL     1      19.623   8.008  14.179  0.00  0.00    +0.000 A 
ATOM      5  C5  UNL     1      19.412   7.243  13.022  0.00  0.00    +0.000 A 
ATOM      6  C6  UNL     1      18.913   5.933  13.132  0.00  0.00    +0.000 A 
ATOM      7  N1  UNL     1      19.783   7.767  11.776  0.00  0.00    +0.000 N 
ATOM      8  C7  UNL     1      19.522   7.117  10.563  0.00  0.00    +0.000 A 
ATOM      9  C8  UNL     1      19.029   5.800  10.543  0.00  0.00    +0.000 A 
ATOM     10  C9  UNL     1      18.736   5.118  11.866  0.00  0.00    +0.000 A 
ATOM     11  S1  UNL     1      18.236   3.490  11.927  0.00  0.00    +0.000 S 
ATOM     12  C10 UNL     1      18.823   5.173   9.301  0.00  0.00    +0.000 A 
ATOM     13  C11 UNL     1      19.120   5.834   8.106  0.00  0.00    +0.000 A 
ATOM     14  C12 UNL     1      19.633   7.125   8.134  0.00  0.00    +0.000 A 
ATOM     15  C13 UNL     1      19.840   7.760   9.357  0.00  0.00    +0.000 A 
ATOM     16  H5  UNL     1      19.900   8.771  11.730  0.00  0.00    +0.000 HD
ENDROOT
TORSDOF 0
ENDMDL
MODEL 7
REMARK VINA RESULT:    -5.005      1.009      4.856
REMARK INTER + INTRA:          -5.005
REMARK INTER:                  -5.005
REMARK INTRA:                   0.000
REMARK UNBOUND:                 0.000
REMARK  Name = /home/anacleto/Desktop/manuscript_Mpro/naturecomm/supplementary_file_S2/6-chemical-library/molecular_docking/3D_ligand_structure/1426.pdb
REMARK  0 active torsions:
REMARK  status: ('A' for Active; 'I' for Inactive)
REMARK                            x       y       z     vdW  Elec       q    Type
REMARK                         _______ _______ _______ _____ _____    ______ ____
ROOT
ATOM      1  C1  UNL     1      17.790  13.546  -2.662  0.00  0.00    +0.000 A 
ATOM      2  C2  UNL     1      18.013  13.411  -1.289  0.00  0.00    +0.000 A 
ATOM      3  C3  UNL     1      17.214  12.557  -0.536  0.00  0.00    +0.000 A 
ATOM      4  C4  UNL     1      16.200  11.831  -1.159  0.00  0.00    +0.000 A 
ATOM      5  C5  UNL     1      15.983  11.940  -2.541  0.00  0.00    +0.000 A 
ATOM      6  C6  UNL     1      16.769  12.822  -3.304  0.00  0.00    +0.000 A 
ATOM      7  N1  UNL     1      14.928  11.229  -3.127  0.00  0.00    +0.000 N 
ATOM      8  C7  UNL     1      14.697  11.201  -4.509  0.00  0.00    +0.000 A 
ATOM      9  C8  UNL     1      15.414  12.045  -5.376  0.00  0.00    +0.000 A 
ATOM     10  C9  UNL     1      16.480  12.949  -4.787  0.00  0.00    +0.000 A 
ATOM     11  S1  UNL     1      17.318  14.072  -5.756  0.00  0.00    +0.000 S 
ATOM     12  C10 UNL     1      15.118  12.013  -6.751  0.00  0.00    +0.000 A 
ATOM     13  C11 UNL     1      14.115  11.176  -7.249  0.00  0.00    +0.000 A 
ATOM     14  C12 UNL     1      13.392  10.365  -6.383  0.00  0.00    +0.000 A 
ATOM     15  C13 UNL     1      13.677  10.384  -5.018  0.00  0.00    +0.000 A 
ATOM     16  H5  UNL     1      14.566  10.446  -2.597  0.00  0.00    +0.000 HD
ENDROOT
TORSDOF 0
ENDMDL
MODEL 8
REMARK VINA RESULT:    -5.001      3.212      5.116
REMARK INTER + INTRA:          -5.001
REMARK INTER:                  -5.001
REMARK INTRA:                   0.000
REMARK UNBOUND:                 0.000
REMARK  Name = /home/anacleto/Desktop/manuscript_Mpro/naturecomm/supplementary_file_S2/6-chemical-library/molecular_docking/3D_ligand_structure/1426.pdb
REMARK  0 active torsions:
REMARK  status: ('A' for Active; 'I' for Inactive)
REMARK                            x       y       z     vdW  Elec       q    Type
REMARK                         _______ _______ _______ _____ _____    ______ ____
ROOT
ATOM      1  C1  UNL     1      15.857  15.064  -1.293  0.00  0.00    +0.000 A 
ATOM      2  C2  UNL     1      14.933  15.881  -0.637  0.00  0.00    +0.000 A 
ATOM      3  C3  UNL     1      13.667  16.073  -1.179  0.00  0.00    +0.000 A 
ATOM      4  C4  UNL     1      13.323  15.441  -2.374  0.00  0.00    +0.000 A 
ATOM      5  C5  UNL     1      14.235  14.599  -3.028  0.00  0.00    +0.000 A 
ATOM      6  C6  UNL     1      15.526  14.422  -2.500  0.00  0.00    +0.000 A 
ATOM      7  N1  UNL     1      13.872  14.014  -4.249  0.00  0.00    +0.000 N 
ATOM      8  C7  UNL     1      14.678  13.087  -4.923  0.00  0.00    +0.000 A 
ATOM      9  C8  UNL     1      15.993  12.829  -4.495  0.00  0.00    +0.000 A 
ATOM     10  C9  UNL     1      16.501  13.539  -3.255  0.00  0.00    +0.000 A 
ATOM     11  S1  UNL     1      18.113  13.359  -2.734  0.00  0.00    +0.000 S 
ATOM     12  C10 UNL     1      16.779  11.922  -5.229  0.00  0.00    +0.000 A 
ATOM     13  C11 UNL     1      16.275  11.301  -6.375  0.00  0.00    +0.000 A 
ATOM     14  C12 UNL     1      14.985  11.581  -6.808  0.00  0.00    +0.000 A 
ATOM     15  C13 UNL     1      14.193  12.476  -6.089  0.00  0.00    +0.000 A 
ATOM     16  H5  UNL     1      12.881  13.975  -4.450  0.00  0.00    +0.000 HD
ENDROOT
TORSDOF 0
ENDMDL
MODEL 9
REMARK VINA RESULT:    -4.903     15.655     17.348
REMARK INTER + INTRA:          -4.903
REMARK INTER:                  -4.903
REMARK INTRA:                   0.000
REMARK UNBOUND:                 0.000
REMARK  Name = /home/anacleto/Desktop/manuscript_Mpro/naturecomm/supplementary_file_S2/6-chemical-library/molecular_docking/3D_ligand_structure/1426.pdb
REMARK  0 active torsions:
REMARK  status: ('A' for Active; 'I' for Inactive)
REMARK                            x       y       z     vdW  Elec       q    Type
REMARK                         _______ _______ _______ _____ _____    ______ ____
ROOT
ATOM      1  C1  UNL     1      19.937   4.669   9.466  0.00  0.00    +0.000 A 
ATOM      2  C2  UNL     1      20.971   5.157   8.662  0.00  0.00    +0.000 A 
ATOM      3  C3  UNL     1      21.470   6.437   8.874  0.00  0.00    +0.000 A 
ATOM      4  C4  UNL     1      20.941   7.225   9.896  0.00  0.00    +0.000 A 
ATOM      5  C5  UNL     1      19.920   6.736  10.725  0.00  0.00    +0.000 A 
ATOM      6  C6  UNL     1      19.392   5.452  10.498  0.00  0.00    +0.000 A 
ATOM      7  N1  UNL     1      19.382   7.569  11.715  0.00  0.00    +0.000 N 
ATOM      8  C7  UNL     1      18.431   7.135  12.647  0.00  0.00    +0.000 A 
ATOM      9  C8  UNL     1      17.823   5.872  12.522  0.00  0.00    +0.000 A 
ATOM     10  C9  UNL     1      18.260   4.970  11.384  0.00  0.00    +0.000 A 
ATOM     11  S1  UNL     1      17.498   3.471  11.106  0.00  0.00    +0.000 S 
ATOM     12  C10 UNL     1      16.842   5.497  13.459  0.00  0.00    +0.000 A 
ATOM     13  C11 UNL     1      16.459   6.367  14.483  0.00  0.00    +0.000 A 
ATOM     14  C12 UNL     1      17.044   7.624  14.584  0.00  0.00    +0.000 A 
ATOM     15  C13 UNL     1      18.020   8.008  13.666  0.00  0.00    +0.000 A 
ATOM     16  H5  UNL     1      19.948   8.362  11.988  0.00  0.00    +0.000 HD
ENDROOT
TORSDOF 0
ENDMDL
