MODEL 1
REMARK VINA RESULT:    -3.773      0.000      0.000
REMARK INTER + INTRA:          -4.347
REMARK INTER:                  -4.212
REMARK INTRA:                  -0.136
REMARK UNBOUND:                -0.133
REMARK  Name = /home/anacleto/Desktop/manuscript_Mpro/naturecomm/supplementary_file_S2/6-chemical-library/molecular_docking/3D_ligand_structure/1256.pdb
REMARK  2 active torsions:
REMARK  status: ('A' for Active; 'I' for Inactive)
REMARK    1  A    between atoms: C3_5  and  S2_6
REMARK    2  A    between atoms: S2_6  and  C4_7
REMARK                            x       y       z     vdW  Elec       q    Type
REMARK                         _______ _______ _______ _____ _____    ______ ____
ROOT
ATOM      1  S2  UNL     1      14.608  13.282  -4.619  0.00  0.00    +0.000 S 
ENDROOT
BRANCH   1   6
ATOM      2  S1  UNL     1      16.546  11.015  -4.033  0.00  0.00    +0.000 S 
ATOM      3  C1  UNL     1      16.695  10.468  -2.415  0.00  0.00    +0.000 A 
ATOM      4  N1  UNL     1      15.945  11.075  -1.523  0.00  0.00    +0.000 NA
ATOM      5  C2  UNL     1      15.209  12.063  -2.153  0.00  0.00    +0.000 A 
ATOM      6  C3  UNL     1      15.403  12.183  -3.515  0.00  0.00    +0.000 A 
ENDBRANCH   1   6
BRANCH   1   7
ATOM      7  C4  UNL     1      14.113  12.135  -5.833  0.00  0.00    +0.000 A 
ATOM      8  N2  UNL     1      14.670  11.960  -7.016  0.00  0.00    +0.000 NA
ATOM      9  N3  UNL     1      13.959  10.961  -7.651  0.00  0.00    +0.000 NA
ATOM     10  C5  UNL     1      13.022  10.599  -6.811  0.00  0.00    +0.000 A 
ATOM     11  O1  UNL     1      13.045  11.290  -5.640  0.00  0.00    +0.000 OA
ENDBRANCH   1   7
TORSDOF 2
ENDMDL
MODEL 2
REMARK VINA RESULT:    -3.715      2.066      4.552
REMARK INTER + INTRA:          -4.282
REMARK INTER:                  -4.201
REMARK INTRA:                  -0.081
REMARK UNBOUND:                -0.133
REMARK  Name = /home/anacleto/Desktop/manuscript_Mpro/naturecomm/supplementary_file_S2/6-chemical-library/molecular_docking/3D_ligand_structure/1256.pdb
REMARK  2 active torsions:
REMARK  status: ('A' for Active; 'I' for Inactive)
REMARK    1  A    between atoms: C3_5  and  S2_6
REMARK    2  A    between atoms: S2_6  and  C4_7
REMARK                            x       y       z     vdW  Elec       q    Type
REMARK                         _______ _______ _______ _____ _____    ______ ____
ROOT
ATOM      1  S2  UNL     1      14.623  13.490  -4.176  0.00  0.00    +0.000 S 
ENDROOT
BRANCH   1   6
ATOM      2  S1  UNL     1      15.257  12.038  -6.770  0.00  0.00    +0.000 S 
ATOM      3  C1  UNL     1      14.080  10.971  -7.416  0.00  0.00    +0.000 A 
ATOM      4  N1  UNL     1      12.962  10.856  -6.735  0.00  0.00    +0.000 NA
ATOM      5  C2  UNL     1      13.041  11.649  -5.605  0.00  0.00    +0.000 A 
ATOM      6  C3  UNL     1      14.212  12.364  -5.451  0.00  0.00    +0.000 A 
ENDBRANCH   1   6
BRANCH   1   7
ATOM      7  C4  UNL     1      15.347  12.374  -3.053  0.00  0.00    +0.000 A 
ATOM      8  N2  UNL     1      15.492  11.074  -3.225  0.00  0.00    +0.000 NA
ATOM      9  N3  UNL     1      16.104  10.582  -2.090  0.00  0.00    +0.000 NA
ATOM     10  C5  UNL     1      16.288  11.616  -1.307  0.00  0.00    +0.000 A 
ATOM     11  O1  UNL     1      15.838  12.785  -1.836  0.00  0.00    +0.000 OA
ENDBRANCH   1   7
TORSDOF 2
ENDMDL
MODEL 3
REMARK VINA RESULT:    -3.473      2.061      2.480
REMARK INTER + INTRA:          -4.012
REMARK INTER:                  -3.889
REMARK INTRA:                  -0.123
REMARK UNBOUND:                -0.133
REMARK  Name = /home/anacleto/Desktop/manuscript_Mpro/naturecomm/supplementary_file_S2/6-chemical-library/molecular_docking/3D_ligand_structure/1256.pdb
REMARK  2 active torsions:
REMARK  status: ('A' for Active; 'I' for Inactive)
REMARK    1  A    between atoms: C3_5  and  S2_6
REMARK    2  A    between atoms: S2_6  and  C4_7
REMARK                            x       y       z     vdW  Elec       q    Type
REMARK                         _______ _______ _______ _____ _____    ______ ____
ROOT
ATOM      1  S2  UNL     1      15.528  10.979  -3.482  0.00  0.00    +0.000 S 
ENDROOT
BRANCH   1   6
ATOM      2  S1  UNL     1      16.386  13.385  -1.833  0.00  0.00    +0.000 S 
ATOM      3  C1  UNL     1      15.607  14.886  -2.115  0.00  0.00    +0.000 A 
ATOM      4  N1  UNL     1      14.672  14.893  -3.039  0.00  0.00    +0.000 NA
ATOM      5  C2  UNL     1      14.572  13.627  -3.586  0.00  0.00    +0.000 A 
ATOM      6  C3  UNL     1      15.423  12.674  -3.061  0.00  0.00    +0.000 A 
ENDBRANCH   1   6
BRANCH   1   7
ATOM      7  C4  UNL     1      14.745  11.038  -5.036  0.00  0.00    +0.000 A 
ATOM      8  N2  UNL     1      15.300  11.394  -6.179  0.00  0.00    +0.000 NA
ATOM      9  N3  UNL     1      14.321  11.304  -7.148  0.00  0.00    +0.000 NA
ATOM     10  C5  UNL     1      13.241  10.899  -6.528  0.00  0.00    +0.000 A 
ATOM     11  O1  UNL     1      13.419  10.709  -5.194  0.00  0.00    +0.000 OA
ENDBRANCH   1   7
TORSDOF 2
ENDMDL
MODEL 4
REMARK VINA RESULT:    -3.456      2.737      4.503
REMARK INTER + INTRA:          -3.993
REMARK INTER:                  -3.851
REMARK INTRA:                  -0.142
REMARK UNBOUND:                -0.133
REMARK  Name = /home/anacleto/Desktop/manuscript_Mpro/naturecomm/supplementary_file_S2/6-chemical-library/molecular_docking/3D_ligand_structure/1256.pdb
REMARK  2 active torsions:
REMARK  status: ('A' for Active; 'I' for Inactive)
REMARK    1  A    between atoms: C3_5  and  S2_6
REMARK    2  A    between atoms: S2_6  and  C4_7
REMARK                            x       y       z     vdW  Elec       q    Type
REMARK                         _______ _______ _______ _____ _____    ______ ____
ROOT
ATOM      1  S2  UNL     1      16.467  12.917  -4.151  0.00  0.00    +0.000 S 
ENDROOT
BRANCH   1   6
ATOM      2  S1  UNL     1      14.662  12.202  -6.490  0.00  0.00    +0.000 S 
ATOM      3  C1  UNL     1      13.505  10.955  -6.276  0.00  0.00    +0.000 A 
ATOM      4  N1  UNL     1      13.474  10.386  -5.092  0.00  0.00    +0.000 NA
ATOM      5  C2  UNL     1      14.450  10.956  -4.294  0.00  0.00    +0.000 A 
ATOM      6  C3  UNL     1      15.198  11.958  -4.880  0.00  0.00    +0.000 A 
ENDBRANCH   1   6
BRANCH   1   7
ATOM      7  C4  UNL     1      15.481  13.983  -3.189  0.00  0.00    +0.000 A 
ATOM      8  N2  UNL     1      15.808  14.516  -2.027  0.00  0.00    +0.000 NA
ATOM      9  N3  UNL     1      14.736  15.282  -1.619  0.00  0.00    +0.000 NA
ATOM     10  C5  UNL     1      13.832  15.163  -2.560  0.00  0.00    +0.000 A 
ATOM     11  O1  UNL     1      14.219  14.360  -3.586  0.00  0.00    +0.000 OA
ENDBRANCH   1   7
TORSDOF 2
ENDMDL
MODEL 5
REMARK VINA RESULT:    -3.322      1.875      2.067
REMARK INTER + INTRA:          -3.843
REMARK INTER:                  -3.685
REMARK INTRA:                  -0.158
REMARK UNBOUND:                -0.133
REMARK  Name = /home/anacleto/Desktop/manuscript_Mpro/naturecomm/supplementary_file_S2/6-chemical-library/molecular_docking/3D_ligand_structure/1256.pdb
REMARK  2 active torsions:
REMARK  status: ('A' for Active; 'I' for Inactive)
REMARK    1  A    between atoms: C3_5  and  S2_6
REMARK    2  A    between atoms: S2_6  and  C4_7
REMARK                            x       y       z     vdW  Elec       q    Type
REMARK                         _______ _______ _______ _____ _____    ______ ____
ROOT
ATOM      1  S2  UNL     1      16.731  12.574  -5.001  0.00  0.00    +0.000 S 
ENDROOT
BRANCH   1   6
ATOM      2  S1  UNL     1      16.059  12.877  -2.051  0.00  0.00    +0.000 S 
ATOM      3  C1  UNL     1      16.943  11.946  -0.914  0.00  0.00    +0.000 A 
ATOM      4  N1  UNL     1      17.870  11.154  -1.404  0.00  0.00    +0.000 NA
ATOM      5  C2  UNL     1      17.875  11.268  -2.783  0.00  0.00    +0.000 A 
ATOM      6  C3  UNL     1      16.960  12.153  -3.318  0.00  0.00    +0.000 A 
ENDBRANCH   1   6
BRANCH   1   7
ATOM      7  C4  UNL     1      15.119  11.951  -5.217  0.00  0.00    +0.000 A 
ATOM      8  N2  UNL     1      14.137  12.534  -5.878  0.00  0.00    +0.000 NA
ATOM      9  N3  UNL     1      13.041  11.700  -5.790  0.00  0.00    +0.000 NA
ATOM     10  C5  UNL     1      13.432  10.669  -5.083  0.00  0.00    +0.000 A 
ATOM     11  O1  UNL     1      14.728  10.747  -4.679  0.00  0.00    +0.000 OA
ENDBRANCH   1   7
TORSDOF 2
ENDMDL
MODEL 6
REMARK VINA RESULT:    -3.313      3.110      3.445
REMARK INTER + INTRA:          -3.834
REMARK INTER:                  -3.719
REMARK INTRA:                  -0.114
REMARK UNBOUND:                -0.133
REMARK  Name = /home/anacleto/Desktop/manuscript_Mpro/naturecomm/supplementary_file_S2/6-chemical-library/molecular_docking/3D_ligand_structure/1256.pdb
REMARK  2 active torsions:
REMARK  status: ('A' for Active; 'I' for Inactive)
REMARK    1  A    between atoms: C3_5  and  S2_6
REMARK    2  A    between atoms: S2_6  and  C4_7
REMARK                            x       y       z     vdW  Elec       q    Type
REMARK                         _______ _______ _______ _____ _____    ______ ____
ROOT
ATOM      1  S2  UNL     1      16.292  12.794  -5.115  0.00  0.00    +0.000 S 
ENDROOT
BRANCH   1   6
ATOM      2  S1  UNL     1      17.552  11.684  -7.649  0.00  0.00    +0.000 S 
ATOM      3  C1  UNL     1      18.575  10.314  -7.518  0.00  0.00    +0.000 A 
ATOM      4  N1  UNL     1      18.744   9.826  -6.310  0.00  0.00    +0.000 NA
ATOM      5  C2  UNL     1      18.033  10.600  -5.410  0.00  0.00    +0.000 A 
ATOM      6  C3  UNL     1      17.326  11.656  -5.950  0.00  0.00    +0.000 A 
ENDBRANCH   1   6
BRANCH   1   7
ATOM      7  C4  UNL     1      14.796  11.907  -5.192  0.00  0.00    +0.000 A 
ATOM      8  N2  UNL     1      14.519  10.782  -4.559  0.00  0.00    +0.000 NA
ATOM      9  N3  UNL     1      13.233  10.428  -4.911  0.00  0.00    +0.000 NA
ATOM     10  C5  UNL     1      12.816  11.361  -5.731  0.00  0.00    +0.000 A 
ATOM     11  O1  UNL     1      13.740  12.331  -5.964  0.00  0.00    +0.000 OA
ENDBRANCH   1   7
TORSDOF 2
ENDMDL
MODEL 7
REMARK VINA RESULT:    -3.301     15.597     17.479
REMARK INTER + INTRA:          -3.820
REMARK INTER:                  -3.691
REMARK INTRA:                  -0.129
REMARK UNBOUND:                -0.133
REMARK  Name = /home/anacleto/Desktop/manuscript_Mpro/naturecomm/supplementary_file_S2/6-chemical-library/molecular_docking/3D_ligand_structure/1256.pdb
REMARK  2 active torsions:
REMARK  status: ('A' for Active; 'I' for Inactive)
REMARK    1  A    between atoms: C3_5  and  S2_6
REMARK    2  A    between atoms: S2_6  and  C4_7
REMARK                            x       y       z     vdW  Elec       q    Type
REMARK                         _______ _______ _______ _____ _____    ______ ____
ROOT
ATOM      1  S2  UNL     1      21.257   6.524  11.579  0.00  0.00    +0.000 S 
ENDROOT
BRANCH   1   6
ATOM      2  S1  UNL     1      18.386   6.629  12.572  0.00  0.00    +0.000 S 
ATOM      3  C1  UNL     1      18.037   7.572  13.960  0.00  0.00    +0.000 A 
ATOM      4  N1  UNL     1      19.053   8.201  14.508  0.00  0.00    +0.000 NA
ATOM      5  C2  UNL     1      20.202   7.903  13.797  0.00  0.00    +0.000 A 
ATOM      6  C3  UNL     1      20.039   7.062  12.713  0.00  0.00    +0.000 A 
ENDBRANCH   1   6
BRANCH   1   7
ATOM      7  C4  UNL     1      20.289   6.504  10.131  0.00  0.00    +0.000 A 
ATOM      8  N2  UNL     1      19.904   5.434   9.462  0.00  0.00    +0.000 NA
ATOM      9  N3  UNL     1      19.166   5.878   8.384  0.00  0.00    +0.000 NA
ATOM     10  C5  UNL     1      19.153   7.185   8.472  0.00  0.00    +0.000 A 
ATOM     11  O1  UNL     1      19.839   7.664   9.544  0.00  0.00    +0.000 OA
ENDBRANCH   1   7
TORSDOF 2
ENDMDL
MODEL 8
REMARK VINA RESULT:    -3.278     15.590     17.879
REMARK INTER + INTRA:          -3.794
REMARK INTER:                  -3.666
REMARK INTRA:                  -0.129
REMARK UNBOUND:                -0.133
REMARK  Name = /home/anacleto/Desktop/manuscript_Mpro/naturecomm/supplementary_file_S2/6-chemical-library/molecular_docking/3D_ligand_structure/1256.pdb
REMARK  2 active torsions:
REMARK  status: ('A' for Active; 'I' for Inactive)
REMARK    1  A    between atoms: C3_5  and  S2_6
REMARK    2  A    between atoms: S2_6  and  C4_7
REMARK                            x       y       z     vdW  Elec       q    Type
REMARK                         _______ _______ _______ _____ _____    ______ ____
ROOT
ATOM      1  S2  UNL     1      21.096   6.825  11.860  0.00  0.00    +0.000 S 
ENDROOT
BRANCH   1   6
ATOM      2  S1  UNL     1      19.744   5.082   9.768  0.00  0.00    +0.000 S 
ATOM      3  C1  UNL     1      19.079   5.840   8.382  0.00  0.00    +0.000 A 
ATOM      4  N1  UNL     1      19.205   7.147   8.315  0.00  0.00    +0.000 NA
ATOM      5  C2  UNL     1      19.855   7.594   9.451  0.00  0.00    +0.000 A 
ATOM      6  C3  UNL     1      20.224   6.619  10.357  0.00  0.00    +0.000 A 
ENDBRANCH   1   6
BRANCH   1   7
ATOM      7  C4  UNL     1      19.771   7.323  12.875  0.00  0.00    +0.000 A 
ATOM      8  N2  UNL     1      19.862   7.983  14.013  0.00  0.00    +0.000 NA
ATOM      9  N3  UNL     1      18.576   8.160  14.481  0.00  0.00    +0.000 NA
ATOM     10  C5  UNL     1      17.792   7.596  13.595  0.00  0.00    +0.000 A 
ATOM     11  O1  UNL     1      18.464   7.042  12.551  0.00  0.00    +0.000 OA
ENDBRANCH   1   7
TORSDOF 2
ENDMDL
MODEL 9
REMARK VINA RESULT:    -3.178      2.761      3.481
REMARK INTER + INTRA:          -3.683
REMARK INTER:                  -3.550
REMARK INTRA:                  -0.133
REMARK UNBOUND:                -0.133
REMARK  Name = /home/anacleto/Desktop/manuscript_Mpro/naturecomm/supplementary_file_S2/6-chemical-library/molecular_docking/3D_ligand_structure/1256.pdb
REMARK  2 active torsions:
REMARK  status: ('A' for Active; 'I' for Inactive)
REMARK    1  A    between atoms: C3_5  and  S2_6
REMARK    2  A    between atoms: S2_6  and  C4_7
REMARK                            x       y       z     vdW  Elec       q    Type
REMARK                         _______ _______ _______ _____ _____    ______ ____
ROOT
ATOM      1  S2  UNL     1      16.056  10.992  -1.688  0.00  0.00    +0.000 S 
ENDROOT
BRANCH   1   6
ATOM      2  S1  UNL     1      15.558  13.934  -2.268  0.00  0.00    +0.000 S 
ATOM      3  C1  UNL     1      16.530  15.099  -1.469  0.00  0.00    +0.000 A 
ATOM      4  N1  UNL     1      17.445  14.630  -0.649  0.00  0.00    +0.000 NA
ATOM      5  C2  UNL     1      17.363  13.250  -0.627  0.00  0.00    +0.000 A 
ATOM      6  C3  UNL     1      16.397  12.690  -1.439  0.00  0.00    +0.000 A 
ENDBRANCH   1   6
BRANCH   1   7
ATOM      7  C4  UNL     1      15.736  11.029  -3.400  0.00  0.00    +0.000 A 
ATOM      8  N2  UNL     1      14.553  10.930  -3.977  0.00  0.00    +0.000 NA
ATOM      9  N3  UNL     1      14.763  11.000  -5.339  0.00  0.00    +0.000 NA
ATOM     10  C5  UNL     1      16.056  11.136  -5.496  0.00  0.00    +0.000 A 
ATOM     11  O1  UNL     1      16.746  11.161  -4.324  0.00  0.00    +0.000 OA
ENDBRANCH   1   7
TORSDOF 2
ENDMDL
