MODEL 1
REMARK VINA RESULT:    -4.607      0.000      0.000
REMARK INTER + INTRA:          -6.002
REMARK INTER:                  -5.797
REMARK INTRA:                  -0.205
REMARK UNBOUND:                -0.318
REMARK  Name = /home/anacleto/Desktop/manuscript_Mpro/naturecomm/supplementary_file_S2/6-chemical-library/molecular_docking/3D_ligand_structure/929.pdb
REMARK  4 active torsions:
REMARK  status: ('A' for Active; 'I' for Inactive)
REMARK    1  A    between atoms: N1_5  and  C5_6
REMARK    2  A    between atoms: C5_6  and  C6_7
REMARK    3  A    between atoms: C6_7  and  O1_8
REMARK    4  A    between atoms: O1_8  and  C7_9
REMARK                            x       y       z     vdW  Elec       q    Type
REMARK                         _______ _______ _______ _____ _____    ______ ____
ROOT
ATOM      1  C6  UNL     1      17.992   3.530   9.260  0.00  0.00    +0.000 C 
ENDROOT
BRANCH   1   2
ATOM      2  C5  UNL     1      16.508   3.337   9.613  0.00  0.00    +0.000 C 
BRANCH   2   7
ATOM      3  C1  UNL     1      16.561   1.451   8.047  0.00  0.00    +0.000 C 
ATOM      4  C2  UNL     1      15.509   0.547   7.419  0.00  0.00    +0.000 C 
ATOM      5  C3  UNL     1      14.211   0.876   8.146  0.00  0.00    +0.000 C 
ATOM      6  C4  UNL     1      14.601   1.891   9.209  0.00  0.00    +0.000 C 
ATOM      7  N1  UNL     1      15.773   2.545   8.620  0.00  0.00    +0.000 NA
ENDBRANCH   2   7
ENDBRANCH   1   2
BRANCH   1   8
ATOM      8  O1  UNL     1      18.175   4.696   8.450  0.00  0.00    +0.000 OA
BRANCH   8   9
ATOM      9  C7  UNL     1      19.243   5.510   8.707  0.00  0.00    +0.000 A 
ATOM     10  C8  UNL     1      18.953   6.876   8.659  0.00  0.00    +0.000 A 
ATOM     11  C9  UNL     1      19.947   7.827   8.897  0.00  0.00    +0.000 A 
ATOM     12  C10 UNL     1      21.245   7.415   9.182  0.00  0.00    +0.000 A 
ATOM     13  C11 UNL     1      21.545   6.055   9.229  0.00  0.00    +0.000 A 
ATOM     14  C12 UNL     1      20.547   5.103   8.990  0.00  0.00    +0.000 A 
ENDBRANCH   8   9
ENDBRANCH   1   8
TORSDOF 4
ENDMDL
MODEL 2
REMARK VINA RESULT:    -4.501     15.566     16.715
REMARK INTER + INTRA:          -5.871
REMARK INTER:                  -5.651
REMARK INTRA:                  -0.219
REMARK UNBOUND:                -0.318
REMARK  Name = /home/anacleto/Desktop/manuscript_Mpro/naturecomm/supplementary_file_S2/6-chemical-library/molecular_docking/3D_ligand_structure/929.pdb
REMARK  4 active torsions:
REMARK  status: ('A' for Active; 'I' for Inactive)
REMARK    1  A    between atoms: N1_5  and  C5_6
REMARK    2  A    between atoms: C5_6  and  C6_7
REMARK    3  A    between atoms: C6_7  and  O1_8
REMARK    4  A    between atoms: O1_8  and  C7_9
REMARK                            x       y       z     vdW  Elec       q    Type
REMARK                         _______ _______ _______ _____ _____    ______ ____
ROOT
ATOM      1  C6  UNL     1      14.666  13.501  -3.636  0.00  0.00    +0.000 C 
ENDROOT
BRANCH   1   2
ATOM      2  C5  UNL     1      14.974  11.995  -3.637  0.00  0.00    +0.000 C 
BRANCH   2   7
ATOM      3  C1  UNL     1      13.444  10.830  -5.159  0.00  0.00    +0.000 C 
ATOM      4  C2  UNL     1      13.367  10.645  -6.669  0.00  0.00    +0.000 C 
ATOM      5  C3  UNL     1      14.418  11.586  -7.244  0.00  0.00    +0.000 C 
ATOM      6  C4  UNL     1      14.985  12.324  -6.042  0.00  0.00    +0.000 C 
ATOM      7  N1  UNL     1      14.792  11.366  -4.950  0.00  0.00    +0.000 NA
ENDBRANCH   2   7
ENDBRANCH   1   2
BRANCH   1   8
ATOM      8  O1  UNL     1      14.408  13.968  -2.308  0.00  0.00    +0.000 OA
BRANCH   8   9
ATOM      9  C7  UNL     1      13.816  15.188  -2.146  0.00  0.00    +0.000 A 
ATOM     10  C8  UNL     1      14.658  16.277  -2.390  0.00  0.00    +0.000 A 
ATOM     11  C9  UNL     1      14.191  17.586  -2.260  0.00  0.00    +0.000 A 
ATOM     12  C10 UNL     1      12.872  17.815  -1.880  0.00  0.00    +0.000 A 
ATOM     13  C11 UNL     1      12.026  16.737  -1.632  0.00  0.00    +0.000 A 
ATOM     14  C12 UNL     1      12.495  15.425  -1.763  0.00  0.00    +0.000 A 
ENDBRANCH   8   9
ENDBRANCH   1   8
TORSDOF 4
ENDMDL
MODEL 3
REMARK VINA RESULT:    -4.464     13.877     15.718
REMARK INTER + INTRA:          -5.826
REMARK INTER:                  -5.636
REMARK INTRA:                  -0.190
REMARK UNBOUND:                -0.318
REMARK  Name = /home/anacleto/Desktop/manuscript_Mpro/naturecomm/supplementary_file_S2/6-chemical-library/molecular_docking/3D_ligand_structure/929.pdb
REMARK  4 active torsions:
REMARK  status: ('A' for Active; 'I' for Inactive)
REMARK    1  A    between atoms: N1_5  and  C5_6
REMARK    2  A    between atoms: C5_6  and  C6_7
REMARK    3  A    between atoms: C6_7  and  O1_8
REMARK    4  A    between atoms: O1_8  and  C7_9
REMARK                            x       y       z     vdW  Elec       q    Type
REMARK                         _______ _______ _______ _____ _____    ______ ____
ROOT
ATOM      1  C6  UNL     1      15.354  12.121  -2.508  0.00  0.00    +0.000 C 
ENDROOT
BRANCH   1   2
ATOM      2  C5  UNL     1      16.337  11.853  -1.356  0.00  0.00    +0.000 C 
BRANCH   2   7
ATOM      3  C1  UNL     1      17.181  13.930  -0.362  0.00  0.00    +0.000 C 
ATOM      4  C2  UNL     1      18.563  14.527  -0.137  0.00  0.00    +0.000 C 
ATOM      5  C3  UNL     1      19.544  13.415  -0.484  0.00  0.00    +0.000 C 
ATOM      6  C4  UNL     1      18.674  12.211  -0.810  0.00  0.00    +0.000 C 
ATOM      7  N1  UNL     1      17.434  12.825  -1.291  0.00  0.00    +0.000 NA
ENDBRANCH   2   7
ENDBRANCH   1   2
BRANCH   1   8
ATOM      8  O1  UNL     1      15.056  10.912  -3.214  0.00  0.00    +0.000 OA
BRANCH   8   9
ATOM      9  C7  UNL     1      14.718  10.993  -4.536  0.00  0.00    +0.000 A 
ATOM     10  C8  UNL     1      15.718  11.523  -5.356  0.00  0.00    +0.000 A 
ATOM     11  C9  UNL     1      15.514  11.669  -6.730  0.00  0.00    +0.000 A 
ATOM     12  C10 UNL     1      14.300  11.287  -7.293  0.00  0.00    +0.000 A 
ATOM     13  C11 UNL     1      13.296  10.761  -6.483  0.00  0.00    +0.000 A 
ATOM     14  C12 UNL     1      13.503  10.615  -5.107  0.00  0.00    +0.000 A 
ENDBRANCH   8   9
ENDBRANCH   1   8
TORSDOF 4
ENDMDL
MODEL 4
REMARK VINA RESULT:    -4.431     16.113     17.584
REMARK INTER + INTRA:          -5.785
REMARK INTER:                  -5.522
REMARK INTRA:                  -0.263
REMARK UNBOUND:                -0.318
REMARK  Name = /home/anacleto/Desktop/manuscript_Mpro/naturecomm/supplementary_file_S2/6-chemical-library/molecular_docking/3D_ligand_structure/929.pdb
REMARK  4 active torsions:
REMARK  status: ('A' for Active; 'I' for Inactive)
REMARK    1  A    between atoms: N1_5  and  C5_6
REMARK    2  A    between atoms: C5_6  and  C6_7
REMARK    3  A    between atoms: C6_7  and  O1_8
REMARK    4  A    between atoms: O1_8  and  C7_9
REMARK                            x       y       z     vdW  Elec       q    Type
REMARK                         _______ _______ _______ _____ _____    ______ ____
ROOT
ATOM      1  C6  UNL     1      15.416  14.215  -3.279  0.00  0.00    +0.000 C 
ENDROOT
BRANCH   1   2
ATOM      2  C5  UNL     1      15.117  15.146  -2.093  0.00  0.00    +0.000 C 
BRANCH   2   7
ATOM      3  C1  UNL     1      12.908  15.754  -1.218  0.00  0.00    +0.000 C 
ATOM      4  C2  UNL     1      11.986  16.956  -1.372  0.00  0.00    +0.000 C 
ATOM      5  C3  UNL     1      12.813  18.007  -2.103  0.00  0.00    +0.000 C 
ATOM      6  C4  UNL     1      14.192  17.385  -2.256  0.00  0.00    +0.000 C 
ATOM      7  N1  UNL     1      13.902  15.949  -2.277  0.00  0.00    +0.000 NA
ENDBRANCH   2   7
ENDBRANCH   1   2
BRANCH   1   8
ATOM      8  O1  UNL     1      14.217  13.594  -3.754  0.00  0.00    +0.000 OA
BRANCH   8   9
ATOM      9  C7  UNL     1      14.272  12.859  -4.905  0.00  0.00    +0.000 A 
ATOM     10  C8  UNL     1      15.258  13.271  -5.806  0.00  0.00    +0.000 A 
ATOM     11  C9  UNL     1      15.428  12.616  -7.027  0.00  0.00    +0.000 A 
ATOM     12  C10 UNL     1      14.606  11.542  -7.357  0.00  0.00    +0.000 A 
ATOM     13  C11 UNL     1      13.618  11.127  -6.467  0.00  0.00    +0.000 A 
ATOM     14  C12 UNL     1      13.449  11.785  -5.243  0.00  0.00    +0.000 A 
ENDBRANCH   8   9
ENDBRANCH   1   8
TORSDOF 4
ENDMDL
MODEL 5
REMARK VINA RESULT:    -4.273     15.166     16.737
REMARK INTER + INTRA:          -5.590
REMARK INTER:                  -5.234
REMARK INTRA:                  -0.356
REMARK UNBOUND:                -0.318
REMARK  Name = /home/anacleto/Desktop/manuscript_Mpro/naturecomm/supplementary_file_S2/6-chemical-library/molecular_docking/3D_ligand_structure/929.pdb
REMARK  4 active torsions:
REMARK  status: ('A' for Active; 'I' for Inactive)
REMARK    1  A    between atoms: N1_5  and  C5_6
REMARK    2  A    between atoms: C5_6  and  C6_7
REMARK    3  A    between atoms: C6_7  and  O1_8
REMARK    4  A    between atoms: O1_8  and  C7_9
REMARK                            x       y       z     vdW  Elec       q    Type
REMARK                         _______ _______ _______ _____ _____    ______ ____
ROOT
ATOM      1  C6  UNL     1      16.687  13.557  -4.088  0.00  0.00    +0.000 C 
ENDROOT
BRANCH   1   2
ATOM      2  C5  UNL     1      16.723  13.772  -2.566  0.00  0.00    +0.000 C 
BRANCH   2   7
ATOM      3  C1  UNL     1      15.571  15.442  -1.188  0.00  0.00    +0.000 C 
ATOM      4  C2  UNL     1      14.143  15.966  -1.107  0.00  0.00    +0.000 C 
ATOM      5  C3  UNL     1      13.428  15.374  -2.314  0.00  0.00    +0.000 C 
ATOM      6  C4  UNL     1      14.501  14.609  -3.072  0.00  0.00    +0.000 C 
ATOM      7  N1  UNL     1      15.445  14.238  -2.014  0.00  0.00    +0.000 NA
ENDBRANCH   2   7
ENDBRANCH   1   2
BRANCH   1   8
ATOM      8  O1  UNL     1      16.614  12.163  -4.404  0.00  0.00    +0.000 OA
BRANCH   8   9
ATOM      9  C7  UNL     1      15.579  11.721  -5.178  0.00  0.00    +0.000 A 
ATOM     10  C8  UNL     1      14.557  11.085  -4.467  0.00  0.00    +0.000 A 
ATOM     11  C9  UNL     1      13.436  10.577  -5.127  0.00  0.00    +0.000 A 
ATOM     12  C10 UNL     1      13.332  10.700  -6.509  0.00  0.00    +0.000 A 
ATOM     13  C11 UNL     1      14.347  11.328  -7.226  0.00  0.00    +0.000 A 
ATOM     14  C12 UNL     1      15.470  11.837  -6.564  0.00  0.00    +0.000 A 
ENDBRANCH   8   9
ENDBRANCH   1   8
TORSDOF 4
ENDMDL
MODEL 6
REMARK VINA RESULT:    -4.262      0.894      2.042
REMARK INTER + INTRA:          -5.576
REMARK INTER:                  -5.351
REMARK INTRA:                  -0.225
REMARK UNBOUND:                -0.318
REMARK  Name = /home/anacleto/Desktop/manuscript_Mpro/naturecomm/supplementary_file_S2/6-chemical-library/molecular_docking/3D_ligand_structure/929.pdb
REMARK  4 active torsions:
REMARK  status: ('A' for Active; 'I' for Inactive)
REMARK    1  A    between atoms: N1_5  and  C5_6
REMARK    2  A    between atoms: C5_6  and  C6_7
REMARK    3  A    between atoms: C6_7  and  O1_8
REMARK    4  A    between atoms: O1_8  and  C7_9
REMARK                            x       y       z     vdW  Elec       q    Type
REMARK                         _______ _______ _______ _____ _____    ______ ____
ROOT
ATOM      1  C6  UNL     1      17.728   3.813   9.532  0.00  0.00    +0.000 C 
ENDROOT
BRANCH   1   2
ATOM      2  C5  UNL     1      17.195   2.457   9.041  0.00  0.00    +0.000 C 
BRANCH   2   7
ATOM      3  C1  UNL     1      15.381   3.080  10.569  0.00  0.00    +0.000 C 
ATOM      4  C2  UNL     1      13.951   2.605  10.788  0.00  0.00    +0.000 C 
ATOM      5  C3  UNL     1      13.656   1.668   9.623  0.00  0.00    +0.000 C 
ATOM      6  C4  UNL     1      14.900   1.719   8.752  0.00  0.00    +0.000 C 
ATOM      7  N1  UNL     1      15.959   2.041   9.713  0.00  0.00    +0.000 NA
ENDBRANCH   2   7
ENDBRANCH   1   2
BRANCH   1   8
ATOM      8  O1  UNL     1      18.189   4.607   8.435  0.00  0.00    +0.000 OA
BRANCH   8   9
ATOM      9  C7  UNL     1      19.142   5.557   8.670  0.00  0.00    +0.000 A 
ATOM     10  C8  UNL     1      20.421   5.047   8.911  0.00  0.00    +0.000 A 
ATOM     11  C9  UNL     1      21.495   5.900   9.171  0.00  0.00    +0.000 A 
ATOM     12  C10 UNL     1      21.294   7.277   9.196  0.00  0.00    +0.000 A 
ATOM     13  C11 UNL     1      20.022   7.795   8.960  0.00  0.00    +0.000 A 
ATOM     14  C12 UNL     1      18.947   6.938   8.699  0.00  0.00    +0.000 A 
ENDBRANCH   8   9
ENDBRANCH   1   8
TORSDOF 4
ENDMDL
MODEL 7
REMARK VINA RESULT:    -4.175     15.694     16.913
REMARK INTER + INTRA:          -5.469
REMARK INTER:                  -5.151
REMARK INTRA:                  -0.318
REMARK UNBOUND:                -0.318
REMARK  Name = /home/anacleto/Desktop/manuscript_Mpro/naturecomm/supplementary_file_S2/6-chemical-library/molecular_docking/3D_ligand_structure/929.pdb
REMARK  4 active torsions:
REMARK  status: ('A' for Active; 'I' for Inactive)
REMARK    1  A    between atoms: N1_5  and  C5_6
REMARK    2  A    between atoms: C5_6  and  C6_7
REMARK    3  A    between atoms: C6_7  and  O1_8
REMARK    4  A    between atoms: O1_8  and  C7_9
REMARK                            x       y       z     vdW  Elec       q    Type
REMARK                         _______ _______ _______ _____ _____    ______ ____
ROOT
ATOM      1  C6  UNL     1      17.918  10.547  -4.793  0.00  0.00    +0.000 C 
ENDROOT
BRANCH   1   2
ATOM      2  C5  UNL     1      19.147  11.188  -5.458  0.00  0.00    +0.000 C 
BRANCH   2   7
ATOM      3  C1  UNL     1      20.530   9.172  -5.658  0.00  0.00    +0.000 C 
ATOM      4  C2  UNL     1      20.807   8.167  -6.767  0.00  0.00    +0.000 C 
ATOM      5  C3  UNL     1      19.810   8.499  -7.870  0.00  0.00    +0.000 C 
ATOM      6  C4  UNL     1      18.957   9.623  -7.303  0.00  0.00    +0.000 C 
ATOM      7  N1  UNL     1      19.864  10.275  -6.356  0.00  0.00    +0.000 NA
ENDBRANCH   2   7
ENDBRANCH   1   2
BRANCH   1   8
ATOM      8  O1  UNL     1      16.863  11.502  -4.645  0.00  0.00    +0.000 OA
BRANCH   8   9
ATOM      9  C7  UNL     1      15.709  11.317  -5.354  0.00  0.00    +0.000 A 
ATOM     10  C8  UNL     1      14.629  10.864  -4.592  0.00  0.00    +0.000 A 
ATOM     11  C9  UNL     1      13.386  10.626  -5.183  0.00  0.00    +0.000 A 
ATOM     12  C10 UNL     1      13.217  10.838  -6.548  0.00  0.00    +0.000 A 
ATOM     13  C11 UNL     1      14.289  11.286  -7.317  0.00  0.00    +0.000 A 
ATOM     14  C12 UNL     1      15.534  11.524  -6.723  0.00  0.00    +0.000 A 
ENDBRANCH   8   9
ENDBRANCH   1   8
TORSDOF 4
ENDMDL
MODEL 8
REMARK VINA RESULT:    -4.144      1.930      6.229
REMARK INTER + INTRA:          -5.430
REMARK INTER:                  -5.111
REMARK INTRA:                  -0.319
REMARK UNBOUND:                -0.318
REMARK  Name = /home/anacleto/Desktop/manuscript_Mpro/naturecomm/supplementary_file_S2/6-chemical-library/molecular_docking/3D_ligand_structure/929.pdb
REMARK  4 active torsions:
REMARK  status: ('A' for Active; 'I' for Inactive)
REMARK    1  A    between atoms: N1_5  and  C5_6
REMARK    2  A    between atoms: C5_6  and  C6_7
REMARK    3  A    between atoms: C6_7  and  O1_8
REMARK    4  A    between atoms: O1_8  and  C7_9
REMARK                            x       y       z     vdW  Elec       q    Type
REMARK                         _______ _______ _______ _____ _____    ______ ____
ROOT
ATOM      1  C6  UNL     1      18.107   3.619  10.992  0.00  0.00    +0.000 C 
ENDROOT
BRANCH   1   2
ATOM      2  C5  UNL     1      18.755   4.967  11.348  0.00  0.00    +0.000 C 
BRANCH   2   7
ATOM      3  C1  UNL     1      19.653   7.052  10.421  0.00  0.00    +0.000 C 
ATOM      4  C2  UNL     1      19.758   7.649   9.024  0.00  0.00    +0.000 C 
ATOM      5  C3  UNL     1      19.343   6.530   8.077  0.00  0.00    +0.000 C 
ATOM      6  C4  UNL     1      19.104   5.325   8.972  0.00  0.00    +0.000 C 
ATOM      7  N1  UNL     1      18.719   5.937  10.247  0.00  0.00    +0.000 NA
ENDBRANCH   2   7
ENDBRANCH   1   2
BRANCH   1   8
ATOM      8  O1  UNL     1      16.680   3.705  11.063  0.00  0.00    +0.000 OA
BRANCH   8   9
ATOM      9  C7  UNL     1      15.936   2.986  10.170  0.00  0.00    +0.000 A 
ATOM     10  C8  UNL     1      16.479   2.923   8.884  0.00  0.00    +0.000 A 
ATOM     11  C9  UNL     1      15.826   2.227   7.865  0.00  0.00    +0.000 A 
ATOM     12  C10 UNL     1      14.617   1.589   8.128  0.00  0.00    +0.000 A 
ATOM     13  C11 UNL     1      14.066   1.650   9.406  0.00  0.00    +0.000 A 
ATOM     14  C12 UNL     1      14.722   2.349  10.426  0.00  0.00    +0.000 A 
ENDBRANCH   8   9
ENDBRANCH   1   8
TORSDOF 4
ENDMDL
MODEL 9
REMARK VINA RESULT:    -4.113     13.474     14.581
REMARK INTER + INTRA:          -5.392
REMARK INTER:                  -5.192
REMARK INTRA:                  -0.200
REMARK UNBOUND:                -0.318
REMARK  Name = /home/anacleto/Desktop/manuscript_Mpro/naturecomm/supplementary_file_S2/6-chemical-library/molecular_docking/3D_ligand_structure/929.pdb
REMARK  4 active torsions:
REMARK  status: ('A' for Active; 'I' for Inactive)
REMARK    1  A    between atoms: N1_5  and  C5_6
REMARK    2  A    between atoms: C5_6  and  C6_7
REMARK    3  A    between atoms: C6_7  and  O1_8
REMARK    4  A    between atoms: O1_8  and  C7_9
REMARK                            x       y       z     vdW  Elec       q    Type
REMARK                         _______ _______ _______ _____ _____    ______ ____
ROOT
ATOM      1  C6  UNL     1      16.504  12.020  -2.976  0.00  0.00    +0.000 C 
ENDROOT
BRANCH   1   2
ATOM      2  C5  UNL     1      15.408  11.003  -3.333  0.00  0.00    +0.000 C 
BRANCH   2   7
ATOM      3  C1  UNL     1      13.671  10.663  -5.031  0.00  0.00    +0.000 C 
ATOM      4  C2  UNL     1      13.469  11.126  -6.468  0.00  0.00    +0.000 C 
ATOM      5  C3  UNL     1      14.561  12.159  -6.715  0.00  0.00    +0.000 C 
ATOM      6  C4  UNL     1      15.280  12.299  -5.382  0.00  0.00    +0.000 C 
ATOM      7  N1  UNL     1      15.075  10.986  -4.762  0.00  0.00    +0.000 NA
ENDBRANCH   2   7
ENDBRANCH   1   2
BRANCH   1   8
ATOM      8  O1  UNL     1      17.024  11.769  -1.666  0.00  0.00    +0.000 OA
BRANCH   8   9
ATOM      9  C7  UNL     1      17.728  12.760  -1.041  0.00  0.00    +0.000 A 
ATOM     10  C8  UNL     1      16.992  13.921  -0.788  0.00  0.00    +0.000 A 
ATOM     11  C9  UNL     1      17.581  15.019  -0.159  0.00  0.00    +0.000 A 
ATOM     12  C10 UNL     1      18.919  14.963   0.220  0.00  0.00    +0.000 A 
ATOM     13  C11 UNL     1      19.662  13.811  -0.031  0.00  0.00    +0.000 A 
ATOM     14  C12 UNL     1      19.070  12.712  -0.662  0.00  0.00    +0.000 A 
ENDBRANCH   8   9
ENDBRANCH   1   8
TORSDOF 4
ENDMDL
