MODEL 1
REMARK VINA RESULT:    -2.795      0.000      0.000
REMARK INTER + INTRA:          -2.795
REMARK INTER:                  -2.795
REMARK INTRA:                   0.000
REMARK UNBOUND:                 0.000
REMARK  Name = /home/anacleto/Desktop/manuscript_Mpro/naturecomm/supplementary_file_S2/6-chemical-library/molecular_docking/3D_ligand_structure/380.pdb
REMARK  0 active torsions:
REMARK  status: ('A' for Active; 'I' for Inactive)
REMARK                            x       y       z     vdW  Elec       q    Type
REMARK                         _______ _______ _______ _____ _____    ______ ____
ROOT
ATOM      1  C1  UNL     1      14.269  11.992  -6.570  0.00  0.00    +0.000 C 
ATOM      2  C2  UNL     1      14.062  12.662  -5.165  0.00  0.00    +0.000 C 
ATOM      3  C3  UNL     1      14.482  11.204  -4.752  0.00  0.00    +0.000 C 
ATOM      4  C4  UNL     1      15.550  11.394  -5.888  0.00  0.00    +0.000 C 
ATOM      5  O1  UNL     1      13.465  10.305  -5.265  0.00  0.00    +0.000 OA
ATOM      6  C5  UNL     1      13.267  10.827  -6.588  0.00  0.00    +0.000 C 
ENDROOT
TORSDOF 0
ENDMDL
MODEL 2
REMARK VINA RESULT:    -2.758      1.457      2.223
REMARK INTER + INTRA:          -2.758
REMARK INTER:                  -2.758
REMARK INTRA:                   0.000
REMARK UNBOUND:                 0.000
REMARK  Name = /home/anacleto/Desktop/manuscript_Mpro/naturecomm/supplementary_file_S2/6-chemical-library/molecular_docking/3D_ligand_structure/380.pdb
REMARK  0 active torsions:
REMARK  status: ('A' for Active; 'I' for Inactive)
REMARK                            x       y       z     vdW  Elec       q    Type
REMARK                         _______ _______ _______ _____ _____    ______ ____
ROOT
ATOM      1  C1  UNL     1      14.941  11.035  -5.511  0.00  0.00    +0.000 C 
ATOM      2  C2  UNL     1      13.525  10.530  -5.058  0.00  0.00    +0.000 C 
ATOM      3  C3  UNL     1      13.165  11.918  -5.703  0.00  0.00    +0.000 C 
ATOM      4  C4  UNL     1      14.171  11.448  -6.815  0.00  0.00    +0.000 C 
ATOM      5  O1  UNL     1      13.835  12.940  -4.922  0.00  0.00    +0.000 OA
ATOM      6  C5  UNL     1      15.137  12.356  -4.749  0.00  0.00    +0.000 C 
ENDROOT
TORSDOF 0
ENDMDL
MODEL 3
REMARK VINA RESULT:    -2.729     15.956     16.937
REMARK INTER + INTRA:          -2.729
REMARK INTER:                  -2.729
REMARK INTRA:                   0.000
REMARK UNBOUND:                 0.000
REMARK  Name = /home/anacleto/Desktop/manuscript_Mpro/naturecomm/supplementary_file_S2/6-chemical-library/molecular_docking/3D_ligand_structure/380.pdb
REMARK  0 active torsions:
REMARK  status: ('A' for Active; 'I' for Inactive)
REMARK                            x       y       z     vdW  Elec       q    Type
REMARK                         _______ _______ _______ _____ _____    ______ ____
ROOT
ATOM      1  C1  UNL     1      20.484   7.130   9.101  0.00  0.00    +0.000 C 
ATOM      2  C2  UNL     1      20.678   5.685   8.517  0.00  0.00    +0.000 C 
ATOM      3  C3  UNL     1      19.185   5.621   9.005  0.00  0.00    +0.000 C 
ATOM      4  C4  UNL     1      19.109   7.047   8.349  0.00  0.00    +0.000 C 
ATOM      5  O1  UNL     1      19.197   5.811  10.444  0.00  0.00    +0.000 OA
ATOM      6  C5  UNL     1      20.126   6.899  10.578  0.00  0.00    +0.000 C 
ENDROOT
TORSDOF 0
ENDMDL
MODEL 4
REMARK VINA RESULT:    -2.674     15.844     16.654
REMARK INTER + INTRA:          -2.674
REMARK INTER:                  -2.674
REMARK INTRA:                   0.000
REMARK UNBOUND:                 0.000
REMARK  Name = /home/anacleto/Desktop/manuscript_Mpro/naturecomm/supplementary_file_S2/6-chemical-library/molecular_docking/3D_ligand_structure/380.pdb
REMARK  0 active torsions:
REMARK  status: ('A' for Active; 'I' for Inactive)
REMARK                            x       y       z     vdW  Elec       q    Type
REMARK                         _______ _______ _______ _____ _____    ______ ____
ROOT
ATOM      1  C1  UNL     1      20.416   6.146   9.840  0.00  0.00    +0.000 C 
ATOM      2  C2  UNL     1      21.099   7.387   9.163  0.00  0.00    +0.000 C 
ATOM      3  C3  UNL     1      19.597   7.601   8.749  0.00  0.00    +0.000 C 
ATOM      4  C4  UNL     1      19.328   7.202  10.245  0.00  0.00    +0.000 C 
ATOM      5  O1  UNL     1      19.215   6.467   7.928  0.00  0.00    +0.000 OA
ATOM      6  C5  UNL     1      19.782   5.376   8.670  0.00  0.00    +0.000 C 
ENDROOT
TORSDOF 0
ENDMDL
MODEL 5
REMARK VINA RESULT:    -2.550     20.001     20.779
REMARK INTER + INTRA:          -2.550
REMARK INTER:                  -2.550
REMARK INTRA:                   0.000
REMARK UNBOUND:                 0.000
REMARK  Name = /home/anacleto/Desktop/manuscript_Mpro/naturecomm/supplementary_file_S2/6-chemical-library/molecular_docking/3D_ligand_structure/380.pdb
REMARK  0 active torsions:
REMARK  status: ('A' for Active; 'I' for Inactive)
REMARK                            x       y       z     vdW  Elec       q    Type
REMARK                         _______ _______ _______ _____ _____    ______ ____
ROOT
ATOM      1  C1  UNL     1      22.466  16.801  12.201  0.00  0.00    +0.000 C 
ATOM      2  C2  UNL     1      22.683  15.749  11.056  0.00  0.00    +0.000 C 
ATOM      3  C3  UNL     1      23.456  15.072  12.246  0.00  0.00    +0.000 C 
ATOM      4  C4  UNL     1      22.197  15.522  13.070  0.00  0.00    +0.000 C 
ATOM      5  O1  UNL     1      24.545  15.959  12.607  0.00  0.00    +0.000 OA
ATOM      6  C5  UNL     1      23.888  17.236  12.593  0.00  0.00    +0.000 C 
ENDROOT
TORSDOF 0
ENDMDL
MODEL 6
REMARK VINA RESULT:    -2.359      9.381      9.993
REMARK INTER + INTRA:          -2.359
REMARK INTER:                  -2.359
REMARK INTRA:                   0.000
REMARK UNBOUND:                 0.000
REMARK  Name = /home/anacleto/Desktop/manuscript_Mpro/naturecomm/supplementary_file_S2/6-chemical-library/molecular_docking/3D_ligand_structure/380.pdb
REMARK  0 active torsions:
REMARK  status: ('A' for Active; 'I' for Inactive)
REMARK                            x       y       z     vdW  Elec       q    Type
REMARK                         _______ _______ _______ _____ _____    ______ ____
ROOT
ATOM      1  C1  UNL     1      20.329  14.665   0.492  0.00  0.00    +0.000 C 
ATOM      2  C2  UNL     1      20.874  15.003  -0.941  0.00  0.00    +0.000 C 
ATOM      3  C3  UNL     1      21.432  16.213  -0.108  0.00  0.00    +0.000 C 
ATOM      4  C4  UNL     1      21.773  15.090   0.937  0.00  0.00    +0.000 C 
ATOM      5  O1  UNL     1      20.288  16.943   0.405  0.00  0.00    +0.000 OA
ATOM      6  C5  UNL     1      19.447  15.870   0.858  0.00  0.00    +0.000 C 
ENDROOT
TORSDOF 0
ENDMDL
MODEL 7
REMARK VINA RESULT:    -2.184      8.834      9.596
REMARK INTER + INTRA:          -2.184
REMARK INTER:                  -2.184
REMARK INTRA:                   0.000
REMARK UNBOUND:                 0.000
REMARK  Name = /home/anacleto/Desktop/manuscript_Mpro/naturecomm/supplementary_file_S2/6-chemical-library/molecular_docking/3D_ligand_structure/380.pdb
REMARK  0 active torsions:
REMARK  status: ('A' for Active; 'I' for Inactive)
REMARK                            x       y       z     vdW  Elec       q    Type
REMARK                         _______ _______ _______ _____ _____    ______ ____
ROOT
ATOM      1  C1  UNL     1      18.370  15.827   0.534  0.00  0.00    +0.000 C 
ATOM      2  C2  UNL     1      17.911  16.943   1.539  0.00  0.00    +0.000 C 
ATOM      3  C3  UNL     1      18.517  17.808   0.375  0.00  0.00    +0.000 C 
ATOM      4  C4  UNL     1      17.738  16.789  -0.533  0.00  0.00    +0.000 C 
ATOM      5  O1  UNL     1      19.925  17.474   0.283  0.00  0.00    +0.000 OA
ATOM      6  C5  UNL     1      19.885  16.043   0.392  0.00  0.00    +0.000 C 
ENDROOT
TORSDOF 0
ENDMDL
MODEL 8
REMARK VINA RESULT:    -2.056      2.036      2.704
REMARK INTER + INTRA:          -2.056
REMARK INTER:                  -2.056
REMARK INTRA:                   0.000
REMARK UNBOUND:                 0.000
REMARK  Name = /home/anacleto/Desktop/manuscript_Mpro/naturecomm/supplementary_file_S2/6-chemical-library/molecular_docking/3D_ligand_structure/380.pdb
REMARK  0 active torsions:
REMARK  status: ('A' for Active; 'I' for Inactive)
REMARK                            x       y       z     vdW  Elec       q    Type
REMARK                         _______ _______ _______ _____ _____    ______ ____
ROOT
ATOM      1  C1  UNL     1      15.728  11.609  -5.190  0.00  0.00    +0.000 C 
ATOM      2  C2  UNL     1      14.392  10.951  -4.694  0.00  0.00    +0.000 C 
ATOM      3  C3  UNL     1      15.061  11.352  -3.329  0.00  0.00    +0.000 C 
ATOM      4  C4  UNL     1      15.385  12.683  -4.098  0.00  0.00    +0.000 C 
ATOM      5  O1  UNL     1      16.300  10.604  -3.225  0.00  0.00    +0.000 OA
ATOM      6  C5  UNL     1      16.834  10.755  -4.550  0.00  0.00    +0.000 C 
ENDROOT
TORSDOF 0
ENDMDL
MODEL 9
REMARK VINA RESULT:    -2.044      8.237      8.920
REMARK INTER + INTRA:          -2.044
REMARK INTER:                  -2.044
REMARK INTRA:                   0.000
REMARK UNBOUND:                 0.000
REMARK  Name = /home/anacleto/Desktop/manuscript_Mpro/naturecomm/supplementary_file_S2/6-chemical-library/molecular_docking/3D_ligand_structure/380.pdb
REMARK  0 active torsions:
REMARK  status: ('A' for Active; 'I' for Inactive)
REMARK                            x       y       z     vdW  Elec       q    Type
REMARK                         _______ _______ _______ _____ _____    ______ ____
ROOT
ATOM      1  C1  UNL     1      17.402  16.287   0.138  0.00  0.00    +0.000 C 
ATOM      2  C2  UNL     1      17.938  16.733   1.544  0.00  0.00    +0.000 C 
ATOM      3  C3  UNL     1      19.281  16.564   0.744  0.00  0.00    +0.000 C 
ATOM      4  C4  UNL     1      18.478  17.302  -0.387  0.00  0.00    +0.000 C 
ATOM      5  O1  UNL     1      19.376  15.168   0.360  0.00  0.00    +0.000 OA
ATOM      6  C5  UNL     1      18.038  14.906  -0.092  0.00  0.00    +0.000 C 
ENDROOT
TORSDOF 0
ENDMDL
