MODEL 1
REMARK VINA RESULT:    -5.040      0.000      0.000
REMARK INTER + INTRA:          -5.040
REMARK INTER:                  -5.040
REMARK INTRA:                   0.000
REMARK UNBOUND:                 0.000
REMARK  Name = /home/anacleto/Desktop/manuscript_Mpro/naturecomm/supplementary_file_S2/6-chemical-library/molecular_docking/3D_ligand_structure/1464.pdb
REMARK  0 active torsions:
REMARK  status: ('A' for Active; 'I' for Inactive)
REMARK                            x       y       z     vdW  Elec       q    Type
REMARK                         _______ _______ _______ _____ _____    ______ ____
ROOT
ATOM      1  C1  UNL     1     -39.938   4.818 -13.193  0.00  0.00    +0.000 A 
ATOM      2  C2  UNL     1     -39.655   3.474 -12.919  0.00  0.00    +0.000 A 
ATOM      3  C3  UNL     1     -38.490   2.883 -13.400  0.00  0.00    +0.000 A 
ATOM      4  C4  UNL     1     -37.575   3.611 -14.166  0.00  0.00    +0.000 A 
ATOM      5  C5  UNL     1     -37.874   4.954 -14.430  0.00  0.00    +0.000 A 
ATOM      6  C6  UNL     1     -39.032   5.575 -13.963  0.00  0.00    +0.000 A 
ATOM      7  C7  UNL     1     -39.005   6.932 -14.421  0.00  0.00    +0.000 A 
ATOM      8  N1  UNL     1     -37.171   5.896 -15.143  0.00  0.00    +0.000 N 
ATOM      9  C8  UNL     1     -37.831   7.102 -15.154  0.00  0.00    +0.000 A 
ATOM     10  C9  UNL     1     -37.481   8.318 -15.753  0.00  0.00    +0.000 A 
ATOM     11  C10 UNL     1     -38.359   9.394 -15.596  0.00  0.00    +0.000 A 
ATOM     12  C11 UNL     1     -39.540   9.257 -14.868  0.00  0.00    +0.000 A 
ATOM     13  C12 UNL     1     -39.874   8.033 -14.277  0.00  0.00    +0.000 A 
ATOM     14  H5  UNL     1     -36.288   5.724 -15.598  0.00  0.00    +0.000 HD
ENDROOT
TORSDOF 0
ENDMDL
MODEL 2
REMARK VINA RESULT:    -5.023      0.116      4.435
REMARK INTER + INTRA:          -5.023
REMARK INTER:                  -5.023
REMARK INTRA:                   0.000
REMARK UNBOUND:                 0.000
REMARK  Name = /home/anacleto/Desktop/manuscript_Mpro/naturecomm/supplementary_file_S2/6-chemical-library/molecular_docking/3D_ligand_structure/1464.pdb
REMARK  0 active torsions:
REMARK  status: ('A' for Active; 'I' for Inactive)
REMARK                            x       y       z     vdW  Elec       q    Type
REMARK                         _______ _______ _______ _____ _____    ______ ____
ROOT
ATOM      1  C1  UNL     1     -39.943   8.043 -14.181  0.00  0.00    +0.000 A 
ATOM      2  C2  UNL     1     -39.660   9.280 -14.772  0.00  0.00    +0.000 A 
ATOM      3  C3  UNL     1     -38.506   9.456 -15.530  0.00  0.00    +0.000 A 
ATOM      4  C4  UNL     1     -37.600   8.408 -15.720  0.00  0.00    +0.000 A 
ATOM      5  C5  UNL     1     -37.898   7.178 -15.121  0.00  0.00    +0.000 A 
ATOM      6  C6  UNL     1     -39.046   6.969 -14.357  0.00  0.00    +0.000 A 
ATOM      7  C7  UNL     1     -39.021   5.609 -13.909  0.00  0.00    +0.000 A 
ATOM      8  N1  UNL     1     -37.204   5.991 -15.137  0.00  0.00    +0.000 N 
ATOM      9  C8  UNL     1     -37.859   5.024 -14.412  0.00  0.00    +0.000 A 
ATOM     10  C9  UNL     1     -37.514   3.690 -14.166  0.00  0.00    +0.000 A 
ATOM     11  C10 UNL     1     -38.385   2.930 -13.381  0.00  0.00    +0.000 A 
ATOM     12  C11 UNL     1     -39.555   3.483 -12.864  0.00  0.00    +0.000 A 
ATOM     13  C12 UNL     1     -39.884   4.820 -13.119  0.00  0.00    +0.000 A 
ATOM     14  H5  UNL     1     -36.328   5.850 -15.617  0.00  0.00    +0.000 HD
ENDROOT
TORSDOF 0
ENDMDL
MODEL 3
REMARK VINA RESULT:    -4.884     15.511     17.433
REMARK INTER + INTRA:          -4.884
REMARK INTER:                  -4.884
REMARK INTRA:                   0.000
REMARK UNBOUND:                 0.000
REMARK  Name = /home/anacleto/Desktop/manuscript_Mpro/naturecomm/supplementary_file_S2/6-chemical-library/molecular_docking/3D_ligand_structure/1464.pdb
REMARK  0 active torsions:
REMARK  status: ('A' for Active; 'I' for Inactive)
REMARK                            x       y       z     vdW  Elec       q    Type
REMARK                         _______ _______ _______ _____ _____    ______ ____
ROOT
ATOM      1  C1  UNL     1     -36.826  10.682 -31.869  0.00  0.00    +0.000 A 
ATOM      2  C2  UNL     1     -35.739  10.623 -32.749  0.00  0.00    +0.000 A 
ATOM      3  C3  UNL     1     -34.735  11.587 -32.702  0.00  0.00    +0.000 A 
ATOM      4  C4  UNL     1     -34.785  12.636 -31.779  0.00  0.00    +0.000 A 
ATOM      5  C5  UNL     1     -35.880  12.680 -30.906  0.00  0.00    +0.000 A 
ATOM      6  C6  UNL     1     -36.901  11.730 -30.928  0.00  0.00    +0.000 A 
ATOM      7  C7  UNL     1     -37.841  12.088 -29.909  0.00  0.00    +0.000 A 
ATOM      8  N1  UNL     1     -36.188  13.579 -29.913  0.00  0.00    +0.000 N 
ATOM      9  C8  UNL     1     -37.368  13.246 -29.293  0.00  0.00    +0.000 A 
ATOM     10  C9  UNL     1     -38.047  13.877 -28.243  0.00  0.00    +0.000 A 
ATOM     11  C10 UNL     1     -39.246  13.305 -27.810  0.00  0.00    +0.000 A 
ATOM     12  C11 UNL     1     -39.746  12.147 -28.405  0.00  0.00    +0.000 A 
ATOM     13  C12 UNL     1     -39.054  11.530 -29.453  0.00  0.00    +0.000 A 
ATOM     14  H5  UNL     1     -35.622  14.378 -29.672  0.00  0.00    +0.000 HD
ENDROOT
TORSDOF 0
ENDMDL
MODEL 4
REMARK VINA RESULT:    -4.794     29.383     31.436
REMARK INTER + INTRA:          -4.794
REMARK INTER:                  -4.794
REMARK INTRA:                   0.000
REMARK UNBOUND:                 0.000
REMARK  Name = /home/anacleto/Desktop/manuscript_Mpro/naturecomm/supplementary_file_S2/6-chemical-library/molecular_docking/3D_ligand_structure/1464.pdb
REMARK  0 active torsions:
REMARK  status: ('A' for Active; 'I' for Inactive)
REMARK                            x       y       z     vdW  Elec       q    Type
REMARK                         _______ _______ _______ _____ _____    ______ ____
ROOT
ATOM      1  C1  UNL     1     -17.352   9.027 -39.796  0.00  0.00    +0.000 A 
ATOM      2  C2  UNL     1     -16.408  10.059 -39.852  0.00  0.00    +0.000 A 
ATOM      3  C3  UNL     1     -16.613  11.247 -39.156  0.00  0.00    +0.000 A 
ATOM      4  C4  UNL     1     -17.763  11.443 -38.386  0.00  0.00    +0.000 A 
ATOM      5  C5  UNL     1     -18.698  10.400 -38.341  0.00  0.00    +0.000 A 
ATOM      6  C6  UNL     1     -18.521   9.198 -39.026  0.00  0.00    +0.000 A 
ATOM      7  C7  UNL     1     -19.663   8.377 -38.753  0.00  0.00    +0.000 A 
ATOM      8  N1  UNL     1     -19.898  10.313 -37.678  0.00  0.00    +0.000 N 
ATOM      9  C8  UNL     1     -20.504   9.101 -37.908  0.00  0.00    +0.000 A 
ATOM     10  C9  UNL     1     -21.722   8.595 -37.438  0.00  0.00    +0.000 A 
ATOM     11  C10 UNL     1     -22.090   7.309 -37.844  0.00  0.00    +0.000 A 
ATOM     12  C11 UNL     1     -21.271   6.560 -38.687  0.00  0.00    +0.000 A 
ATOM     13  C12 UNL     1     -20.057   7.082 -39.148  0.00  0.00    +0.000 A 
ATOM     14  H5  UNL     1     -20.285  11.043 -37.099  0.00  0.00    +0.000 HD
ENDROOT
TORSDOF 0
ENDMDL
MODEL 5
REMARK VINA RESULT:    -4.769     16.923     19.127
REMARK INTER + INTRA:          -4.769
REMARK INTER:                  -4.769
REMARK INTRA:                   0.000
REMARK UNBOUND:                 0.000
REMARK  Name = /home/anacleto/Desktop/manuscript_Mpro/naturecomm/supplementary_file_S2/6-chemical-library/molecular_docking/3D_ligand_structure/1464.pdb
REMARK  0 active torsions:
REMARK  status: ('A' for Active; 'I' for Inactive)
REMARK                            x       y       z     vdW  Elec       q    Type
REMARK                         _______ _______ _______ _____ _____    ______ ____
ROOT
ATOM      1  C1  UNL     1     -34.161  11.303 -33.417  0.00  0.00    +0.000 A 
ATOM      2  C2  UNL     1     -33.004  11.691 -34.105  0.00  0.00    +0.000 A 
ATOM      3  C3  UNL     1     -32.320  12.848 -33.745  0.00  0.00    +0.000 A 
ATOM      4  C4  UNL     1     -32.766  13.653 -32.693  0.00  0.00    +0.000 A 
ATOM      5  C5  UNL     1     -33.925  13.251 -32.016  0.00  0.00    +0.000 A 
ATOM      6  C6  UNL     1     -34.633  12.097 -32.352  0.00  0.00    +0.000 A 
ATOM      7  C7  UNL     1     -35.749  12.003 -31.458  0.00  0.00    +0.000 A 
ATOM      8  N1  UNL     1     -34.584  13.835 -30.961  0.00  0.00    +0.000 N 
ATOM      9  C8  UNL     1     -35.691  13.102 -30.602  0.00  0.00    +0.000 A 
ATOM     10  C9  UNL     1     -36.636  13.328 -29.594  0.00  0.00    +0.000 A 
ATOM     11  C10 UNL     1     -37.672  12.400 -29.458  0.00  0.00    +0.000 A 
ATOM     12  C11 UNL     1     -37.758  11.291 -30.297  0.00  0.00    +0.000 A 
ATOM     13  C12 UNL     1     -36.804  11.081 -31.300  0.00  0.00    +0.000 A 
ATOM     14  H5  UNL     1     -34.294  14.689 -30.509  0.00  0.00    +0.000 HD
ENDROOT
TORSDOF 0
ENDMDL
MODEL 6
REMARK VINA RESULT:    -4.768     16.855     18.918
REMARK INTER + INTRA:          -4.768
REMARK INTER:                  -4.768
REMARK INTRA:                   0.000
REMARK UNBOUND:                 0.000
REMARK  Name = /home/anacleto/Desktop/manuscript_Mpro/naturecomm/supplementary_file_S2/6-chemical-library/molecular_docking/3D_ligand_structure/1464.pdb
REMARK  0 active torsions:
REMARK  status: ('A' for Active; 'I' for Inactive)
REMARK                            x       y       z     vdW  Elec       q    Type
REMARK                         _______ _______ _______ _____ _____    ______ ____
ROOT
ATOM      1  C1  UNL     1     -36.896  11.116 -31.243  0.00  0.00    +0.000 A 
ATOM      2  C2  UNL     1     -37.841  11.333 -30.233  0.00  0.00    +0.000 A 
ATOM      3  C3  UNL     1     -37.732  12.431 -29.385  0.00  0.00    +0.000 A 
ATOM      4  C4  UNL     1     -36.681  13.343 -29.516  0.00  0.00    +0.000 A 
ATOM      5  C5  UNL     1     -35.744  13.110 -30.531  0.00  0.00    +0.000 A 
ATOM      6  C6  UNL     1     -35.825  12.020 -31.397  0.00  0.00    +0.000 A 
ATOM      7  C7  UNL     1     -34.713  12.102 -32.295  0.00  0.00    +0.000 A 
ATOM      8  N1  UNL     1     -34.627  13.826 -30.889  0.00  0.00    +0.000 N 
ATOM      9  C8  UNL     1     -33.983  13.240 -31.953  0.00  0.00    +0.000 A 
ATOM     10  C9  UNL     1     -32.821  13.628 -32.631  0.00  0.00    +0.000 A 
ATOM     11  C10 UNL     1     -32.392  12.826 -33.692  0.00  0.00    +0.000 A 
ATOM     12  C11 UNL     1     -33.099  11.683 -34.060  0.00  0.00    +0.000 A 
ATOM     13  C12 UNL     1     -34.259  11.310 -33.371  0.00  0.00    +0.000 A 
ATOM     14  H5  UNL     1     -34.319  14.670 -30.430  0.00  0.00    +0.000 HD
ENDROOT
TORSDOF 0
ENDMDL
MODEL 7
REMARK VINA RESULT:    -4.747     29.434     31.284
REMARK INTER + INTRA:          -4.747
REMARK INTER:                  -4.747
REMARK INTRA:                   0.000
REMARK UNBOUND:                 0.000
REMARK  Name = /home/anacleto/Desktop/manuscript_Mpro/naturecomm/supplementary_file_S2/6-chemical-library/molecular_docking/3D_ligand_structure/1464.pdb
REMARK  0 active torsions:
REMARK  status: ('A' for Active; 'I' for Inactive)
REMARK                            x       y       z     vdW  Elec       q    Type
REMARK                         _______ _______ _______ _____ _____    ______ ____
ROOT
ATOM      1  C1  UNL     1     -20.141   6.993 -39.319  0.00  0.00    +0.000 A 
ATOM      2  C2  UNL     1     -21.344   6.469 -38.832  0.00  0.00    +0.000 A 
ATOM      3  C3  UNL     1     -22.101   7.177 -37.902  0.00  0.00    +0.000 A 
ATOM      4  C4  UNL     1     -21.682   8.424 -37.430  0.00  0.00    +0.000 A 
ATOM      5  C5  UNL     1     -20.475   8.933 -37.927  0.00  0.00    +0.000 A 
ATOM      6  C6  UNL     1     -19.695   8.249 -38.859  0.00  0.00    +0.000 A 
ATOM      7  C7  UNL     1     -18.547   9.061 -39.135  0.00  0.00    +0.000 A 
ATOM      8  N1  UNL     1     -19.828  10.113 -37.648  0.00  0.00    +0.000 N 
ATOM      9  C8  UNL     1     -18.659  10.217 -38.364  0.00  0.00    +0.000 A 
ATOM     10  C9  UNL     1     -17.701  11.238 -38.386  0.00  0.00    +0.000 A 
ATOM     11  C10 UNL     1     -16.595  11.071 -39.224  0.00  0.00    +0.000 A 
ATOM     12  C11 UNL     1     -16.454   9.927 -40.008  0.00  0.00    +0.000 A 
ATOM     13  C12 UNL     1     -17.421   8.916 -39.972  0.00  0.00    +0.000 A 
ATOM     14  H5  UNL     1     -20.165  10.810 -37.001  0.00  0.00    +0.000 HD
ENDROOT
TORSDOF 0
ENDMDL
MODEL 8
REMARK VINA RESULT:    -4.707     26.997     28.656
REMARK INTER + INTRA:          -4.707
REMARK INTER:                  -4.707
REMARK INTRA:                   0.000
REMARK UNBOUND:                 0.000
REMARK  Name = /home/anacleto/Desktop/manuscript_Mpro/naturecomm/supplementary_file_S2/6-chemical-library/molecular_docking/3D_ligand_structure/1464.pdb
REMARK  0 active torsions:
REMARK  status: ('A' for Active; 'I' for Inactive)
REMARK                            x       y       z     vdW  Elec       q    Type
REMARK                         _______ _______ _______ _____ _____    ______ ____
ROOT
ATOM      1  C1  UNL     1     -23.769   5.296 -37.904  0.00  0.00    +0.000 A 
ATOM      2  C2  UNL     1     -22.758   6.192 -38.269  0.00  0.00    +0.000 A 
ATOM      3  C3  UNL     1     -22.608   6.590 -39.595  0.00  0.00    +0.000 A 
ATOM      4  C4  UNL     1     -23.459   6.107 -40.594  0.00  0.00    +0.000 A 
ATOM      5  C5  UNL     1     -24.465   5.211 -40.210  0.00  0.00    +0.000 A 
ATOM      6  C6  UNL     1     -24.641   4.793 -38.891  0.00  0.00    +0.000 A 
ATOM      7  C7  UNL     1     -25.751   3.888 -38.873  0.00  0.00    +0.000 A 
ATOM      8  N1  UNL     1     -25.429   4.585 -40.963  0.00  0.00    +0.000 N 
ATOM      9  C8  UNL     1     -26.222   3.779 -40.181  0.00  0.00    +0.000 A 
ATOM     10  C9  UNL     1     -27.309   2.968 -40.530  0.00  0.00    +0.000 A 
ATOM     11  C10 UNL     1     -27.934   2.248 -39.508  0.00  0.00    +0.000 A 
ATOM     12  C11 UNL     1     -27.488   2.336 -38.190  0.00  0.00    +0.000 A 
ATOM     13  C12 UNL     1     -26.399   3.151 -37.860  0.00  0.00    +0.000 A 
ATOM     14  H5  UNL     1     -25.540   4.701 -41.959  0.00  0.00    +0.000 HD
ENDROOT
TORSDOF 0
ENDMDL
MODEL 9
REMARK VINA RESULT:    -4.704     27.024     28.471
REMARK INTER + INTRA:          -4.704
REMARK INTER:                  -4.704
REMARK INTRA:                   0.000
REMARK UNBOUND:                 0.000
REMARK  Name = /home/anacleto/Desktop/manuscript_Mpro/naturecomm/supplementary_file_S2/6-chemical-library/molecular_docking/3D_ligand_structure/1464.pdb
REMARK  0 active torsions:
REMARK  status: ('A' for Active; 'I' for Inactive)
REMARK                            x       y       z     vdW  Elec       q    Type
REMARK                         _______ _______ _______ _____ _____    ______ ____
ROOT
ATOM      1  C1  UNL     1     -26.406   3.141 -37.901  0.00  0.00    +0.000 A 
ATOM      2  C2  UNL     1     -27.496   2.331 -38.241  0.00  0.00    +0.000 A 
ATOM      3  C3  UNL     1     -27.935   2.251 -39.560  0.00  0.00    +0.000 A 
ATOM      4  C4  UNL     1     -27.303   2.974 -40.576  0.00  0.00    +0.000 A 
ATOM      5  C5  UNL     1     -26.215   3.779 -40.217  0.00  0.00    +0.000 A 
ATOM      6  C6  UNL     1     -25.751   3.881 -38.906  0.00  0.00    +0.000 A 
ATOM      7  C7  UNL     1     -24.638   4.783 -38.914  0.00  0.00    +0.000 A 
ATOM      8  N1  UNL     1     -25.416   4.587 -40.991  0.00  0.00    +0.000 N 
ATOM      9  C8  UNL     1     -24.453   5.207 -40.230  0.00  0.00    +0.000 A 
ATOM     10  C9  UNL     1     -23.443   6.102 -40.603  0.00  0.00    +0.000 A 
ATOM     11  C10 UNL     1     -22.596   6.578 -39.599  0.00  0.00    +0.000 A 
ATOM     12  C11 UNL     1     -22.753   6.173 -38.275  0.00  0.00    +0.000 A 
ATOM     13  C12 UNL     1     -23.769   5.278 -37.919  0.00  0.00    +0.000 A 
ATOM     14  H5  UNL     1     -25.523   4.710 -41.987  0.00  0.00    +0.000 HD
ENDROOT
TORSDOF 0
ENDMDL
