MODEL 1
REMARK VINA RESULT:    -4.585      0.000      0.000
REMARK INTER + INTRA:          -4.660
REMARK INTER:                  -4.650
REMARK INTRA:                  -0.010
REMARK UNBOUND:                 0.192
REMARK  Name = /home/anacleto/Desktop/manuscript_Mpro/naturecomm/supplementary_file_S2/6-chemical-library/molecular_docking/3D_ligand_structure/1049.pdb
REMARK  1 active torsions:
REMARK  status: ('A' for Active; 'I' for Inactive)
REMARK    1  A    between atoms: C3_4  and  N2_7
REMARK                            x       y       z     vdW  Elec       q    Type
REMARK                         _______ _______ _______ _____ _____    ______ ____
ROOT
ATOM      1  N2  UNL     1     -20.270   7.573 -38.592  0.00  0.00    +0.000 N 
ATOM      2  C5  UNL     1     -20.397   8.696 -37.834  0.00  0.00    +0.000 C 
ATOM      3  O2  UNL     1     -21.379   9.087 -37.226  0.00  0.00    +0.000 OA
ATOM      4  N3  UNL     1     -19.209   9.390 -37.875  0.00  0.00    +0.000 N 
ATOM      5  C6  UNL     1     -18.299   8.824 -38.828  0.00  0.00    +0.000 C 
ATOM      6  C7  UNL     1     -19.078   7.597 -39.263  0.00  0.00    +0.000 C 
ATOM      7  O3  UNL     1     -18.684   6.778 -40.084  0.00  0.00    +0.000 OA
ATOM      8  H7  UNL     1     -19.154  10.324 -37.487  0.00  0.00    +0.000 HD
ENDROOT
BRANCH   1  12
ATOM      9  N1  UNL     1     -23.629   6.754 -39.373  0.00  0.00    +0.000 N 
ATOM     10  C1  UNL     1     -23.477   5.748 -38.365  0.00  0.00    +0.000 C 
ATOM     11  C2  UNL     1     -22.122   6.048 -37.745  0.00  0.00    +0.000 C 
ATOM     12  C3  UNL     1     -21.333   6.646 -38.912  0.00  0.00    +0.000 C 
ATOM     13  C4  UNL     1     -22.423   7.326 -39.735  0.00  0.00    +0.000 C 
ATOM     14  O1  UNL     1     -22.282   8.183 -40.590  0.00  0.00    +0.000 OA
ATOM     15  H1  UNL     1     -24.494   7.024 -39.827  0.00  0.00    +0.000 HD
ENDBRANCH   1  12
TORSDOF 1
ENDMDL
MODEL 2
REMARK VINA RESULT:    -4.490     16.203     17.363
REMARK INTER + INTRA:          -4.560
REMARK INTER:                  -4.550
REMARK INTRA:                  -0.010
REMARK UNBOUND:                 0.192
REMARK  Name = /home/anacleto/Desktop/manuscript_Mpro/naturecomm/supplementary_file_S2/6-chemical-library/molecular_docking/3D_ligand_structure/1049.pdb
REMARK  1 active torsions:
REMARK  status: ('A' for Active; 'I' for Inactive)
REMARK    1  A    between atoms: C3_4  and  N2_7
REMARK                            x       y       z     vdW  Elec       q    Type
REMARK                         _______ _______ _______ _____ _____    ______ ____
ROOT
ATOM      1  N2  UNL     1     -25.218  -4.858 -27.566  0.00  0.00    +0.000 N 
ATOM      2  C5  UNL     1     -24.585  -4.052 -26.670  0.00  0.00    +0.000 C 
ATOM      3  O2  UNL     1     -25.022  -3.601 -25.624  0.00  0.00    +0.000 OA
ATOM      4  N3  UNL     1     -23.324  -3.772 -27.145  0.00  0.00    +0.000 N 
ATOM      5  C6  UNL     1     -23.146  -4.249 -28.485  0.00  0.00    +0.000 C 
ATOM      6  C7  UNL     1     -24.459  -4.980 -28.698  0.00  0.00    +0.000 C 
ATOM      7  O3  UNL     1     -24.768  -5.571 -29.725  0.00  0.00    +0.000 OA
ATOM      8  H7  UNL     1     -22.754  -3.073 -26.685  0.00  0.00    +0.000 HD
ENDROOT
BRANCH   1  12
ATOM      9  N1  UNL     1     -28.665  -4.291 -26.965  0.00  0.00    +0.000 N 
ATOM     10  C1  UNL     1     -28.593  -5.500 -26.201  0.00  0.00    +0.000 C 
ATOM     11  C2  UNL     1     -27.109  -5.829 -26.169  0.00  0.00    +0.000 C 
ATOM     12  C3  UNL     1     -26.602  -5.269 -27.500  0.00  0.00    +0.000 C 
ATOM     13  C4  UNL     1     -27.537  -4.088 -27.740  0.00  0.00    +0.000 C 
ATOM     14  O1  UNL     1     -27.368  -3.148 -28.499  0.00  0.00    +0.000 OA
ATOM     15  H1  UNL     1     -29.446  -3.646 -26.998  0.00  0.00    +0.000 HD
ENDBRANCH   1  12
TORSDOF 1
ENDMDL
MODEL 3
REMARK VINA RESULT:    -4.458     16.285     17.345
REMARK INTER + INTRA:          -4.527
REMARK INTER:                  -4.663
REMARK INTRA:                   0.136
REMARK UNBOUND:                 0.192
REMARK  Name = /home/anacleto/Desktop/manuscript_Mpro/naturecomm/supplementary_file_S2/6-chemical-library/molecular_docking/3D_ligand_structure/1049.pdb
REMARK  1 active torsions:
REMARK  status: ('A' for Active; 'I' for Inactive)
REMARK    1  A    between atoms: C3_4  and  N2_7
REMARK                            x       y       z     vdW  Elec       q    Type
REMARK                         _______ _______ _______ _____ _____    ______ ____
ROOT
ATOM      1  N2  UNL     1     -25.261  -4.708 -27.966  0.00  0.00    +0.000 N 
ATOM      2  C5  UNL     1     -24.435  -5.086 -28.980  0.00  0.00    +0.000 C 
ATOM      3  O2  UNL     1     -24.688  -5.811 -29.927  0.00  0.00    +0.000 OA
ATOM      4  N3  UNL     1     -23.192  -4.533 -28.763  0.00  0.00    +0.000 N 
ATOM      5  C6  UNL     1     -23.110  -3.907 -27.476  0.00  0.00    +0.000 C 
ATOM      6  C7  UNL     1     -24.544  -4.054 -27.001  0.00  0.00    +0.000 C 
ATOM      7  O3  UNL     1     -24.966  -3.649 -25.926  0.00  0.00    +0.000 OA
ATOM      8  H7  UNL     1     -22.406  -4.815 -29.335  0.00  0.00    +0.000 HD
ENDROOT
BRANCH   1  12
ATOM      9  N1  UNL     1     -28.639  -4.311 -26.969  0.00  0.00    +0.000 N 
ATOM     10  C1  UNL     1     -28.429  -5.531 -26.247  0.00  0.00    +0.000 C 
ATOM     11  C2  UNL     1     -26.938  -5.792 -26.390  0.00  0.00    +0.000 C 
ATOM     12  C3  UNL     1     -26.610  -5.184 -27.755  0.00  0.00    +0.000 C 
ATOM     13  C4  UNL     1     -27.616  -4.042 -27.860  0.00  0.00    +0.000 C 
ATOM     14  O1  UNL     1     -27.575  -3.081 -28.610  0.00  0.00    +0.000 OA
ATOM     15  H1  UNL     1     -29.446  -3.702 -26.898  0.00  0.00    +0.000 HD
ENDBRANCH   1  12
TORSDOF 1
ENDMDL
MODEL 4
REMARK VINA RESULT:    -4.412     16.723     18.377
REMARK INTER + INTRA:          -4.478
REMARK INTER:                  -4.465
REMARK INTRA:                  -0.013
REMARK UNBOUND:                 0.192
REMARK  Name = /home/anacleto/Desktop/manuscript_Mpro/naturecomm/supplementary_file_S2/6-chemical-library/molecular_docking/3D_ligand_structure/1049.pdb
REMARK  1 active torsions:
REMARK  status: ('A' for Active; 'I' for Inactive)
REMARK    1  A    between atoms: C3_4  and  N2_7
REMARK                            x       y       z     vdW  Elec       q    Type
REMARK                         _______ _______ _______ _____ _____    ______ ____
ROOT
ATOM      1  N2  UNL     1     -26.921  -5.368 -27.073  0.00  0.00    +0.000 N 
ATOM      2  C5  UNL     1     -27.919  -4.496 -27.384  0.00  0.00    +0.000 C 
ATOM      3  O2  UNL     1     -27.861  -3.512 -28.102  0.00  0.00    +0.000 OA
ATOM      4  N3  UNL     1     -29.060  -4.877 -26.715  0.00  0.00    +0.000 N 
ATOM      5  C6  UNL     1     -28.797  -5.932 -25.780  0.00  0.00    +0.000 C 
ATOM      6  C7  UNL     1     -27.338  -6.219 -26.085  0.00  0.00    +0.000 C 
ATOM      7  O3  UNL     1     -26.665  -7.074 -25.524  0.00  0.00    +0.000 OA
ATOM      8  H7  UNL     1     -29.869  -4.270 -26.709  0.00  0.00    +0.000 HD
ENDROOT
BRANCH   1  12
ATOM      9  N1  UNL     1     -23.975  -3.512 -27.734  0.00  0.00    +0.000 N 
ATOM     10  C1  UNL     1     -23.924  -4.279 -28.943  0.00  0.00    +0.000 C 
ATOM     11  C2  UNL     1     -25.241  -5.038 -28.954  0.00  0.00    +0.000 C 
ATOM     12  C3  UNL     1     -25.536  -5.241 -27.466  0.00  0.00    +0.000 C 
ATOM     13  C4  UNL     1     -24.897  -4.010 -26.831  0.00  0.00    +0.000 C 
ATOM     14  O1  UNL     1     -25.108  -3.552 -25.721  0.00  0.00    +0.000 OA
ATOM     15  H1  UNL     1     -23.396  -2.712 -27.504  0.00  0.00    +0.000 HD
ENDBRANCH   1  12
TORSDOF 1
ENDMDL
MODEL 5
REMARK VINA RESULT:    -4.306     16.838     18.170
REMARK INTER + INTRA:          -4.366
REMARK INTER:                  -4.495
REMARK INTRA:                   0.130
REMARK UNBOUND:                 0.192
REMARK  Name = /home/anacleto/Desktop/manuscript_Mpro/naturecomm/supplementary_file_S2/6-chemical-library/molecular_docking/3D_ligand_structure/1049.pdb
REMARK  1 active torsions:
REMARK  status: ('A' for Active; 'I' for Inactive)
REMARK    1  A    between atoms: C3_4  and  N2_7
REMARK                            x       y       z     vdW  Elec       q    Type
REMARK                         _______ _______ _______ _____ _____    ______ ____
ROOT
ATOM      1  N2  UNL     1     -24.888  -3.942 -26.220  0.00  0.00    +0.000 N 
ATOM      2  C5  UNL     1     -25.942  -3.736 -27.056  0.00  0.00    +0.000 C 
ATOM      3  O2  UNL     1     -27.132  -3.783 -26.792  0.00  0.00    +0.000 OA
ATOM      4  N3  UNL     1     -25.458  -3.485 -28.320  0.00  0.00    +0.000 N 
ATOM      5  C6  UNL     1     -24.042  -3.700 -28.396  0.00  0.00    +0.000 C 
ATOM      6  C7  UNL     1     -23.726  -3.994 -26.941  0.00  0.00    +0.000 C 
ATOM      7  O3  UNL     1     -22.607  -4.239 -26.508  0.00  0.00    +0.000 OA
ATOM      8  H7  UNL     1     -26.093  -3.447 -29.107  0.00  0.00    +0.000 HD
ENDROOT
BRANCH   1  12
ATOM      9  N1  UNL     1     -23.802  -3.980 -22.846  0.00  0.00    +0.000 N 
ATOM     10  C1  UNL     1     -23.925  -5.402 -22.963  0.00  0.00    +0.000 C 
ATOM     11  C2  UNL     1     -24.212  -5.628 -24.439  0.00  0.00    +0.000 C 
ATOM     12  C3  UNL     1     -24.975  -4.363 -24.840  0.00  0.00    +0.000 C 
ATOM     13  C4  UNL     1     -24.384  -3.310 -23.907  0.00  0.00    +0.000 C 
ATOM     14  O1  UNL     1     -24.438  -2.098 -24.026  0.00  0.00    +0.000 OA
ATOM     15  H1  UNL     1     -23.381  -3.474 -22.075  0.00  0.00    +0.000 HD
ENDBRANCH   1  12
TORSDOF 1
ENDMDL
MODEL 6
REMARK VINA RESULT:    -4.284     16.932     17.927
REMARK INTER + INTRA:          -4.342
REMARK INTER:                  -4.325
REMARK INTRA:                  -0.017
REMARK UNBOUND:                 0.192
REMARK  Name = /home/anacleto/Desktop/manuscript_Mpro/naturecomm/supplementary_file_S2/6-chemical-library/molecular_docking/3D_ligand_structure/1049.pdb
REMARK  1 active torsions:
REMARK  status: ('A' for Active; 'I' for Inactive)
REMARK    1  A    between atoms: C3_4  and  N2_7
REMARK                            x       y       z     vdW  Elec       q    Type
REMARK                         _______ _______ _______ _____ _____    ______ ____
ROOT
ATOM      1  N2  UNL     1     -24.905  -4.292 -26.592  0.00  0.00    +0.000 N 
ATOM      2  C5  UNL     1     -24.332  -5.391 -27.154  0.00  0.00    +0.000 C 
ATOM      3  O2  UNL     1     -24.724  -6.038 -28.111  0.00  0.00    +0.000 OA
ATOM      4  N3  UNL     1     -23.202  -5.714 -26.437  0.00  0.00    +0.000 N 
ATOM      5  C6  UNL     1     -23.091  -4.926 -25.244  0.00  0.00    +0.000 C 
ATOM      6  C7  UNL     1     -24.267  -3.982 -25.421  0.00  0.00    +0.000 C 
ATOM      7  O3  UNL     1     -24.576  -3.100 -24.632  0.00  0.00    +0.000 OA
ATOM      8  H7  UNL     1     -22.720  -6.585 -26.617  0.00  0.00    +0.000 HD
ENDROOT
BRANCH   1  12
ATOM      9  N1  UNL     1     -28.284  -4.492 -27.643  0.00  0.00    +0.000 N 
ATOM     10  C1  UNL     1     -27.904  -3.501 -28.604  0.00  0.00    +0.000 C 
ATOM     11  C2  UNL     1     -26.395  -3.397 -28.449  0.00  0.00    +0.000 C 
ATOM     12  C3  UNL     1     -26.176  -3.717 -26.969  0.00  0.00    +0.000 C 
ATOM     13  C4  UNL     1     -27.323  -4.676 -26.665  0.00  0.00    +0.000 C 
ATOM     14  O1  UNL     1     -27.422  -5.440 -25.720  0.00  0.00    +0.000 OA
ATOM     15  H1  UNL     1     -29.161  -4.999 -27.617  0.00  0.00    +0.000 HD
ENDBRANCH   1  12
TORSDOF 1
ENDMDL
MODEL 7
REMARK VINA RESULT:    -4.262     16.527     17.896
REMARK INTER + INTRA:          -4.319
REMARK INTER:                  -4.464
REMARK INTRA:                   0.145
REMARK UNBOUND:                 0.192
REMARK  Name = /home/anacleto/Desktop/manuscript_Mpro/naturecomm/supplementary_file_S2/6-chemical-library/molecular_docking/3D_ligand_structure/1049.pdb
REMARK  1 active torsions:
REMARK  status: ('A' for Active; 'I' for Inactive)
REMARK    1  A    between atoms: C3_4  and  N2_7
REMARK                            x       y       z     vdW  Elec       q    Type
REMARK                         _______ _______ _______ _____ _____    ______ ____
ROOT
ATOM      1  N2  UNL     1     -26.184  -4.478 -27.072  0.00  0.00    +0.000 N 
ATOM      2  C5  UNL     1     -27.471  -4.749 -26.722  0.00  0.00    +0.000 C 
ATOM      3  O2  UNL     1     -27.872  -5.523 -25.869  0.00  0.00    +0.000 OA
ATOM      4  N3  UNL     1     -28.311  -4.013 -27.528  0.00  0.00    +0.000 N 
ATOM      5  C6  UNL     1     -27.591  -3.355 -28.579  0.00  0.00    +0.000 C 
ATOM      6  C7  UNL     1     -26.163  -3.704 -28.201  0.00  0.00    +0.000 C 
ATOM      7  O3  UNL     1     -25.171  -3.344 -28.821  0.00  0.00    +0.000 OA
ATOM      8  H7  UNL     1     -29.308  -4.187 -27.513  0.00  0.00    +0.000 HD
ENDROOT
BRANCH   1  12
ATOM      9  N1  UNL     1     -22.815  -4.561 -25.976  0.00  0.00    +0.000 N 
ATOM     10  C1  UNL     1     -22.705  -5.705 -26.830  0.00  0.00    +0.000 C 
ATOM     11  C2  UNL     1     -24.034  -5.742 -27.569  0.00  0.00    +0.000 C 
ATOM     12  C3  UNL     1     -25.011  -5.144 -26.554  0.00  0.00    +0.000 C 
ATOM     13  C4  UNL     1     -24.127  -4.174 -25.777  0.00  0.00    +0.000 C 
ATOM     14  O1  UNL     1     -24.485  -3.248 -25.068  0.00  0.00    +0.000 OA
ATOM     15  H1  UNL     1     -22.051  -4.080 -25.515  0.00  0.00    +0.000 HD
ENDBRANCH   1  12
TORSDOF 1
ENDMDL
MODEL 8
REMARK VINA RESULT:    -4.219     16.058     17.604
REMARK INTER + INTRA:          -4.273
REMARK INTER:                  -4.261
REMARK INTRA:                  -0.012
REMARK UNBOUND:                 0.192
REMARK  Name = /home/anacleto/Desktop/manuscript_Mpro/naturecomm/supplementary_file_S2/6-chemical-library/molecular_docking/3D_ligand_structure/1049.pdb
REMARK  1 active torsions:
REMARK  status: ('A' for Active; 'I' for Inactive)
REMARK    1  A    between atoms: C3_4  and  N2_7
REMARK                            x       y       z     vdW  Elec       q    Type
REMARK                         _______ _______ _______ _____ _____    ______ ____
ROOT
ATOM      1  N2  UNL     1     -25.451  -4.573 -27.468  0.00  0.00    +0.000 N 
ATOM      2  C5  UNL     1     -25.398  -3.594 -28.411  0.00  0.00    +0.000 C 
ATOM      3  O2  UNL     1     -24.430  -3.213 -29.048  0.00  0.00    +0.000 OA
ATOM      4  N3  UNL     1     -26.650  -3.035 -28.536  0.00  0.00    +0.000 N 
ATOM      5  C6  UNL     1     -27.547  -3.519 -27.526  0.00  0.00    +0.000 C 
ATOM      6  C7  UNL     1     -26.672  -4.560 -26.851  0.00  0.00    +0.000 C 
ATOM      7  O3  UNL     1     -27.023  -5.258 -25.909  0.00  0.00    +0.000 OA
ATOM      8  H7  UNL     1     -26.778  -2.196 -29.087  0.00  0.00    +0.000 HD
ENDROOT
BRANCH   1  12
ATOM      9  N1  UNL     1     -22.116  -4.841 -26.296  0.00  0.00    +0.000 N 
ATOM     10  C1  UNL     1     -22.031  -5.952 -27.196  0.00  0.00    +0.000 C 
ATOM     11  C2  UNL     1     -23.341  -5.904 -27.967  0.00  0.00    +0.000 C 
ATOM     12  C3  UNL     1     -24.318  -5.309 -26.951  0.00  0.00    +0.000 C 
ATOM     13  C4  UNL     1     -23.417  -4.409 -26.112  0.00  0.00    +0.000 C 
ATOM     14  O1  UNL     1     -23.755  -3.499 -25.373  0.00  0.00    +0.000 OA
ATOM     15  H1  UNL     1     -21.345  -4.411 -25.797  0.00  0.00    +0.000 HD
ENDBRANCH   1  12
TORSDOF 1
ENDMDL
MODEL 9
REMARK VINA RESULT:    -4.129      6.492      9.056
REMARK INTER + INTRA:          -4.178
REMARK INTER:                  -4.371
REMARK INTRA:                   0.192
REMARK UNBOUND:                 0.192
REMARK  Name = /home/anacleto/Desktop/manuscript_Mpro/naturecomm/supplementary_file_S2/6-chemical-library/molecular_docking/3D_ligand_structure/1049.pdb
REMARK  1 active torsions:
REMARK  status: ('A' for Active; 'I' for Inactive)
REMARK    1  A    between atoms: C3_4  and  N2_7
REMARK                            x       y       z     vdW  Elec       q    Type
REMARK                         _______ _______ _______ _____ _____    ______ ____
ROOT
ATOM      1  N2  UNL     1     -28.553   3.872 -39.455  0.00  0.00    +0.000 N 
ATOM      2  C5  UNL     1     -29.422   3.270 -40.312  0.00  0.00    +0.000 C 
ATOM      3  O2  UNL     1     -29.174   2.461 -41.190  0.00  0.00    +0.000 OA
ATOM      4  N3  UNL     1     -30.689   3.748 -40.062  0.00  0.00    +0.000 N 
ATOM      5  C6  UNL     1     -30.668   4.838 -39.131  0.00  0.00    +0.000 C 
ATOM      6  C7  UNL     1     -29.197   4.858 -38.757  0.00  0.00    +0.000 C 
ATOM      7  O3  UNL     1     -28.692   5.639 -37.961  0.00  0.00    +0.000 OA
ATOM      8  H7  UNL     1     -31.448   3.523 -40.692  0.00  0.00    +0.000 HD
ENDROOT
BRANCH   1  12
ATOM      9  N1  UNL     1     -25.382   3.462 -37.926  0.00  0.00    +0.000 N 
ATOM     10  C1  UNL     1     -24.986   4.555 -38.763  0.00  0.00    +0.000 C 
ATOM     11  C2  UNL     1     -26.287   5.026 -39.394  0.00  0.00    +0.000 C 
ATOM     12  C3  UNL     1     -27.114   3.741 -39.482  0.00  0.00    +0.000 C 
ATOM     13  C4  UNL     1     -26.614   2.943 -38.281  0.00  0.00    +0.000 C 
ATOM     14  O1  UNL     1     -27.156   1.993 -37.742  0.00  0.00    +0.000 OA
ATOM     15  H1  UNL     1     -24.839   3.054 -37.173  0.00  0.00    +0.000 HD
ENDBRANCH   1  12
TORSDOF 1
ENDMDL
