MODEL 1
REMARK VINA RESULT:    -5.389      0.000      0.000
REMARK INTER + INTRA:          -7.229
REMARK INTER:                  -6.761
REMARK INTRA:                  -0.468
REMARK UNBOUND:                -0.580
REMARK  Name = /home/anacleto/Desktop/manuscript_Mpro/naturecomm/supplementary_file_S2/6-chemical-library/molecular_docking/3D_ligand_structure/489.pdb
REMARK  4 active torsions:
REMARK  status: ('A' for Active; 'I' for Inactive)
REMARK    1  A    between atoms: C6_7  and  C7_9
REMARK    2  A    between atoms: C7_9  and  N2_10
REMARK    3  A    between atoms: N2_10  and  S1_11
REMARK    4  A    between atoms: S1_11  and  C8_14
REMARK                            x       y       z     vdW  Elec       q    Type
REMARK                         _______ _______ _______ _____ _____    ______ ____
ROOT
ATOM      1  N2  UNL     1     -23.197   6.627 -39.880  0.00  0.00    +0.000 NA
ATOM      2  H13 UNL     1     -22.397   6.701 -40.507  0.00  0.00    +0.000 HD
ENDROOT
BRANCH   1   3
ATOM      3  S1  UNL     1     -22.851   6.952 -38.261  0.00  0.00    +0.000 S 
ATOM      4  O2  UNL     1     -23.760   7.968 -37.779  0.00  0.00    +0.000 OA
ATOM      5  O3  UNL     1     -22.679   5.681 -37.588  0.00  0.00    +0.000 OA
BRANCH   3   6
ATOM      6  C8  UNL     1     -21.242   7.693 -38.425  0.00  0.00    +0.000 A 
ATOM      7  C9  UNL     1     -20.994   8.937 -37.840  0.00  0.00    +0.000 A 
ATOM      8  C10 UNL     1     -19.739   9.532 -37.985  0.00  0.00    +0.000 A 
ATOM      9  C11 UNL     1     -18.743   8.880 -38.708  0.00  0.00    +0.000 A 
ATOM     10  C12 UNL     1     -18.990   7.623 -39.279  0.00  0.00    +0.000 A 
ATOM     11  C13 UNL     1     -20.242   7.024 -39.137  0.00  0.00    +0.000 A 
ENDBRANCH   3   6
ENDBRANCH   1   3
BRANCH   1  12
ATOM     12  C7  UNL     1     -24.095   5.486 -40.148  0.00  0.00    +0.000 C 
BRANCH  12  19
ATOM     13  C1  UNL     1     -25.549   3.361 -38.706  0.00  0.00    +0.000 C 
ATOM     14  C2  UNL     1     -26.428   2.459 -37.842  0.00  0.00    +0.000 C 
ATOM     15  C3  UNL     1     -27.792   2.239 -38.484  0.00  0.00    +0.000 C 
ATOM     16  C4  UNL     1     -28.438   3.542 -38.962  0.00  0.00    +0.000 C 
ATOM     17  C5  UNL     1     -27.591   4.785 -38.682  0.00  0.00    +0.000 C 
ATOM     18  N1  UNL     1     -26.211   4.601 -39.122  0.00  0.00    +0.000 N 
ATOM     19  C6  UNL     1     -25.548   5.676 -39.715  0.00  0.00    +0.000 C 
ATOM     20  O1  UNL     1     -26.121   6.746 -39.942  0.00  0.00    +0.000 OA
ENDBRANCH  12  19
ENDBRANCH   1  12
TORSDOF 4
ENDMDL
MODEL 2
REMARK VINA RESULT:    -5.388      1.494      7.427
REMARK INTER + INTRA:          -7.228
REMARK INTER:                  -6.846
REMARK INTRA:                  -0.382
REMARK UNBOUND:                -0.580
REMARK  Name = /home/anacleto/Desktop/manuscript_Mpro/naturecomm/supplementary_file_S2/6-chemical-library/molecular_docking/3D_ligand_structure/489.pdb
REMARK  4 active torsions:
REMARK  status: ('A' for Active; 'I' for Inactive)
REMARK    1  A    between atoms: C6_7  and  C7_9
REMARK    2  A    between atoms: C7_9  and  N2_10
REMARK    3  A    between atoms: N2_10  and  S1_11
REMARK    4  A    between atoms: S1_11  and  C8_14
REMARK                            x       y       z     vdW  Elec       q    Type
REMARK                         _______ _______ _______ _____ _____    ______ ____
ROOT
ATOM      1  N2  UNL     1     -23.810   5.695 -37.839  0.00  0.00    +0.000 NA
ATOM      2  H13 UNL     1     -23.985   4.896 -37.230  0.00  0.00    +0.000 HD
ENDROOT
BRANCH   1   3
ATOM      3  S1  UNL     1     -24.796   5.761 -39.208  0.00  0.00    +0.000 S 
ATOM      4  O2  UNL     1     -25.473   7.038 -39.240  0.00  0.00    +0.000 OA
ATOM      5  O3  UNL     1     -24.021   5.265 -40.327  0.00  0.00    +0.000 OA
BRANCH   3   6
ATOM      6  C8  UNL     1     -25.996   4.517 -38.793  0.00  0.00    +0.000 A 
ATOM      7  C9  UNL     1     -25.564   3.248 -38.401  0.00  0.00    +0.000 A 
ATOM      8  C10 UNL     1     -26.504   2.260 -38.096  0.00  0.00    +0.000 A 
ATOM      9  C11 UNL     1     -27.864   2.549 -38.180  0.00  0.00    +0.000 A 
ATOM     10  C12 UNL     1     -28.294   3.830 -38.557  0.00  0.00    +0.000 A 
ATOM     11  C13 UNL     1     -27.359   4.820 -38.863  0.00  0.00    +0.000 A 
ENDBRANCH   3   6
ENDBRANCH   1   3
BRANCH   1  12
ATOM     12  C7  UNL     1     -22.386   6.030 -38.033  0.00  0.00    +0.000 C 
BRANCH  12  19
ATOM     13  C1  UNL     1     -19.893   7.019 -39.264  0.00  0.00    +0.000 C 
ATOM     14  C2  UNL     1     -18.744   7.742 -39.964  0.00  0.00    +0.000 C 
ATOM     15  C3  UNL     1     -18.061   8.729 -39.027  0.00  0.00    +0.000 C 
ATOM     16  C4  UNL     1     -19.057   9.621 -38.281  0.00  0.00    +0.000 C 
ATOM     17  C5  UNL     1     -20.518   9.347 -38.642  0.00  0.00    +0.000 C 
ATOM     18  N1  UNL     1     -20.824   7.920 -38.579  0.00  0.00    +0.000 N 
ATOM     19  C6  UNL     1     -22.060   7.522 -38.070  0.00  0.00    +0.000 C 
ATOM     20  O1  UNL     1     -22.863   8.337 -37.606  0.00  0.00    +0.000 OA
ENDBRANCH  12  19
ENDBRANCH   1  12
TORSDOF 4
ENDMDL
MODEL 3
REMARK VINA RESULT:    -5.194      2.487      7.371
REMARK INTER + INTRA:          -6.988
REMARK INTER:                  -6.551
REMARK INTRA:                  -0.438
REMARK UNBOUND:                -0.580
REMARK  Name = /home/anacleto/Desktop/manuscript_Mpro/naturecomm/supplementary_file_S2/6-chemical-library/molecular_docking/3D_ligand_structure/489.pdb
REMARK  4 active torsions:
REMARK  status: ('A' for Active; 'I' for Inactive)
REMARK    1  A    between atoms: C6_7  and  C7_9
REMARK    2  A    between atoms: C7_9  and  N2_10
REMARK    3  A    between atoms: N2_10  and  S1_11
REMARK    4  A    between atoms: S1_11  and  C8_14
REMARK                            x       y       z     vdW  Elec       q    Type
REMARK                         _______ _______ _______ _____ _____    ______ ____
ROOT
ATOM      1  N2  UNL     1     -25.608   4.138 -37.923  0.00  0.00    +0.000 NA
ATOM      2  H13 UNL     1     -25.363   4.002 -36.942  0.00  0.00    +0.000 HD
ENDROOT
BRANCH   1   3
ATOM      3  S1  UNL     1     -26.460   2.856 -38.615  0.00  0.00    +0.000 S 
ATOM      4  O2  UNL     1     -25.812   2.470 -39.848  0.00  0.00    +0.000 OA
ATOM      5  O3  UNL     1     -26.751   1.907 -37.560  0.00  0.00    +0.000 OA
BRANCH   3   6
ATOM      6  C8  UNL     1     -27.981   3.677 -39.032  0.00  0.00    +0.000 A 
ATOM      7  C9  UNL     1     -28.747   3.205 -40.100  0.00  0.00    +0.000 A 
ATOM      8  C10 UNL     1     -29.932   3.861 -40.445  0.00  0.00    +0.000 A 
ATOM      9  C11 UNL     1     -30.343   4.975 -39.718  0.00  0.00    +0.000 A 
ATOM     10  C12 UNL     1     -29.581   5.435 -38.635  0.00  0.00    +0.000 A 
ATOM     11  C13 UNL     1     -28.396   4.784 -38.286  0.00  0.00    +0.000 A 
ENDBRANCH   3   6
ENDBRANCH   1   3
BRANCH   1  12
ATOM     12  C7  UNL     1     -24.551   4.753 -38.750  0.00  0.00    +0.000 C 
BRANCH  12  19
ATOM     13  C1  UNL     1     -22.107   6.319 -38.221  0.00  0.00    +0.000 C 
ATOM     14  C2  UNL     1     -20.941   7.300 -38.119  0.00  0.00    +0.000 C 
ATOM     15  C3  UNL     1     -21.246   8.419 -37.132  0.00  0.00    +0.000 C 
ATOM     16  C4  UNL     1     -22.627   9.043 -37.355  0.00  0.00    +0.000 C 
ATOM     17  C5  UNL     1     -23.398   8.425 -38.524  0.00  0.00    +0.000 C 
ATOM     18  N1  UNL     1     -23.401   6.967 -38.449  0.00  0.00    +0.000 N 
ATOM     19  C6  UNL     1     -24.564   6.281 -38.802  0.00  0.00    +0.000 C 
ATOM     20  O1  UNL     1     -25.603   6.877 -39.100  0.00  0.00    +0.000 OA
ENDBRANCH  12  19
ENDBRANCH   1  12
TORSDOF 4
ENDMDL
MODEL 4
REMARK VINA RESULT:    -4.954      1.798      7.103
REMARK INTER + INTRA:          -6.692
REMARK INTER:                  -6.192
REMARK INTRA:                  -0.500
REMARK UNBOUND:                -0.580
REMARK  Name = /home/anacleto/Desktop/manuscript_Mpro/naturecomm/supplementary_file_S2/6-chemical-library/molecular_docking/3D_ligand_structure/489.pdb
REMARK  4 active torsions:
REMARK  status: ('A' for Active; 'I' for Inactive)
REMARK    1  A    between atoms: C6_7  and  C7_9
REMARK    2  A    between atoms: C7_9  and  N2_10
REMARK    3  A    between atoms: N2_10  and  S1_11
REMARK    4  A    between atoms: S1_11  and  C8_14
REMARK                            x       y       z     vdW  Elec       q    Type
REMARK                         _______ _______ _______ _____ _____    ______ ____
ROOT
ATOM      1  N2  UNL     1     -25.683   7.005 -38.971  0.00  0.00    +0.000 NA
ATOM      2  H13 UNL     1     -25.410   6.509 -38.122  0.00  0.00    +0.000 HD
ENDROOT
BRANCH   1   3
ATOM      3  S1  UNL     1     -26.781   6.172 -39.945  0.00  0.00    +0.000 S 
ATOM      4  O2  UNL     1     -28.096   6.747 -39.773  0.00  0.00    +0.000 OA
ATOM      5  O3  UNL     1     -26.169   6.009 -41.249  0.00  0.00    +0.000 OA
BRANCH   3   6
ATOM      6  C8  UNL     1     -26.770   4.584 -39.146  0.00  0.00    +0.000 A 
ATOM      7  C9  UNL     1     -27.982   3.964 -38.831  0.00  0.00    +0.000 A 
ATOM      8  C10 UNL     1     -27.978   2.726 -38.183  0.00  0.00    +0.000 A 
ATOM      9  C11 UNL     1     -26.768   2.117 -37.862  0.00  0.00    +0.000 A 
ATOM     10  C12 UNL     1     -25.554   2.733 -38.196  0.00  0.00    +0.000 A 
ATOM     11  C13 UNL     1     -25.551   3.970 -38.843  0.00  0.00    +0.000 A 
ENDBRANCH   3   6
ENDBRANCH   1   3
BRANCH   1  12
ATOM     12  C7  UNL     1     -24.585   7.708 -39.662  0.00  0.00    +0.000 C 
BRANCH  12  19
ATOM     13  C1  UNL     1     -22.653   9.210 -38.014  0.00  0.00    +0.000 C 
ATOM     14  C2  UNL     1     -21.565   9.752 -37.089  0.00  0.00    +0.000 C 
ATOM     15  C3  UNL     1     -20.219   9.816 -37.799  0.00  0.00    +0.000 C 
ATOM     16  C4  UNL     1     -19.881   8.521 -38.541  0.00  0.00    +0.000 C 
ATOM     17  C5  UNL     1     -20.951   7.436 -38.403  0.00  0.00    +0.000 C 
ATOM     18  N1  UNL     1     -22.283   7.962 -38.687  0.00  0.00    +0.000 N 
ATOM     19  C6  UNL     1     -23.183   7.163 -39.393  0.00  0.00    +0.000 C 
ATOM     20  O1  UNL     1     -22.855   6.061 -39.844  0.00  0.00    +0.000 OA
ENDBRANCH  12  19
ENDBRANCH   1  12
TORSDOF 4
ENDMDL
MODEL 5
REMARK VINA RESULT:    -4.920      2.066      2.759
REMARK INTER + INTRA:          -6.650
REMARK INTER:                  -6.109
REMARK INTRA:                  -0.541
REMARK UNBOUND:                -0.580
REMARK  Name = /home/anacleto/Desktop/manuscript_Mpro/naturecomm/supplementary_file_S2/6-chemical-library/molecular_docking/3D_ligand_structure/489.pdb
REMARK  4 active torsions:
REMARK  status: ('A' for Active; 'I' for Inactive)
REMARK    1  A    between atoms: C6_7  and  C7_9
REMARK    2  A    between atoms: C7_9  and  N2_10
REMARK    3  A    between atoms: N2_10  and  S1_11
REMARK    4  A    between atoms: S1_11  and  C8_14
REMARK                            x       y       z     vdW  Elec       q    Type
REMARK                         _______ _______ _______ _____ _____    ______ ____
ROOT
ATOM      1  N2  UNL     1     -25.940   7.895 -38.481  0.00  0.00    +0.000 NA
ATOM      2  H13 UNL     1     -26.548   7.899 -37.663  0.00  0.00    +0.000 HD
ENDROOT
BRANCH   1   3
ATOM      3  S1  UNL     1     -25.145   9.355 -38.769  0.00  0.00    +0.000 S 
ATOM      4  O2  UNL     1     -25.008   9.545 -40.196  0.00  0.00    +0.000 OA
ATOM      5  O3  UNL     1     -25.745  10.354 -37.907  0.00  0.00    +0.000 OA
BRANCH   3   6
ATOM      6  C8  UNL     1     -23.538   8.976 -38.112  0.00  0.00    +0.000 A 
ATOM      7  C9  UNL     1     -22.898   9.899 -37.282  0.00  0.00    +0.000 A 
ATOM      8  C10 UNL     1     -21.625   9.614 -36.781  0.00  0.00    +0.000 A 
ATOM      9  C11 UNL     1     -21.006   8.410 -37.108  0.00  0.00    +0.000 A 
ATOM     10  C12 UNL     1     -21.659   7.478 -37.927  0.00  0.00    +0.000 A 
ATOM     11  C13 UNL     1     -22.931   7.757 -38.430  0.00  0.00    +0.000 A 
ENDBRANCH   3   6
ENDBRANCH   1   3
BRANCH   1  12
ATOM     12  C7  UNL     1     -26.486   7.195 -39.660  0.00  0.00    +0.000 C 
BRANCH  12  19
ATOM     13  C1  UNL     1     -27.527   4.602 -38.711  0.00  0.00    +0.000 C 
ATOM     14  C2  UNL     1     -27.972   3.166 -38.445  0.00  0.00    +0.000 C 
ATOM     15  C3  UNL     1     -26.837   2.336 -37.859  0.00  0.00    +0.000 C 
ATOM     16  C4  UNL     1     -25.526   2.497 -38.634  0.00  0.00    +0.000 C 
ATOM     17  C5  UNL     1     -25.635   3.438 -39.835  0.00  0.00    +0.000 C 
ATOM     18  N1  UNL     1     -26.276   4.698 -39.468  0.00  0.00    +0.000 N 
ATOM     19  C6  UNL     1     -25.792   5.883 -40.026  0.00  0.00    +0.000 C 
ATOM     20  O1  UNL     1     -24.797   5.897 -40.755  0.00  0.00    +0.000 OA
ENDBRANCH  12  19
ENDBRANCH   1  12
TORSDOF 4
ENDMDL
MODEL 6
REMARK VINA RESULT:    -4.883      1.486      2.466
REMARK INTER + INTRA:          -6.605
REMARK INTER:                  -6.263
REMARK INTRA:                  -0.342
REMARK UNBOUND:                -0.580
REMARK  Name = /home/anacleto/Desktop/manuscript_Mpro/naturecomm/supplementary_file_S2/6-chemical-library/molecular_docking/3D_ligand_structure/489.pdb
REMARK  4 active torsions:
REMARK  status: ('A' for Active; 'I' for Inactive)
REMARK    1  A    between atoms: C6_7  and  C7_9
REMARK    2  A    between atoms: C7_9  and  N2_10
REMARK    3  A    between atoms: N2_10  and  S1_11
REMARK    4  A    between atoms: S1_11  and  C8_14
REMARK                            x       y       z     vdW  Elec       q    Type
REMARK                         _______ _______ _______ _____ _____    ______ ____
ROOT
ATOM      1  N2  UNL     1     -24.057   7.739 -37.905  0.00  0.00    +0.000 NA
ATOM      2  H13 UNL     1     -24.427   7.796 -36.957  0.00  0.00    +0.000 HD
ENDROOT
BRANCH   1   3
ATOM      3  S1  UNL     1     -23.627   9.225 -38.580  0.00  0.00    +0.000 S 
ATOM      4  O2  UNL     1     -24.035   9.249 -39.967  0.00  0.00    +0.000 OA
ATOM      5  O3  UNL     1     -24.012  10.257 -37.639  0.00  0.00    +0.000 OA
BRANCH   3   6
ATOM      6  C8  UNL     1     -21.855   9.092 -38.534  0.00  0.00    +0.000 A 
ATOM      7  C9  UNL     1     -21.252   7.852 -38.757  0.00  0.00    +0.000 A 
ATOM      8  C10 UNL     1     -19.860   7.739 -38.700  0.00  0.00    +0.000 A 
ATOM      9  C11 UNL     1     -19.085   8.863 -38.427  0.00  0.00    +0.000 A 
ATOM     10  C12 UNL     1     -19.693  10.110 -38.222  0.00  0.00    +0.000 A 
ATOM     11  C13 UNL     1     -21.083  10.229 -38.277  0.00  0.00    +0.000 A 
ENDBRANCH   3   6
ENDBRANCH   1   3
BRANCH   1  12
ATOM     12  C7  UNL     1     -24.757   6.788 -38.791  0.00  0.00    +0.000 C 
BRANCH  12  19
ATOM     13  C1  UNL     1     -26.782   4.763 -39.504  0.00  0.00    +0.000 C 
ATOM     14  C2  UNL     1     -27.625   3.554 -39.903  0.00  0.00    +0.000 C 
ATOM     15  C3  UNL     1     -27.900   2.653 -38.706  0.00  0.00    +0.000 C 
ATOM     16  C4  UNL     1     -26.638   2.349 -37.894  0.00  0.00    +0.000 C 
ATOM     17  C5  UNL     1     -25.373   2.996 -38.460  0.00  0.00    +0.000 C 
ATOM     18  N1  UNL     1     -25.579   4.414 -38.742  0.00  0.00    +0.000 N 
ATOM     19  C6  UNL     1     -24.545   5.309 -38.467  0.00  0.00    +0.000 C 
ATOM     20  O1  UNL     1     -23.498   4.943 -37.925  0.00  0.00    +0.000 OA
ENDBRANCH  12  19
ENDBRANCH   1  12
TORSDOF 4
ENDMDL
MODEL 7
REMARK VINA RESULT:    -4.859     14.824     16.787
REMARK INTER + INTRA:          -6.575
REMARK INTER:                  -5.773
REMARK INTRA:                  -0.802
REMARK UNBOUND:                -0.580
REMARK  Name = /home/anacleto/Desktop/manuscript_Mpro/naturecomm/supplementary_file_S2/6-chemical-library/molecular_docking/3D_ligand_structure/489.pdb
REMARK  4 active torsions:
REMARK  status: ('A' for Active; 'I' for Inactive)
REMARK    1  A    between atoms: C6_7  and  C7_9
REMARK    2  A    between atoms: C7_9  and  N2_10
REMARK    3  A    between atoms: N2_10  and  S1_11
REMARK    4  A    between atoms: S1_11  and  C8_14
REMARK                            x       y       z     vdW  Elec       q    Type
REMARK                         _______ _______ _______ _____ _____    ______ ____
ROOT
ATOM      1  N2  UNL     1     -25.753  -5.210 -28.104  0.00  0.00    +0.000 NA
ATOM      2  H13 UNL     1     -26.291  -5.827 -28.712  0.00  0.00    +0.000 HD
ENDROOT
BRANCH   1   3
ATOM      3  S1  UNL     1     -26.624  -4.571 -26.808  0.00  0.00    +0.000 S 
ATOM      4  O2  UNL     1     -27.021  -3.218 -27.126  0.00  0.00    +0.000 OA
ATOM      5  O3  UNL     1     -27.574  -5.579 -26.383  0.00  0.00    +0.000 OA
BRANCH   3   6
ATOM      6  C8  UNL     1     -25.344  -4.489 -25.577  0.00  0.00    +0.000 A 
ATOM      7  C9  UNL     1     -24.834  -5.670 -25.034  0.00  0.00    +0.000 A 
ATOM      8  C10 UNL     1     -23.844  -5.609 -24.050  0.00  0.00    +0.000 A 
ATOM      9  C11 UNL     1     -23.368  -4.372 -23.622  0.00  0.00    +0.000 A 
ATOM     10  C12 UNL     1     -23.869  -3.188 -24.182  0.00  0.00    +0.000 A 
ATOM     11  C13 UNL     1     -24.859  -3.243 -25.165  0.00  0.00    +0.000 A 
ENDBRANCH   3   6
ENDBRANCH   1   3
BRANCH   1  12
ATOM     12  C7  UNL     1     -24.839  -4.287 -28.805  0.00  0.00    +0.000 C 
BRANCH  12  19
ATOM     13  C1  UNL     1     -22.222  -4.464 -27.453  0.00  0.00    +0.000 C 
ATOM     14  C2  UNL     1     -20.839  -4.780 -26.887  0.00  0.00    +0.000 C 
ATOM     15  C3  UNL     1     -19.737  -4.315 -27.830  0.00  0.00    +0.000 C 
ATOM     16  C4  UNL     1     -19.979  -4.746 -29.279  0.00  0.00    +0.000 C 
ATOM     17  C5  UNL     1     -21.261  -5.560 -29.471  0.00  0.00    +0.000 C 
ATOM     18  N1  UNL     1     -22.405  -4.911 -28.837  0.00  0.00    +0.000 N 
ATOM     19  C6  UNL     1     -23.639  -4.943 -29.488  0.00  0.00    +0.000 C 
ATOM     20  O1  UNL     1     -23.766  -5.437 -30.612  0.00  0.00    +0.000 OA
ENDBRANCH  12  19
ENDBRANCH   1  12
TORSDOF 4
ENDMDL
MODEL 8
REMARK VINA RESULT:    -4.744     15.232     16.772
REMARK INTER + INTRA:          -6.433
REMARK INTER:                  -5.853
REMARK INTRA:                  -0.580
REMARK UNBOUND:                -0.580
REMARK  Name = /home/anacleto/Desktop/manuscript_Mpro/naturecomm/supplementary_file_S2/6-chemical-library/molecular_docking/3D_ligand_structure/489.pdb
REMARK  4 active torsions:
REMARK  status: ('A' for Active; 'I' for Inactive)
REMARK    1  A    between atoms: C6_7  and  C7_9
REMARK    2  A    between atoms: C7_9  and  N2_10
REMARK    3  A    between atoms: N2_10  and  S1_11
REMARK    4  A    between atoms: S1_11  and  C8_14
REMARK                            x       y       z     vdW  Elec       q    Type
REMARK                         _______ _______ _______ _____ _____    ______ ____
ROOT
ATOM      1  N2  UNL     1     -24.398  -5.706 -28.013  0.00  0.00    +0.000 NA
ATOM      2  H13 UNL     1     -23.761  -6.243 -27.424  0.00  0.00    +0.000 HD
ENDROOT
BRANCH   1   3
ATOM      3  S1  UNL     1     -23.636  -4.691 -29.124  0.00  0.00    +0.000 S 
ATOM      4  O2  UNL     1     -23.761  -5.261 -30.447  0.00  0.00    +0.000 OA
ATOM      5  O3  UNL     1     -24.040  -3.333 -28.822  0.00  0.00    +0.000 OA
BRANCH   3   6
ATOM      6  C8  UNL     1     -21.943  -4.873 -28.610  0.00  0.00    +0.000 A 
ATOM      7  C9  UNL     1     -20.985  -5.298 -29.533  0.00  0.00    +0.000 A 
ATOM      8  C10 UNL     1     -19.659  -5.464 -29.127  0.00  0.00    +0.000 A 
ATOM      9  C11 UNL     1     -19.300  -5.200 -27.807  0.00  0.00    +0.000 A 
ATOM     10  C12 UNL     1     -20.261  -4.756 -26.887  0.00  0.00    +0.000 A 
ATOM     11  C13 UNL     1     -21.589  -4.589 -27.287  0.00  0.00    +0.000 A 
ENDBRANCH   3   6
ENDBRANCH   1   3
BRANCH   1  12
ATOM     12  C7  UNL     1     -25.577  -5.157 -27.315  0.00  0.00    +0.000 C 
BRANCH  12  19
ATOM     13  C1  UNL     1     -24.481  -3.420 -25.196  0.00  0.00    +0.000 C 
ATOM     14  C2  UNL     1     -24.114  -2.610 -23.955  0.00  0.00    +0.000 C 
ATOM     15  C3  UNL     1     -23.301  -3.443 -22.972  0.00  0.00    +0.000 C 
ATOM     16  C4  UNL     1     -23.919  -4.819 -22.713  0.00  0.00    +0.000 C 
ATOM     17  C5  UNL     1     -25.222  -5.062 -23.477  0.00  0.00    +0.000 C 
ATOM     18  N1  UNL     1     -25.082  -4.722 -24.891  0.00  0.00    +0.000 N 
ATOM     19  C6  UNL     1     -25.704  -5.534 -25.840  0.00  0.00    +0.000 C 
ATOM     20  O1  UNL     1     -26.300  -6.566 -25.519  0.00  0.00    +0.000 OA
ENDBRANCH  12  19
ENDBRANCH   1  12
TORSDOF 4
ENDMDL
MODEL 9
REMARK VINA RESULT:    -4.742      2.366      7.166
REMARK INTER + INTRA:          -6.431
REMARK INTER:                  -5.873
REMARK INTRA:                  -0.558
REMARK UNBOUND:                -0.580
REMARK  Name = /home/anacleto/Desktop/manuscript_Mpro/naturecomm/supplementary_file_S2/6-chemical-library/molecular_docking/3D_ligand_structure/489.pdb
REMARK  4 active torsions:
REMARK  status: ('A' for Active; 'I' for Inactive)
REMARK    1  A    between atoms: C6_7  and  C7_9
REMARK    2  A    between atoms: C7_9  and  N2_10
REMARK    3  A    between atoms: N2_10  and  S1_11
REMARK    4  A    between atoms: S1_11  and  C8_14
REMARK                            x       y       z     vdW  Elec       q    Type
REMARK                         _______ _______ _______ _____ _____    ______ ____
ROOT
ATOM      1  N2  UNL     1     -27.141   7.106 -38.812  0.00  0.00    +0.000 NA
ATOM      2  H13 UNL     1     -26.996   6.886 -37.827  0.00  0.00    +0.000 HD
ENDROOT
BRANCH   1   3
ATOM      3  S1  UNL     1     -28.637   6.620 -39.424  0.00  0.00    +0.000 S 
ATOM      4  O2  UNL     1     -29.665   6.921 -38.451  0.00  0.00    +0.000 OA
ATOM      5  O3  UNL     1     -28.713   7.073 -40.798  0.00  0.00    +0.000 OA
BRANCH   3   6
ATOM      6  C8  UNL     1     -28.410   4.857 -39.451  0.00  0.00    +0.000 A 
ATOM      7  C9  UNL     1     -28.152   4.178 -38.259  0.00  0.00    +0.000 A 
ATOM      8  C10 UNL     1     -27.951   2.795 -38.279  0.00  0.00    +0.000 A 
ATOM      9  C11 UNL     1     -28.016   2.104 -39.486  0.00  0.00    +0.000 A 
ATOM     10  C12 UNL     1     -28.294   2.787 -40.679  0.00  0.00    +0.000 A 
ATOM     11  C13 UNL     1     -28.495   4.168 -40.665  0.00  0.00    +0.000 A 
ENDBRANCH   3   6
ENDBRANCH   1   3
BRANCH   1  12
ATOM     12  C7  UNL     1     -25.968   6.883 -39.679  0.00  0.00    +0.000 C 
BRANCH  12  19
ATOM     13  C1  UNL     1     -23.654   8.172 -38.378  0.00  0.00    +0.000 C 
ATOM     14  C2  UNL     1     -22.456   8.629 -37.548  0.00  0.00    +0.000 C 
ATOM     15  C3  UNL     1     -21.163   8.004 -38.055  0.00  0.00    +0.000 C 
ATOM     16  C4  UNL     1     -21.284   6.495 -38.278  0.00  0.00    +0.000 C 
ATOM     17  C5  UNL     1     -22.664   5.932 -37.933  0.00  0.00    +0.000 C 
ATOM     18  N1  UNL     1     -23.730   6.719 -38.548  0.00  0.00    +0.000 N 
ATOM     19  C6  UNL     1     -24.843   6.052 -39.063  0.00  0.00    +0.000 C 
ATOM     20  O1  UNL     1     -24.910   4.820 -39.079  0.00  0.00    +0.000 OA
ENDBRANCH  12  19
ENDBRANCH   1  12
TORSDOF 4
ENDMDL
