MODEL 1
REMARK VINA RESULT:    -4.421      0.000      0.000
REMARK INTER + INTRA:          -4.760
REMARK INTER:                  -4.690
REMARK INTRA:                  -0.070
REMARK UNBOUND:                -0.080
REMARK  Name = /home/anacleto/Desktop/manuscript_Mpro/naturecomm/supplementary_file_S2/6-chemical-library/molecular_docking/3D_ligand_structure/1337.pdb
REMARK  1 active torsions:
REMARK  status: ('A' for Active; 'I' for Inactive)
REMARK    1  A    between atoms: C2_5  and  C3_6
REMARK                            x       y       z     vdW  Elec       q    Type
REMARK                         _______ _______ _______ _____ _____    ______ ____
ROOT
ATOM      1  N1  UNL     1     -23.528   5.257 -37.566  0.00  0.00    +0.000 N 
ATOM      2  C1  UNL     1     -22.499   6.019 -38.026  0.00  0.00    +0.000 A 
ATOM      3  N2  UNL     1     -22.686   6.283 -39.296  0.00  0.00    +0.000 NA
ATOM      4  N3  UNL     1     -23.863   5.679 -39.672  0.00  0.00    +0.000 NA
ATOM      5  C2  UNL     1     -24.377   5.056 -38.625  0.00  0.00    +0.000 A 
ATOM      6  H1  UNL     1     -23.642   4.909 -36.627  0.00  0.00    +0.000 HD
ENDROOT
BRANCH   5   7
ATOM      7  C3  UNL     1     -25.624   4.287 -38.586  0.00  0.00    +0.000 A 
ATOM      8  C4  UNL     1     -25.585   2.944 -38.181  0.00  0.00    +0.000 A 
ATOM      9  C5  UNL     1     -26.749   2.172 -38.129  0.00  0.00    +0.000 A 
ATOM     10  C6  UNL     1     -27.972   2.735 -38.482  0.00  0.00    +0.000 A 
ATOM     11  C7  UNL     1     -28.031   4.067 -38.886  0.00  0.00    +0.000 A 
ATOM     12  C8  UNL     1     -26.866   4.839 -38.938  0.00  0.00    +0.000 A 
ENDBRANCH   5   7
TORSDOF 1
ENDMDL
MODEL 2
REMARK VINA RESULT:    -4.236      4.553      6.125
REMARK INTER + INTRA:          -4.564
REMARK INTER:                  -4.499
REMARK INTRA:                  -0.066
REMARK UNBOUND:                -0.080
REMARK  Name = /home/anacleto/Desktop/manuscript_Mpro/naturecomm/supplementary_file_S2/6-chemical-library/molecular_docking/3D_ligand_structure/1337.pdb
REMARK  1 active torsions:
REMARK  status: ('A' for Active; 'I' for Inactive)
REMARK    1  A    between atoms: C2_5  and  C3_6
REMARK                            x       y       z     vdW  Elec       q    Type
REMARK                         _______ _______ _______ _____ _____    ______ ____
ROOT
ATOM      1  N1  UNL     1     -29.686   0.429 -40.683  0.00  0.00    +0.000 N 
ATOM      2  C1  UNL     1     -30.924   0.519 -41.238  0.00  0.00    +0.000 A 
ATOM      3  N2  UNL     1     -31.242   1.781 -41.393  0.00  0.00    +0.000 NA
ATOM      4  N3  UNL     1     -30.186   2.530 -40.927  0.00  0.00    +0.000 NA
ATOM      5  C2  UNL     1     -29.240   1.714 -40.496  0.00  0.00    +0.000 A 
ATOM      6  H1  UNL     1     -29.193  -0.420 -40.454  0.00  0.00    +0.000 HD
ENDROOT
BRANCH   5   7
ATOM      7  C3  UNL     1     -27.948   2.094 -39.921  0.00  0.00    +0.000 A 
ATOM      8  C4  UNL     1     -27.820   2.183 -38.527  0.00  0.00    +0.000 A 
ATOM      9  C5  UNL     1     -26.607   2.542 -37.934  0.00  0.00    +0.000 A 
ATOM     10  C6  UNL     1     -25.499   2.818 -38.732  0.00  0.00    +0.000 A 
ATOM     11  C7  UNL     1     -25.605   2.735 -40.118  0.00  0.00    +0.000 A 
ATOM     12  C8  UNL     1     -26.821   2.375 -40.711  0.00  0.00    +0.000 A 
ENDBRANCH   5   7
TORSDOF 1
ENDMDL
MODEL 3
REMARK VINA RESULT:    -4.198      3.812      5.205
REMARK INTER + INTRA:          -4.523
REMARK INTER:                  -4.453
REMARK INTRA:                  -0.071
REMARK UNBOUND:                -0.080
REMARK  Name = /home/anacleto/Desktop/manuscript_Mpro/naturecomm/supplementary_file_S2/6-chemical-library/molecular_docking/3D_ligand_structure/1337.pdb
REMARK  1 active torsions:
REMARK  status: ('A' for Active; 'I' for Inactive)
REMARK    1  A    between atoms: C2_5  and  C3_6
REMARK                            x       y       z     vdW  Elec       q    Type
REMARK                         _______ _______ _______ _____ _____    ______ ____
ROOT
ATOM      1  N1  UNL     1     -30.534   4.541 -38.329  0.00  0.00    +0.000 N 
ATOM      2  C1  UNL     1     -31.582   5.034 -39.042  0.00  0.00    +0.000 A 
ATOM      3  N2  UNL     1     -31.220   5.202 -40.290  0.00  0.00    +0.000 NA
ATOM      4  N3  UNL     1     -29.905   4.811 -40.393  0.00  0.00    +0.000 NA
ATOM      5  C2  UNL     1     -29.485   4.409 -39.205  0.00  0.00    +0.000 A 
ATOM      6  H1  UNL     1     -30.531   4.318 -37.347  0.00  0.00    +0.000 HD
ENDROOT
BRANCH   5   7
ATOM      7  C3  UNL     1     -28.149   3.911 -38.869  0.00  0.00    +0.000 A 
ATOM      8  C4  UNL     1     -28.024   2.661 -38.242  0.00  0.00    +0.000 A 
ATOM      9  C5  UNL     1     -26.770   2.147 -37.903  0.00  0.00    +0.000 A 
ATOM     10  C6  UNL     1     -25.619   2.877 -38.188  0.00  0.00    +0.000 A 
ATOM     11  C7  UNL     1     -25.723   4.119 -38.810  0.00  0.00    +0.000 A 
ATOM     12  C8  UNL     1     -26.979   4.634 -39.150  0.00  0.00    +0.000 A 
ENDBRANCH   5   7
TORSDOF 1
ENDMDL
MODEL 4
REMARK VINA RESULT:    -4.189     15.449     16.542
REMARK INTER + INTRA:          -4.514
REMARK INTER:                  -4.435
REMARK INTRA:                  -0.079
REMARK UNBOUND:                -0.080
REMARK  Name = /home/anacleto/Desktop/manuscript_Mpro/naturecomm/supplementary_file_S2/6-chemical-library/molecular_docking/3D_ligand_structure/1337.pdb
REMARK  1 active torsions:
REMARK  status: ('A' for Active; 'I' for Inactive)
REMARK    1  A    between atoms: C2_5  and  C3_6
REMARK                            x       y       z     vdW  Elec       q    Type
REMARK                         _______ _______ _______ _____ _____    ______ ____
ROOT
ATOM      1  N1  UNL     1     -37.205  13.446 -28.825  0.00  0.00    +0.000 N 
ATOM      2  C1  UNL     1     -38.304  13.585 -28.035  0.00  0.00    +0.000 A 
ATOM      3  N2  UNL     1     -39.257  12.799 -28.471  0.00  0.00    +0.000 NA
ATOM      4  N3  UNL     1     -38.768  12.133 -29.572  0.00  0.00    +0.000 NA
ATOM      5  C2  UNL     1     -37.524  12.523 -29.789  0.00  0.00    +0.000 A 
ATOM      6  H1  UNL     1     -36.328  13.930 -28.720  0.00  0.00    +0.000 HD
ENDROOT
BRANCH   5   7
ATOM      7  C3  UNL     1     -36.635  12.063 -30.859  0.00  0.00    +0.000 A 
ATOM      8  C4  UNL     1     -36.966  10.898 -31.568  0.00  0.00    +0.000 A 
ATOM      9  C5  UNL     1     -36.147  10.422 -32.596  0.00  0.00    +0.000 A 
ATOM     10  C6  UNL     1     -34.982  11.107 -32.930  0.00  0.00    +0.000 A 
ATOM     11  C7  UNL     1     -34.637  12.265 -32.238  0.00  0.00    +0.000 A 
ATOM     12  C8  UNL     1     -35.457  12.742 -31.209  0.00  0.00    +0.000 A 
ENDBRANCH   5   7
TORSDOF 1
ENDMDL
MODEL 5
REMARK VINA RESULT:    -4.178      6.234      7.813
REMARK INTER + INTRA:          -4.503
REMARK INTER:                  -4.435
REMARK INTRA:                  -0.068
REMARK UNBOUND:                -0.080
REMARK  Name = /home/anacleto/Desktop/manuscript_Mpro/naturecomm/supplementary_file_S2/6-chemical-library/molecular_docking/3D_ligand_structure/1337.pdb
REMARK  1 active torsions:
REMARK  status: ('A' for Active; 'I' for Inactive)
REMARK    1  A    between atoms: C2_5  and  C3_6
REMARK                            x       y       z     vdW  Elec       q    Type
REMARK                         _______ _______ _______ _____ _____    ______ ____
ROOT
ATOM      1  N1  UNL     1     -17.693  10.558 -37.948  0.00  0.00    +0.000 N 
ATOM      2  C1  UNL     1     -17.214  11.778 -38.312  0.00  0.00    +0.000 A 
ATOM      3  N2  UNL     1     -18.149  12.443 -38.944  0.00  0.00    +0.000 NA
ATOM      4  N3  UNL     1     -19.263  11.638 -38.993  0.00  0.00    +0.000 NA
ATOM      5  C2  UNL     1     -18.991  10.494 -38.390  0.00  0.00    +0.000 A 
ATOM      6  H1  UNL     1     -17.189   9.841 -37.450  0.00  0.00    +0.000 HD
ENDROOT
BRANCH   5   7
ATOM      7  C3  UNL     1     -19.897   9.356 -38.216  0.00  0.00    +0.000 A 
ATOM      8  C4  UNL     1     -21.045   9.512 -37.423  0.00  0.00    +0.000 A 
ATOM      9  C5  UNL     1     -21.937   8.454 -37.229  0.00  0.00    +0.000 A 
ATOM     10  C6  UNL     1     -21.694   7.222 -37.829  0.00  0.00    +0.000 A 
ATOM     11  C7  UNL     1     -20.561   7.047 -38.620  0.00  0.00    +0.000 A 
ATOM     12  C8  UNL     1     -19.668   8.107 -38.814  0.00  0.00    +0.000 A 
ENDBRANCH   5   7
TORSDOF 1
ENDMDL
MODEL 6
REMARK VINA RESULT:    -4.145      7.715      9.218
REMARK INTER + INTRA:          -4.467
REMARK INTER:                  -4.399
REMARK INTRA:                  -0.068
REMARK UNBOUND:                -0.080
REMARK  Name = /home/anacleto/Desktop/manuscript_Mpro/naturecomm/supplementary_file_S2/6-chemical-library/molecular_docking/3D_ligand_structure/1337.pdb
REMARK  1 active torsions:
REMARK  status: ('A' for Active; 'I' for Inactive)
REMARK    1  A    between atoms: C2_5  and  C3_6
REMARK                            x       y       z     vdW  Elec       q    Type
REMARK                         _______ _______ _______ _____ _____    ______ ____
ROOT
ATOM      1  N1  UNL     1     -15.500   9.072 -38.958  0.00  0.00    +0.000 N 
ATOM      2  C1  UNL     1     -14.485   9.691 -39.619  0.00  0.00    +0.000 A 
ATOM      3  N2  UNL     1     -14.981  10.574 -40.450  0.00  0.00    +0.000 NA
ATOM      4  N3  UNL     1     -16.351  10.529 -40.328  0.00  0.00    +0.000 NA
ATOM      5  C2  UNL     1     -16.669   9.619 -39.424  0.00  0.00    +0.000 A 
ATOM      6  H1  UNL     1     -15.408   8.350 -38.260  0.00  0.00    +0.000 HD
ENDROOT
BRANCH   5   7
ATOM      7  C3  UNL     1     -18.019   9.251 -38.987  0.00  0.00    +0.000 A 
ATOM      8  C4  UNL     1     -18.827  10.221 -38.376  0.00  0.00    +0.000 A 
ATOM      9  C5  UNL     1     -20.120   9.915 -37.943  0.00  0.00    +0.000 A 
ATOM     10  C6  UNL     1     -20.625   8.629 -38.118  0.00  0.00    +0.000 A 
ATOM     11  C7  UNL     1     -19.838   7.653 -38.724  0.00  0.00    +0.000 A 
ATOM     12  C8  UNL     1     -18.543   7.960 -39.157  0.00  0.00    +0.000 A 
ENDBRANCH   5   7
TORSDOF 1
ENDMDL
MODEL 7
REMARK VINA RESULT:    -4.105      6.105      7.513
REMARK INTER + INTRA:          -4.425
REMARK INTER:                  -4.359
REMARK INTRA:                  -0.066
REMARK UNBOUND:                -0.080
REMARK  Name = /home/anacleto/Desktop/manuscript_Mpro/naturecomm/supplementary_file_S2/6-chemical-library/molecular_docking/3D_ligand_structure/1337.pdb
REMARK  1 active torsions:
REMARK  status: ('A' for Active; 'I' for Inactive)
REMARK    1  A    between atoms: C2_5  and  C3_6
REMARK                            x       y       z     vdW  Elec       q    Type
REMARK                         _______ _______ _______ _____ _____    ______ ____
ROOT
ATOM      1  N1  UNL     1     -17.005   8.883 -38.873  0.00  0.00    +0.000 N 
ATOM      2  C1  UNL     1     -16.190   9.675 -39.619  0.00  0.00    +0.000 A 
ATOM      3  N2  UNL     1     -16.915  10.422 -40.414  0.00  0.00    +0.000 NA
ATOM      4  N3  UNL     1     -18.234  10.108 -40.182  0.00  0.00    +0.000 NA
ATOM      5  C2  UNL     1     -18.293   9.175 -39.247  0.00  0.00    +0.000 A 
ATOM      6  H1  UNL     1     -16.717   8.210 -38.180  0.00  0.00    +0.000 HD
ENDROOT
BRANCH   5   7
ATOM      7  C3  UNL     1     -19.504   8.557 -38.700  0.00  0.00    +0.000 A 
ATOM      8  C4  UNL     1     -19.908   7.303 -39.184  0.00  0.00    +0.000 A 
ATOM      9  C5  UNL     1     -21.055   6.675 -38.692  0.00  0.00    +0.000 A 
ATOM     10  C6  UNL     1     -21.816   7.294 -37.704  0.00  0.00    +0.000 A 
ATOM     11  C7  UNL     1     -21.431   8.538 -37.211  0.00  0.00    +0.000 A 
ATOM     12  C8  UNL     1     -20.282   9.167 -37.704  0.00  0.00    +0.000 A 
ENDBRANCH   5   7
TORSDOF 1
ENDMDL
MODEL 8
REMARK VINA RESULT:    -4.073      4.306      5.804
REMARK INTER + INTRA:          -4.392
REMARK INTER:                  -4.318
REMARK INTRA:                  -0.074
REMARK UNBOUND:                -0.080
REMARK  Name = /home/anacleto/Desktop/manuscript_Mpro/naturecomm/supplementary_file_S2/6-chemical-library/molecular_docking/3D_ligand_structure/1337.pdb
REMARK  1 active torsions:
REMARK  status: ('A' for Active; 'I' for Inactive)
REMARK    1  A    between atoms: C2_5  and  C3_6
REMARK                            x       y       z     vdW  Elec       q    Type
REMARK                         _______ _______ _______ _____ _____    ______ ____
ROOT
ATOM      1  N1  UNL     1     -19.786   9.797 -37.800  0.00  0.00    +0.000 N 
ATOM      2  C1  UNL     1     -18.508  10.094 -38.158  0.00  0.00    +0.000 A 
ATOM      3  N2  UNL     1     -18.035   9.141 -38.922  0.00  0.00    +0.000 NA
ATOM      4  N3  UNL     1     -19.028   8.200 -39.066  0.00  0.00    +0.000 NA
ATOM      5  C2  UNL     1     -20.091   8.594 -38.387  0.00  0.00    +0.000 A 
ATOM      6  H1  UNL     1     -20.390  10.353 -37.217  0.00  0.00    +0.000 HD
ENDROOT
BRANCH   5   7
ATOM      7  C3  UNL     1     -21.370   7.888 -38.272  0.00  0.00    +0.000 A 
ATOM      8  C4  UNL     1     -22.564   8.624 -38.328  0.00  0.00    +0.000 A 
ATOM      9  C5  UNL     1     -23.806   7.993 -38.222  0.00  0.00    +0.000 A 
ATOM     10  C6  UNL     1     -23.872   6.611 -38.060  0.00  0.00    +0.000 A 
ATOM     11  C7  UNL     1     -22.699   5.863 -38.003  0.00  0.00    +0.000 A 
ATOM     12  C8  UNL     1     -21.455   6.496 -38.109  0.00  0.00    +0.000 A 
ENDBRANCH   5   7
TORSDOF 1
ENDMDL
MODEL 9
REMARK VINA RESULT:    -3.975      4.750      6.338
REMARK INTER + INTRA:          -4.288
REMARK INTER:                  -4.208
REMARK INTRA:                  -0.080
REMARK UNBOUND:                -0.080
REMARK  Name = /home/anacleto/Desktop/manuscript_Mpro/naturecomm/supplementary_file_S2/6-chemical-library/molecular_docking/3D_ligand_structure/1337.pdb
REMARK  1 active torsions:
REMARK  status: ('A' for Active; 'I' for Inactive)
REMARK    1  A    between atoms: C2_5  and  C3_6
REMARK                            x       y       z     vdW  Elec       q    Type
REMARK                         _______ _______ _______ _____ _____    ______ ____
ROOT
ATOM      1  N1  UNL     1     -25.344  10.577 -37.459  0.00  0.00    +0.000 N 
ATOM      2  C1  UNL     1     -26.686  10.636 -37.672  0.00  0.00    +0.000 A 
ATOM      3  N2  UNL     1     -27.109   9.478 -38.117  0.00  0.00    +0.000 NA
ATOM      4  N3  UNL     1     -26.017   8.645 -38.196  0.00  0.00    +0.000 NA
ATOM      5  C2  UNL     1     -24.945   9.308 -37.797  0.00  0.00    +0.000 A 
ATOM      6  H1  UNL     1     -24.759  11.323 -37.118  0.00  0.00    +0.000 HD
ENDROOT
BRANCH   5   7
ATOM      7  C3  UNL     1     -23.573   8.796 -37.724  0.00  0.00    +0.000 A 
ATOM      8  C4  UNL     1     -22.580   9.590 -37.130  0.00  0.00    +0.000 A 
ATOM      9  C5  UNL     1     -21.259   9.143 -37.039  0.00  0.00    +0.000 A 
ATOM     10  C6  UNL     1     -20.913   7.891 -37.541  0.00  0.00    +0.000 A 
ATOM     11  C7  UNL     1     -21.884   7.089 -38.133  0.00  0.00    +0.000 A 
ATOM     12  C8  UNL     1     -23.207   7.537 -38.225  0.00  0.00    +0.000 A 
ENDBRANCH   5   7
TORSDOF 1
ENDMDL
