MODEL 1
REMARK VINA RESULT:    -5.446      0.000      0.000
REMARK INTER + INTRA:          -7.497
REMARK INTER:                  -7.207
REMARK INTRA:                  -0.290
REMARK UNBOUND:                -0.459
REMARK  Name = /home/anacleto/Desktop/manuscript_Mpro/naturecomm/supplementary_file_S2/6-chemical-library/molecular_docking/3D_ligand_structure/553.pdb
REMARK  5 active torsions:
REMARK  status: ('A' for Active; 'I' for Inactive)
REMARK    1  A    between atoms: N2_6  and  C4_7
REMARK    2  A    between atoms: C4_7  and  C5_8
REMARK    3  A    between atoms: N3_10  and  C6_11
REMARK    4  A    between atoms: C6_11  and  C7_12
REMARK    5  A    between atoms: C7_12  and  C8_13
REMARK                            x       y       z     vdW  Elec       q    Type
REMARK                         _______ _______ _______ _____ _____    ______ ____
ROOT
ATOM      1  C5  UNL     1      13.548  15.841  -2.083  0.00  0.00    +0.000 C 
ATOM      2  O2  UNL     1      14.420  15.880  -1.216  0.00  0.00    +0.000 OA
ATOM      3  N3  UNL     1      13.699  15.153  -3.270  0.00  0.00    +0.000 N 
ATOM      4  H6  UNL     1      12.919  15.082  -3.911  0.00  0.00    +0.000 HD
ENDROOT
BRANCH   1   5
ATOM      5  C4  UNL     1      12.211  16.575  -1.930  0.00  0.00    +0.000 C 
BRANCH   5  11
ATOM      6  O1  UNL     1      13.479  18.962  -2.438  0.00  0.00    +0.000 OA
ATOM      7  C1  UNL     1      13.687  20.275  -2.731  0.00  0.00    +0.000 A 
ATOM      8  C2  UNL     1      12.731  20.662  -3.634  0.00  0.00    +0.000 A 
ATOM      9  N1  UNL     1      11.909  19.603  -3.921  0.00  0.00    +0.000 NA
ATOM     10  C3  UNL     1      12.390  18.621  -3.194  0.00  0.00    +0.000 A 
ATOM     11  N2  UNL     1      11.943  17.361  -3.123  0.00  0.00    +0.000 N 
ATOM     12  H3  UNL     1      11.007  17.218  -3.501  0.00  0.00    +0.000 HD
ENDBRANCH   5  11
ENDBRANCH   1   5
BRANCH   3  13
ATOM     13  C6  UNL     1      14.892  14.374  -3.549  0.00  0.00    +0.000 C 
BRANCH  13  14
ATOM     14  C7  UNL     1      14.641  12.868  -3.438  0.00  0.00    +0.000 C 
BRANCH  14  15
ATOM     15  C8  UNL     1      14.457  12.233  -4.793  0.00  0.00    +0.000 A 
ATOM     16  C9  UNL     1      13.696  11.063  -4.925  0.00  0.00    +0.000 A 
ATOM     17  C10 UNL     1      13.505  10.483  -6.180  0.00  0.00    +0.000 A 
ATOM     18  C11 UNL     1      14.069  11.067  -7.312  0.00  0.00    +0.000 A 
ATOM     19  C12 UNL     1      14.825  12.233  -7.192  0.00  0.00    +0.000 A 
ATOM     20  C13 UNL     1      15.017  12.815  -5.937  0.00  0.00    +0.000 A 
ENDBRANCH  14  15
ENDBRANCH  13  14
ENDBRANCH   3  13
TORSDOF 5
ENDMDL
MODEL 2
REMARK VINA RESULT:    -5.178     17.429     18.492
REMARK INTER + INTRA:          -7.151
REMARK INTER:                  -6.822
REMARK INTRA:                  -0.330
REMARK UNBOUND:                -0.459
REMARK  Name = /home/anacleto/Desktop/manuscript_Mpro/naturecomm/supplementary_file_S2/6-chemical-library/molecular_docking/3D_ligand_structure/553.pdb
REMARK  5 active torsions:
REMARK  status: ('A' for Active; 'I' for Inactive)
REMARK    1  A    between atoms: N2_6  and  C4_7
REMARK    2  A    between atoms: C4_7  and  C5_8
REMARK    3  A    between atoms: N3_10  and  C6_11
REMARK    4  A    between atoms: C6_11  and  C7_12
REMARK    5  A    between atoms: C7_12  and  C8_13
REMARK                            x       y       z     vdW  Elec       q    Type
REMARK                         _______ _______ _______ _____ _____    ______ ____
ROOT
ATOM      1  C5  UNL     1      18.804   4.446   9.188  0.00  0.00    +0.000 C 
ATOM      2  O2  UNL     1      19.279   3.647   9.993  0.00  0.00    +0.000 OA
ATOM      3  N3  UNL     1      17.605   4.235   8.538  0.00  0.00    +0.000 N 
ATOM      4  H6  UNL     1      17.217   4.964   7.952  0.00  0.00    +0.000 HD
ENDROOT
BRANCH   1   5
ATOM      5  C4  UNL     1      19.515   5.753   8.819  0.00  0.00    +0.000 C 
BRANCH   5  11
ATOM      6  O1  UNL     1      20.689   6.604  11.156  0.00  0.00    +0.000 OA
ATOM      7  C1  UNL     1      20.859   6.958  12.460  0.00  0.00    +0.000 A 
ATOM      8  C2  UNL     1      19.716   7.588  12.878  0.00  0.00    +0.000 A 
ATOM      9  N1  UNL     1      18.812   7.638  11.848  0.00  0.00    +0.000 NA
ATOM     10  C3  UNL     1      19.431   7.048  10.852  0.00  0.00    +0.000 A 
ATOM     11  N2  UNL     1      18.975   6.847   9.609  0.00  0.00    +0.000 N 
ATOM     12  H3  UNL     1      17.969   6.968   9.498  0.00  0.00    +0.000 HD
ENDBRANCH   5  11
ENDBRANCH   1   5
BRANCH   3  13
ATOM     13  C6  UNL     1      16.790   3.065   8.810  0.00  0.00    +0.000 C 
BRANCH  13  14
ATOM     14  C7  UNL     1      16.120   2.517   7.547  0.00  0.00    +0.000 C 
BRANCH  14  15
ATOM     15  C8  UNL     1      15.212   1.355   7.858  0.00  0.00    +0.000 A 
ATOM     16  C9  UNL     1      15.573   0.056   7.473  0.00  0.00    +0.000 A 
ATOM     17  C10 UNL     1      14.747  -1.026   7.777  0.00  0.00    +0.000 A 
ATOM     18  C11 UNL     1      13.556  -0.822   8.469  0.00  0.00    +0.000 A 
ATOM     19  C12 UNL     1      13.188   0.465   8.859  0.00  0.00    +0.000 A 
ATOM     20  C13 UNL     1      14.014   1.550   8.557  0.00  0.00    +0.000 A 
ENDBRANCH  14  15
ENDBRANCH  13  14
ENDBRANCH   3  13
TORSDOF 5
ENDMDL
MODEL 3
REMARK VINA RESULT:    -5.094      5.258      8.040
REMARK INTER + INTRA:          -7.042
REMARK INTER:                  -6.681
REMARK INTRA:                  -0.361
REMARK UNBOUND:                -0.459
REMARK  Name = /home/anacleto/Desktop/manuscript_Mpro/naturecomm/supplementary_file_S2/6-chemical-library/molecular_docking/3D_ligand_structure/553.pdb
REMARK  5 active torsions:
REMARK  status: ('A' for Active; 'I' for Inactive)
REMARK    1  A    between atoms: N2_6  and  C4_7
REMARK    2  A    between atoms: C4_7  and  C5_8
REMARK    3  A    between atoms: N3_10  and  C6_11
REMARK    4  A    between atoms: C6_11  and  C7_12
REMARK    5  A    between atoms: C7_12  and  C8_13
REMARK                            x       y       z     vdW  Elec       q    Type
REMARK                         _______ _______ _______ _____ _____    ______ ____
ROOT
ATOM      1  C5  UNL     1      16.605  11.517  -2.483  0.00  0.00    +0.000 C 
ATOM      2  O2  UNL     1      17.055  10.375  -2.408  0.00  0.00    +0.000 OA
ATOM      3  N3  UNL     1      17.366  12.642  -2.235  0.00  0.00    +0.000 N 
ATOM      4  H6  UNL     1      16.971  13.560  -2.396  0.00  0.00    +0.000 HD
ENDROOT
BRANCH   1   5
ATOM      5  C4  UNL     1      15.142  11.796  -2.845  0.00  0.00    +0.000 C 
BRANCH   5  11
ATOM      6  O1  UNL     1      15.002  11.972  -5.586  0.00  0.00    +0.000 OA
ATOM      7  C1  UNL     1      14.514  11.949  -6.857  0.00  0.00    +0.000 A 
ATOM      8  C2  UNL     1      13.599  10.932  -6.938  0.00  0.00    +0.000 A 
ATOM      9  N1  UNL     1      13.496  10.304  -5.723  0.00  0.00    +0.000 NA
ATOM     10  C3  UNL     1      14.344  10.950  -4.958  0.00  0.00    +0.000 A 
ATOM     11  N2  UNL     1      14.625  10.716  -3.670  0.00  0.00    +0.000 N 
ATOM     12  H3  UNL     1      13.953  10.123  -3.186  0.00  0.00    +0.000 HD
ENDBRANCH   5  11
ENDBRANCH   1   5
BRANCH   3  13
ATOM     13  C6  UNL     1      18.780  12.548  -1.921  0.00  0.00    +0.000 C 
BRANCH  13  14
ATOM     14  C7  UNL     1      19.066  12.823  -0.443  0.00  0.00    +0.000 C 
BRANCH  14  15
ATOM     15  C8  UNL     1      19.502  14.248  -0.216  0.00  0.00    +0.000 A 
ATOM     16  C9  UNL     1      18.610  15.179   0.333  0.00  0.00    +0.000 A 
ATOM     17  C10 UNL     1      19.014  16.494   0.565  0.00  0.00    +0.000 A 
ATOM     18  C11 UNL     1      20.313  16.890   0.253  0.00  0.00    +0.000 A 
ATOM     19  C12 UNL     1      21.210  15.971  -0.291  0.00  0.00    +0.000 A 
ATOM     20  C13 UNL     1      20.807  14.654  -0.523  0.00  0.00    +0.000 A 
ENDBRANCH  14  15
ENDBRANCH  13  14
ENDBRANCH   3  13
TORSDOF 5
ENDMDL
MODEL 4
REMARK VINA RESULT:    -5.089      4.513      7.474
REMARK INTER + INTRA:          -7.036
REMARK INTER:                  -6.634
REMARK INTRA:                  -0.402
REMARK UNBOUND:                -0.459
REMARK  Name = /home/anacleto/Desktop/manuscript_Mpro/naturecomm/supplementary_file_S2/6-chemical-library/molecular_docking/3D_ligand_structure/553.pdb
REMARK  5 active torsions:
REMARK  status: ('A' for Active; 'I' for Inactive)
REMARK    1  A    between atoms: N2_6  and  C4_7
REMARK    2  A    between atoms: C4_7  and  C5_8
REMARK    3  A    between atoms: N3_10  and  C6_11
REMARK    4  A    between atoms: C6_11  and  C7_12
REMARK    5  A    between atoms: C7_12  and  C8_13
REMARK                            x       y       z     vdW  Elec       q    Type
REMARK                         _______ _______ _______ _____ _____    ______ ____
ROOT
ATOM      1  C5  UNL     1      15.227  13.286  -2.762  0.00  0.00    +0.000 C 
ATOM      2  O2  UNL     1      14.995  12.165  -2.312  0.00  0.00    +0.000 OA
ATOM      3  N3  UNL     1      16.397  13.972  -2.505  0.00  0.00    +0.000 N 
ATOM      4  H6  UNL     1      16.574  14.854  -2.971  0.00  0.00    +0.000 HD
ENDROOT
BRANCH   1   5
ATOM      5  C4  UNL     1      14.220  14.037  -3.642  0.00  0.00    +0.000 C 
BRANCH   5  11
ATOM      6  O1  UNL     1      13.245  12.140  -5.379  0.00  0.00    +0.000 OA
ATOM      7  C1  UNL     1      13.195  11.136  -6.296  0.00  0.00    +0.000 A 
ATOM      8  C2  UNL     1      14.236  11.312  -7.171  0.00  0.00    +0.000 A 
ATOM      9  N1  UNL     1      14.955  12.425  -6.818  0.00  0.00    +0.000 NA
ATOM     10  C3  UNL     1      14.331  12.882  -5.757  0.00  0.00    +0.000 A 
ATOM     11  N2  UNL     1      14.637  13.967  -5.033  0.00  0.00    +0.000 N 
ATOM     12  H3  UNL     1      15.571  14.340  -5.195  0.00  0.00    +0.000 HD
ENDBRANCH   5  11
ENDBRANCH   1   5
BRANCH   3  13
ATOM     13  C6  UNL     1      17.468  13.381  -1.723  0.00  0.00    +0.000 C 
BRANCH  13  14
ATOM     14  C7  UNL     1      17.478  13.886  -0.278  0.00  0.00    +0.000 C 
BRANCH  14  15
ATOM     15  C8  UNL     1      18.679  14.755  -0.002  0.00  0.00    +0.000 A 
ATOM     16  C9  UNL     1      19.921  14.171   0.282  0.00  0.00    +0.000 A 
ATOM     17  C10 UNL     1      21.040  14.971   0.518  0.00  0.00    +0.000 A 
ATOM     18  C11 UNL     1      20.929  16.358   0.471  0.00  0.00    +0.000 A 
ATOM     19  C12 UNL     1      19.698  16.949   0.186  0.00  0.00    +0.000 A 
ATOM     20  C13 UNL     1      18.577  16.151  -0.052  0.00  0.00    +0.000 A 
ENDBRANCH  14  15
ENDBRANCH  13  14
ENDBRANCH   3  13
TORSDOF 5
ENDMDL
MODEL 5
REMARK VINA RESULT:    -4.968     16.910     19.101
REMARK INTER + INTRA:          -6.879
REMARK INTER:                  -6.413
REMARK INTRA:                  -0.466
REMARK UNBOUND:                -0.459
REMARK  Name = /home/anacleto/Desktop/manuscript_Mpro/naturecomm/supplementary_file_S2/6-chemical-library/molecular_docking/3D_ligand_structure/553.pdb
REMARK  5 active torsions:
REMARK  status: ('A' for Active; 'I' for Inactive)
REMARK    1  A    between atoms: N2_6  and  C4_7
REMARK    2  A    between atoms: C4_7  and  C5_8
REMARK    3  A    between atoms: N3_10  and  C6_11
REMARK    4  A    between atoms: C6_11  and  C7_12
REMARK    5  A    between atoms: C7_12  and  C8_13
REMARK                            x       y       z     vdW  Elec       q    Type
REMARK                         _______ _______ _______ _____ _____    ______ ____
ROOT
ATOM      1  C5  UNL     1      18.593   4.067   9.169  0.00  0.00    +0.000 C 
ATOM      2  O2  UNL     1      19.734   3.674   9.408  0.00  0.00    +0.000 OA
ATOM      3  N3  UNL     1      18.328   5.263   8.531  0.00  0.00    +0.000 N 
ATOM      4  H6  UNL     1      17.375   5.498   8.282  0.00  0.00    +0.000 HD
ENDROOT
BRANCH   1   5
ATOM      5  C4  UNL     1      17.351   3.267   9.579  0.00  0.00    +0.000 C 
BRANCH   5  11
ATOM      6  O1  UNL     1      14.742   2.397   9.573  0.00  0.00    +0.000 OA
ATOM      7  C1  UNL     1      13.648   1.602   9.416  0.00  0.00    +0.000 A 
ATOM      8  C2  UNL     1      13.841   0.837   8.295  0.00  0.00    +0.000 A 
ATOM      9  N1  UNL     1      15.055   1.136   7.733  0.00  0.00    +0.000 NA
ATOM     10  C3  UNL     1      15.549   2.063   8.520  0.00  0.00    +0.000 A 
ATOM     11  N2  UNL     1      16.722   2.698   8.398  0.00  0.00    +0.000 N 
ATOM     12  H3  UNL     1      17.383   2.257   7.760  0.00  0.00    +0.000 HD
ENDBRANCH   5  11
ENDBRANCH   1   5
BRANCH   3  13
ATOM     13  C6  UNL     1      19.396   6.116   8.043  0.00  0.00    +0.000 C 
BRANCH  13  14
ATOM     14  C7  UNL     1      19.445   7.460   8.773  0.00  0.00    +0.000 C 
BRANCH  14  15
ATOM     15  C8  UNL     1      19.861   7.296  10.213  0.00  0.00    +0.000 A 
ATOM     16  C9  UNL     1      21.169   6.903  10.529  0.00  0.00    +0.000 A 
ATOM     17  C10 UNL     1      21.565   6.770  11.860  0.00  0.00    +0.000 A 
ATOM     18  C11 UNL     1      20.661   7.032  12.887  0.00  0.00    +0.000 A 
ATOM     19  C12 UNL     1      19.358   7.427  12.584  0.00  0.00    +0.000 A 
ATOM     20  C13 UNL     1      18.960   7.561  11.252  0.00  0.00    +0.000 A 
ENDBRANCH  14  15
ENDBRANCH  13  14
ENDBRANCH   3  13
TORSDOF 5
ENDMDL
MODEL 6
REMARK VINA RESULT:    -4.918      4.358      7.576
REMARK INTER + INTRA:          -6.814
REMARK INTER:                  -6.425
REMARK INTRA:                  -0.389
REMARK UNBOUND:                -0.459
REMARK  Name = /home/anacleto/Desktop/manuscript_Mpro/naturecomm/supplementary_file_S2/6-chemical-library/molecular_docking/3D_ligand_structure/553.pdb
REMARK  5 active torsions:
REMARK  status: ('A' for Active; 'I' for Inactive)
REMARK    1  A    between atoms: N2_6  and  C4_7
REMARK    2  A    between atoms: C4_7  and  C5_8
REMARK    3  A    between atoms: N3_10  and  C6_11
REMARK    4  A    between atoms: C6_11  and  C7_12
REMARK    5  A    between atoms: C7_12  and  C8_13
REMARK                            x       y       z     vdW  Elec       q    Type
REMARK                         _______ _______ _______ _____ _____    ______ ____
ROOT
ATOM      1  C5  UNL     1      16.091  11.861  -1.959  0.00  0.00    +0.000 C 
ATOM      2  O2  UNL     1      16.512  11.736  -0.810  0.00  0.00    +0.000 OA
ATOM      3  N3  UNL     1      15.601  13.053  -2.454  0.00  0.00    +0.000 N 
ATOM      4  H6  UNL     1      15.347  13.123  -3.432  0.00  0.00    +0.000 HD
ENDROOT
BRANCH   1   5
ATOM      5  C4  UNL     1      16.054  10.689  -2.947  0.00  0.00    +0.000 C 
BRANCH   5  11
ATOM      6  O1  UNL     1      15.678  11.034  -5.649  0.00  0.00    +0.000 OA
ATOM      7  C1  UNL     1      15.201  11.501  -6.836  0.00  0.00    +0.000 A 
ATOM      8  C2  UNL     1      13.865  11.761  -6.680  0.00  0.00    +0.000 A 
ATOM      9  N1  UNL     1      13.482  11.465  -5.397  0.00  0.00    +0.000 NA
ATOM     10  C3  UNL     1      14.584  11.036  -4.828  0.00  0.00    +0.000 A 
ATOM     11  N2  UNL     1      14.741  10.612  -3.567  0.00  0.00    +0.000 N 
ATOM     12  H3  UNL     1      13.980  10.856  -2.935  0.00  0.00    +0.000 HD
ENDBRANCH   5  11
ENDBRANCH   1   5
BRANCH   3  13
ATOM     13  C6  UNL     1      15.607  14.266  -1.656  0.00  0.00    +0.000 C 
BRANCH  13  14
ATOM     14  C7  UNL     1      16.720  15.229  -2.073  0.00  0.00    +0.000 C 
BRANCH  14  15
ATOM     15  C8  UNL     1      17.758  15.381  -0.990  0.00  0.00    +0.000 A 
ATOM     16  C9  UNL     1      18.786  14.436  -0.861  0.00  0.00    +0.000 A 
ATOM     17  C10 UNL     1      19.761  14.583   0.126  0.00  0.00    +0.000 A 
ATOM     18  C11 UNL     1      19.721  15.675   0.990  0.00  0.00    +0.000 A 
ATOM     19  C12 UNL     1      18.705  16.623   0.869  0.00  0.00    +0.000 A 
ATOM     20  C13 UNL     1      17.728  16.478  -0.119  0.00  0.00    +0.000 A 
ENDBRANCH  14  15
ENDBRANCH  13  14
ENDBRANCH   3  13
TORSDOF 5
ENDMDL
MODEL 7
REMARK VINA RESULT:    -4.876      1.832      2.325
REMARK INTER + INTRA:          -6.760
REMARK INTER:                  -6.333
REMARK INTRA:                  -0.427
REMARK UNBOUND:                -0.459
REMARK  Name = /home/anacleto/Desktop/manuscript_Mpro/naturecomm/supplementary_file_S2/6-chemical-library/molecular_docking/3D_ligand_structure/553.pdb
REMARK  5 active torsions:
REMARK  status: ('A' for Active; 'I' for Inactive)
REMARK    1  A    between atoms: N2_6  and  C4_7
REMARK    2  A    between atoms: C4_7  and  C5_8
REMARK    3  A    between atoms: N3_10  and  C6_11
REMARK    4  A    between atoms: C6_11  and  C7_12
REMARK    5  A    between atoms: C7_12  and  C8_13
REMARK                            x       y       z     vdW  Elec       q    Type
REMARK                         _______ _______ _______ _____ _____    ______ ____
ROOT
ATOM      1  C5  UNL     1      16.305  14.396  -1.174  0.00  0.00    +0.000 C 
ATOM      2  O2  UNL     1      16.917  13.840  -0.264  0.00  0.00    +0.000 OA
ATOM      3  N3  UNL     1      16.003  13.770  -2.368  0.00  0.00    +0.000 N 
ATOM      4  H6  UNL     1      15.423  14.243  -3.049  0.00  0.00    +0.000 HD
ENDROOT
BRANCH   1   5
ATOM      5  C4  UNL     1      15.834  15.851  -1.073  0.00  0.00    +0.000 C 
BRANCH   5  11
ATOM      6  O1  UNL     1      14.986  18.092  -2.425  0.00  0.00    +0.000 OA
ATOM      7  C1  UNL     1      14.245  19.172  -2.793  0.00  0.00    +0.000 A 
ATOM      8  C2  UNL     1      12.924  18.858  -2.612  0.00  0.00    +0.000 A 
ATOM      9  N1  UNL     1      12.813  17.580  -2.127  0.00  0.00    +0.000 NA
ATOM     10  C3  UNL     1      14.056  17.167  -2.036  0.00  0.00    +0.000 A 
ATOM     11  N2  UNL     1      14.491  15.971  -1.618  0.00  0.00    +0.000 N 
ATOM     12  H3  UNL     1      13.800  15.415  -1.117  0.00  0.00    +0.000 HD
ENDBRANCH   5  11
ENDBRANCH   1   5
BRANCH   3  13
ATOM     13  C6  UNL     1      16.345  12.379  -2.603  0.00  0.00    +0.000 C 
BRANCH  13  14
ATOM     14  C7  UNL     1      16.761  12.120  -4.053  0.00  0.00    +0.000 C 
BRANCH  14  15
ATOM     15  C8  UNL     1      15.593  11.677  -4.897  0.00  0.00    +0.000 A 
ATOM     16  C9  UNL     1      14.541  10.952  -4.320  0.00  0.00    +0.000 A 
ATOM     17  C10 UNL     1      13.448  10.558  -5.091  0.00  0.00    +0.000 A 
ATOM     18  C11 UNL     1      13.394  10.886  -6.444  0.00  0.00    +0.000 A 
ATOM     19  C12 UNL     1      14.433  11.609  -7.028  0.00  0.00    +0.000 A 
ATOM     20  C13 UNL     1      15.528  12.006  -6.257  0.00  0.00    +0.000 A 
ENDBRANCH  14  15
ENDBRANCH  13  14
ENDBRANCH   3  13
TORSDOF 5
ENDMDL
MODEL 8
REMARK VINA RESULT:    -4.847      4.370      5.611
REMARK INTER + INTRA:          -6.723
REMARK INTER:                  -6.293
REMARK INTRA:                  -0.430
REMARK UNBOUND:                -0.459
REMARK  Name = /home/anacleto/Desktop/manuscript_Mpro/naturecomm/supplementary_file_S2/6-chemical-library/molecular_docking/3D_ligand_structure/553.pdb
REMARK  5 active torsions:
REMARK  status: ('A' for Active; 'I' for Inactive)
REMARK    1  A    between atoms: N2_6  and  C4_7
REMARK    2  A    between atoms: C4_7  and  C5_8
REMARK    3  A    between atoms: N3_10  and  C6_11
REMARK    4  A    between atoms: C6_11  and  C7_12
REMARK    5  A    between atoms: C7_12  and  C8_13
REMARK                            x       y       z     vdW  Elec       q    Type
REMARK                         _______ _______ _______ _____ _____    ______ ____
ROOT
ATOM      1  C5  UNL     1      16.029  13.946  -1.862  0.00  0.00    +0.000 C 
ATOM      2  O2  UNL     1      15.090  14.263  -2.591  0.00  0.00    +0.000 OA
ATOM      3  N3  UNL     1      16.332  12.634  -1.555  0.00  0.00    +0.000 N 
ATOM      4  H6  UNL     1      17.167  12.424  -1.022  0.00  0.00    +0.000 HD
ENDROOT
BRANCH   1   5
ATOM      5  C4  UNL     1      16.945  14.988  -1.210  0.00  0.00    +0.000 C 
BRANCH   5  11
ATOM      6  O1  UNL     1      19.182  16.206  -0.173  0.00  0.00    +0.000 OA
ATOM      7  C1  UNL     1      20.470  16.431   0.205  0.00  0.00    +0.000 A 
ATOM      8  C2  UNL     1      20.998  15.240   0.632  0.00  0.00    +0.000 A 
ATOM      9  N1  UNL     1      20.053  14.251   0.528  0.00  0.00    +0.000 NA
ATOM     10  C3  UNL     1      18.997  14.869   0.052  0.00  0.00    +0.000 A 
ATOM     11  N2  UNL     1      17.797  14.343  -0.224  0.00  0.00    +0.000 N 
ATOM     12  H3  UNL     1      17.778  13.326  -0.275  0.00  0.00    +0.000 HD
ENDBRANCH   5  11
ENDBRANCH   1   5
BRANCH   3  13
ATOM     13  C6  UNL     1      15.585  11.528  -2.127  0.00  0.00    +0.000 C 
BRANCH  13  14
ATOM     14  C7  UNL     1      16.300  10.904  -3.327  0.00  0.00    +0.000 C 
BRANCH  14  15
ATOM     15  C8  UNL     1      15.502  11.065  -4.596  0.00  0.00    +0.000 A 
ATOM     16  C9  UNL     1      16.119  11.541  -5.762  0.00  0.00    +0.000 A 
ATOM     17  C10 UNL     1      15.390  11.671  -6.944  0.00  0.00    +0.000 A 
ATOM     18  C11 UNL     1      14.041  11.326  -6.974  0.00  0.00    +0.000 A 
ATOM     19  C12 UNL     1      13.418  10.848  -5.822  0.00  0.00    +0.000 A 
ATOM     20  C13 UNL     1      14.146  10.716  -4.637  0.00  0.00    +0.000 A 
ENDBRANCH  14  15
ENDBRANCH  13  14
ENDBRANCH   3  13
TORSDOF 5
ENDMDL
MODEL 9
REMARK VINA RESULT:    -4.627      2.174      2.796
REMARK INTER + INTRA:          -6.438
REMARK INTER:                  -5.979
REMARK INTRA:                  -0.459
REMARK UNBOUND:                -0.459
REMARK  Name = /home/anacleto/Desktop/manuscript_Mpro/naturecomm/supplementary_file_S2/6-chemical-library/molecular_docking/3D_ligand_structure/553.pdb
REMARK  5 active torsions:
REMARK  status: ('A' for Active; 'I' for Inactive)
REMARK    1  A    between atoms: N2_6  and  C4_7
REMARK    2  A    between atoms: C4_7  and  C5_8
REMARK    3  A    between atoms: N3_10  and  C6_11
REMARK    4  A    between atoms: C6_11  and  C7_12
REMARK    5  A    between atoms: C7_12  and  C8_13
REMARK                            x       y       z     vdW  Elec       q    Type
REMARK                         _______ _______ _______ _____ _____    ______ ____
ROOT
ATOM      1  C5  UNL     1      14.208  14.955  -2.648  0.00  0.00    +0.000 C 
ATOM      2  O2  UNL     1      15.120  14.543  -1.933  0.00  0.00    +0.000 OA
ATOM      3  N3  UNL     1      14.161  14.732  -4.009  0.00  0.00    +0.000 N 
ATOM      4  H6  UNL     1      13.346  15.018  -4.537  0.00  0.00    +0.000 HD
ENDROOT
BRANCH   1   5
ATOM      5  C4  UNL     1      13.040  15.776  -2.089  0.00  0.00    +0.000 C 
BRANCH   5  11
ATOM      6  O1  UNL     1      12.061  18.105  -3.177  0.00  0.00    +0.000 OA
ATOM      7  C1  UNL     1      12.007  19.324  -3.781  0.00  0.00    +0.000 A 
ATOM      8  C2  UNL     1      13.092  20.049  -3.363  0.00  0.00    +0.000 A 
ATOM      9  N1  UNL     1      13.843  19.300  -2.493  0.00  0.00    +0.000 NA
ATOM     10  C3  UNL     1      13.194  18.162  -2.412  0.00  0.00    +0.000 A 
ATOM     11  N2  UNL     1      13.514  17.088  -1.679  0.00  0.00    +0.000 N 
ATOM     12  H3  UNL     1      14.471  17.081  -1.327  0.00  0.00    +0.000 HD
ENDBRANCH   5  11
ENDBRANCH   1   5
BRANCH   3  13
ATOM     13  C6  UNL     1      15.172  13.937  -4.683  0.00  0.00    +0.000 C 
BRANCH  13  14
ATOM     14  C7  UNL     1      14.761  12.469  -4.818  0.00  0.00    +0.000 C 
BRANCH  14  15
ATOM     15  C8  UNL     1      15.809  11.544  -4.253  0.00  0.00    +0.000 A 
ATOM     16  C9  UNL     1      16.891  11.137  -5.046  0.00  0.00    +0.000 A 
ATOM     17  C10 UNL     1      17.875  10.298  -4.522  0.00  0.00    +0.000 A 
ATOM     18  C11 UNL     1      17.788   9.860  -3.203  0.00  0.00    +0.000 A 
ATOM     19  C12 UNL     1      16.717  10.260  -2.404  0.00  0.00    +0.000 A 
ATOM     20  C13 UNL     1      15.732  11.101  -2.926  0.00  0.00    +0.000 A 
ENDBRANCH  14  15
ENDBRANCH  13  14
ENDBRANCH   3  13
TORSDOF 5
ENDMDL
