MODEL 1
REMARK VINA RESULT:    -4.724      0.000      0.000
REMARK INTER + INTRA:          -7.958
REMARK INTER:                  -6.990
REMARK INTRA:                  -0.969
REMARK UNBOUND:                -1.577
REMARK  Name = /home/anacleto/Desktop/manuscript_Mpro/naturecomm/supplementary_file_S2/6-chemical-library/molecular_docking/3D_ligand_structure/521.pdb
REMARK  6 active torsions:
REMARK  status: ('A' for Active; 'I' for Inactive)
REMARK    1  A    between atoms: C6_6  and  N1_7
REMARK    2  A    between atoms: N1_7  and  C7_8
REMARK    3  A    between atoms: C7_8  and  C8_9
REMARK    4  A    between atoms: N2_11  and  C9_12
REMARK    5  A    between atoms: C9_12  and  C10_13
REMARK    6  A    between atoms: C10_13  and  C11_14
REMARK                            x       y       z     vdW  Elec       q    Type
REMARK                         _______ _______ _______ _____ _____    ______ ____
ROOT
ATOM      1  C8  UNL     1     -27.203   8.744 -38.233  0.00  0.00    +0.000 C 
ATOM      2  O1  UNL     1     -27.994   9.234 -37.435  0.00  0.00    +0.000 OA
ATOM      3  N2  UNL     1     -27.444   7.591 -38.955  0.00  0.00    +0.000 N 
ATOM      4  H9  UNL     1     -26.628   7.214 -39.434  0.00  0.00    +0.000 HD
ENDROOT
BRANCH   1   5
ATOM      5  C7  UNL     1     -25.852   9.390 -38.572  0.00  0.00    +0.000 C 
BRANCH   5   6
ATOM      6  N1  UNL     1     -24.869   9.075 -37.513  0.00  0.00    +0.000 N 
ATOM      7  H6  UNL     1     -24.474   9.932 -37.126  0.00  0.00    +0.000 HD
BRANCH   6  13
ATOM      8  C1  UNL     1     -24.048   6.826 -38.139  0.00  0.00    +0.000 A 
ATOM      9  C2  UNL     1     -22.972   5.954 -38.343  0.00  0.00    +0.000 A 
ATOM     10  C3  UNL     1     -21.665   6.403 -38.183  0.00  0.00    +0.000 A 
ATOM     11  C4  UNL     1     -21.435   7.722 -37.805  0.00  0.00    +0.000 A 
ATOM     12  C5  UNL     1     -22.514   8.588 -37.605  0.00  0.00    +0.000 A 
ATOM     13  C6  UNL     1     -23.837   8.168 -37.803  0.00  0.00    +0.000 A 
ENDBRANCH   6  13
ENDBRANCH   5   6
ENDBRANCH   1   5
BRANCH   3  14
ATOM     14  C9  UNL     1     -28.577   6.728 -38.683  0.00  0.00    +0.000 C 
BRANCH  14  15
ATOM     15  C10 UNL     1     -28.620   5.542 -39.644  0.00  0.00    +0.000 C 
BRANCH  15  16
ATOM     16  C11 UNL     1     -27.555   4.521 -39.332  0.00  0.00    +0.000 A 
ATOM     17  C12 UNL     1     -26.400   4.432 -40.121  0.00  0.00    +0.000 A 
ATOM     18  C13 UNL     1     -25.410   3.496 -39.821  0.00  0.00    +0.000 A 
ATOM     19  C14 UNL     1     -25.562   2.645 -38.728  0.00  0.00    +0.000 A 
ATOM     20  C15 UNL     1     -26.703   2.728 -37.934  0.00  0.00    +0.000 A 
ATOM     21  C16 UNL     1     -27.696   3.662 -38.234  0.00  0.00    +0.000 A 
ENDBRANCH  15  16
ENDBRANCH  14  15
ENDBRANCH   3  14
TORSDOF 6
ENDMDL
MODEL 2
REMARK VINA RESULT:    -4.686     25.017     26.334
REMARK INTER + INTRA:          -7.907
REMARK INTER:                  -7.394
REMARK INTRA:                  -0.512
REMARK UNBOUND:                -1.577
REMARK  Name = /home/anacleto/Desktop/manuscript_Mpro/naturecomm/supplementary_file_S2/6-chemical-library/molecular_docking/3D_ligand_structure/521.pdb
REMARK  6 active torsions:
REMARK  status: ('A' for Active; 'I' for Inactive)
REMARK    1  A    between atoms: C6_6  and  N1_7
REMARK    2  A    between atoms: N1_7  and  C7_8
REMARK    3  A    between atoms: C7_8  and  C8_9
REMARK    4  A    between atoms: N2_11  and  C9_12
REMARK    5  A    between atoms: C9_12  and  C10_13
REMARK    6  A    between atoms: C10_13  and  C11_14
REMARK                            x       y       z     vdW  Elec       q    Type
REMARK                         _______ _______ _______ _____ _____    ______ ____
ROOT
ATOM      1  C8  UNL     1     -37.814   2.814 -15.299  0.00  0.00    +0.000 C 
ATOM      2  O1  UNL     1     -38.500   1.898 -14.857  0.00  0.00    +0.000 OA
ATOM      3  N2  UNL     1     -37.401   2.907 -16.614  0.00  0.00    +0.000 N 
ATOM      4  H9  UNL     1     -36.694   3.621 -16.786  0.00  0.00    +0.000 HD
ENDROOT
BRANCH   1   5
ATOM      5  C7  UNL     1     -37.371   4.011 -14.447  0.00  0.00    +0.000 C 
BRANCH   5   6
ATOM      6  N1  UNL     1     -37.316   5.227 -15.286  0.00  0.00    +0.000 N 
ATOM      7  H6  UNL     1     -36.358   5.414 -15.581  0.00  0.00    +0.000 HD
BRANCH   6  13
ATOM      8  C1  UNL     1     -37.174   7.561 -14.477  0.00  0.00    +0.000 A 
ATOM      9  C2  UNL     1     -37.805   8.681 -13.922  0.00  0.00    +0.000 A 
ATOM     10  C3  UNL     1     -39.168   8.653 -13.647  0.00  0.00    +0.000 A 
ATOM     11  C4  UNL     1     -39.898   7.500 -13.915  0.00  0.00    +0.000 A 
ATOM     12  C5  UNL     1     -39.263   6.386 -14.472  0.00  0.00    +0.000 A 
ATOM     13  C6  UNL     1     -37.898   6.407 -14.797  0.00  0.00    +0.000 A 
ENDBRANCH   6  13
ENDBRANCH   5   6
ENDBRANCH   1   5
BRANCH   3  14
ATOM     14  C9  UNL     1     -37.563   1.819 -17.558  0.00  0.00    +0.000 C 
BRANCH  14  15
ATOM     15  C10 UNL     1     -36.232   1.129 -17.850  0.00  0.00    +0.000 C 
BRANCH  15  16
ATOM     16  C11 UNL     1     -36.084  -0.163 -17.088  0.00  0.00    +0.000 A 
ATOM     17  C12 UNL     1     -34.819  -0.733 -16.889  0.00  0.00    +0.000 A 
ATOM     18  C13 UNL     1     -34.684  -1.922 -16.171  0.00  0.00    +0.000 A 
ATOM     19  C14 UNL     1     -35.811  -2.549 -15.641  0.00  0.00    +0.000 A 
ATOM     20  C15 UNL     1     -37.072  -1.989 -15.828  0.00  0.00    +0.000 A 
ATOM     21  C16 UNL     1     -37.209  -0.801 -16.549  0.00  0.00    +0.000 A 
ENDBRANCH  15  16
ENDBRANCH  14  15
ENDBRANCH   3  14
TORSDOF 6
ENDMDL
MODEL 3
REMARK VINA RESULT:    -4.658      2.519      3.840
REMARK INTER + INTRA:          -7.869
REMARK INTER:                  -7.344
REMARK INTRA:                  -0.526
REMARK UNBOUND:                -1.577
REMARK  Name = /home/anacleto/Desktop/manuscript_Mpro/naturecomm/supplementary_file_S2/6-chemical-library/molecular_docking/3D_ligand_structure/521.pdb
REMARK  6 active torsions:
REMARK  status: ('A' for Active; 'I' for Inactive)
REMARK    1  A    between atoms: C6_6  and  N1_7
REMARK    2  A    between atoms: N1_7  and  C7_8
REMARK    3  A    between atoms: C7_8  and  C8_9
REMARK    4  A    between atoms: N2_11  and  C9_12
REMARK    5  A    between atoms: C9_12  and  C10_13
REMARK    6  A    between atoms: C10_13  and  C11_14
REMARK                            x       y       z     vdW  Elec       q    Type
REMARK                         _______ _______ _______ _____ _____    ______ ____
ROOT
ATOM      1  C8  UNL     1     -23.536   6.291 -38.713  0.00  0.00    +0.000 C 
ATOM      2  O1  UNL     1     -24.567   6.893 -38.433  0.00  0.00    +0.000 OA
ATOM      3  N2  UNL     1     -23.322   5.634 -39.909  0.00  0.00    +0.000 N 
ATOM      4  H9  UNL     1     -22.498   5.035 -39.921  0.00  0.00    +0.000 HD
ENDROOT
BRANCH   1   5
ATOM      5  C7  UNL     1     -22.320   6.239 -37.777  0.00  0.00    +0.000 C 
BRANCH   5   6
ATOM      6  N1  UNL     1     -21.076   6.335 -38.570  0.00  0.00    +0.000 N 
ATOM      7  H6  UNL     1     -20.495   5.510 -38.424  0.00  0.00    +0.000 HD
BRANCH   6  13
ATOM      8  C1  UNL     1     -20.758   8.702 -37.922  0.00  0.00    +0.000 A 
ATOM      9  C2  UNL     1     -19.946   9.843 -37.898  0.00  0.00    +0.000 A 
ATOM     10  C3  UNL     1     -18.662   9.801 -38.433  0.00  0.00    +0.000 A 
ATOM     11  C4  UNL     1     -18.195   8.621 -39.003  0.00  0.00    +0.000 A 
ATOM     12  C5  UNL     1     -19.010   7.485 -39.021  0.00  0.00    +0.000 A 
ATOM     13  C6  UNL     1     -20.291   7.493 -38.450  0.00  0.00    +0.000 A 
ENDBRANCH   6  13
ENDBRANCH   5   6
ENDBRANCH   1   5
BRANCH   3  14
ATOM     14  C9  UNL     1     -24.382   5.415 -40.874  0.00  0.00    +0.000 C 
BRANCH  14  15
ATOM     15  C10 UNL     1     -24.759   3.937 -40.963  0.00  0.00    +0.000 C 
BRANCH  15  16
ATOM     16  C11 UNL     1     -25.854   3.573 -39.992  0.00  0.00    +0.000 A 
ATOM     17  C12 UNL     1     -25.607   2.678 -38.942  0.00  0.00    +0.000 A 
ATOM     18  C13 UNL     1     -26.618   2.354 -38.037  0.00  0.00    +0.000 A 
ATOM     19  C14 UNL     1     -27.883   2.924 -38.170  0.00  0.00    +0.000 A 
ATOM     20  C15 UNL     1     -28.138   3.817 -39.208  0.00  0.00    +0.000 A 
ATOM     21  C16 UNL     1     -27.128   4.142 -40.116  0.00  0.00    +0.000 A 
ENDBRANCH  15  16
ENDBRANCH  14  15
ENDBRANCH   3  14
TORSDOF 6
ENDMDL
MODEL 4
REMARK VINA RESULT:    -4.585     24.891     26.189
REMARK INTER + INTRA:          -7.770
REMARK INTER:                  -7.332
REMARK INTRA:                  -0.438
REMARK UNBOUND:                -1.577
REMARK  Name = /home/anacleto/Desktop/manuscript_Mpro/naturecomm/supplementary_file_S2/6-chemical-library/molecular_docking/3D_ligand_structure/521.pdb
REMARK  6 active torsions:
REMARK  status: ('A' for Active; 'I' for Inactive)
REMARK    1  A    between atoms: C6_6  and  N1_7
REMARK    2  A    between atoms: N1_7  and  C7_8
REMARK    3  A    between atoms: C7_8  and  C8_9
REMARK    4  A    between atoms: N2_11  and  C9_12
REMARK    5  A    between atoms: C9_12  and  C10_13
REMARK    6  A    between atoms: C10_13  and  C11_14
REMARK                            x       y       z     vdW  Elec       q    Type
REMARK                         _______ _______ _______ _____ _____    ______ ____
ROOT
ATOM      1  C8  UNL     1     -37.780   3.675 -14.279  0.00  0.00    +0.000 C 
ATOM      2  O1  UNL     1     -38.171   3.117 -13.259  0.00  0.00    +0.000 OA
ATOM      3  N2  UNL     1     -38.086   3.253 -15.559  0.00  0.00    +0.000 N 
ATOM      4  H9  UNL     1     -37.545   3.706 -16.293  0.00  0.00    +0.000 HD
ENDROOT
BRANCH   1   5
ATOM      5  C7  UNL     1     -36.938   4.958 -14.257  0.00  0.00    +0.000 C 
BRANCH   5   6
ATOM      6  N1  UNL     1     -37.333   5.832 -15.382  0.00  0.00    +0.000 N 
ATOM      7  H6  UNL     1     -36.519   6.074 -15.949  0.00  0.00    +0.000 HD
BRANCH   6  13
ATOM      8  C1  UNL     1     -39.300   6.990 -14.428  0.00  0.00    +0.000 A 
ATOM      9  C2  UNL     1     -40.028   8.172 -14.247  0.00  0.00    +0.000 A 
ATOM     10  C3  UNL     1     -39.556   9.372 -14.769  0.00  0.00    +0.000 A 
ATOM     11  C4  UNL     1     -38.363   9.387 -15.482  0.00  0.00    +0.000 A 
ATOM     12  C5  UNL     1     -37.639   8.204 -15.657  0.00  0.00    +0.000 A 
ATOM     13  C6  UNL     1     -38.075   6.990 -15.104  0.00  0.00    +0.000 A 
ENDBRANCH   6  13
ENDBRANCH   5   6
ENDBRANCH   1   5
BRANCH   3  14
ATOM     14  C9  UNL     1     -38.730   1.982 -15.823  0.00  0.00    +0.000 C 
BRANCH  14  15
ATOM     15  C10 UNL     1     -38.390   1.462 -17.219  0.00  0.00    +0.000 C 
BRANCH  15  16
ATOM     16  C11 UNL     1     -37.152   0.600 -17.216  0.00  0.00    +0.000 A 
ATOM     17  C12 UNL     1     -37.096  -0.563 -16.436  0.00  0.00    +0.000 A 
ATOM     18  C13 UNL     1     -35.955  -1.366 -16.446  0.00  0.00    +0.000 A 
ATOM     19  C14 UNL     1     -34.862  -1.016 -17.238  0.00  0.00    +0.000 A 
ATOM     20  C15 UNL     1     -34.909   0.135 -18.020  0.00  0.00    +0.000 A 
ATOM     21  C16 UNL     1     -36.049   0.941 -18.010  0.00  0.00    +0.000 A 
ENDBRANCH  15  16
ENDBRANCH  14  15
ENDBRANCH   3  14
TORSDOF 6
ENDMDL
MODEL 5
REMARK VINA RESULT:    -4.576      2.607      3.830
REMARK INTER + INTRA:          -7.758
REMARK INTER:                  -7.362
REMARK INTRA:                  -0.396
REMARK UNBOUND:                -1.577
REMARK  Name = /home/anacleto/Desktop/manuscript_Mpro/naturecomm/supplementary_file_S2/6-chemical-library/molecular_docking/3D_ligand_structure/521.pdb
REMARK  6 active torsions:
REMARK  status: ('A' for Active; 'I' for Inactive)
REMARK    1  A    between atoms: C6_6  and  N1_7
REMARK    2  A    between atoms: N1_7  and  C7_8
REMARK    3  A    between atoms: C7_8  and  C8_9
REMARK    4  A    between atoms: N2_11  and  C9_12
REMARK    5  A    between atoms: C9_12  and  C10_13
REMARK    6  A    between atoms: C10_13  and  C11_14
REMARK                            x       y       z     vdW  Elec       q    Type
REMARK                         _______ _______ _______ _____ _____    ______ ____
ROOT
ATOM      1  C8  UNL     1     -24.476   4.957 -38.890  0.00  0.00    +0.000 C 
ATOM      2  O1  UNL     1     -24.706   4.976 -40.094  0.00  0.00    +0.000 OA
ATOM      3  N2  UNL     1     -24.699   3.863 -38.075  0.00  0.00    +0.000 N 
ATOM      4  H9  UNL     1     -24.631   4.058 -37.078  0.00  0.00    +0.000 HD
ENDROOT
BRANCH   1   5
ATOM      5  C7  UNL     1     -23.855   6.143 -38.140  0.00  0.00    +0.000 C 
BRANCH   5   6
ATOM      6  N1  UNL     1     -22.381   6.073 -38.230  0.00  0.00    +0.000 N 
ATOM      7  H6  UNL     1     -22.020   5.342 -37.615  0.00  0.00    +0.000 HD
BRANCH   6  13
ATOM      8  C1  UNL     1     -22.157   8.419 -37.476  0.00  0.00    +0.000 A 
ATOM      9  C2  UNL     1     -21.387   9.585 -37.391  0.00  0.00    +0.000 A 
ATOM     10  C3  UNL     1     -20.095   9.611 -37.905  0.00  0.00    +0.000 A 
ATOM     11  C4  UNL     1     -19.577   8.475 -38.517  0.00  0.00    +0.000 A 
ATOM     12  C5  UNL     1     -20.350   7.313 -38.597  0.00  0.00    +0.000 A 
ATOM     13  C6  UNL     1     -21.639   7.251 -38.047  0.00  0.00    +0.000 A 
ENDBRANCH   6  13
ENDBRANCH   5   6
ENDBRANCH   1   5
BRANCH   3  14
ATOM     14  C9  UNL     1     -25.425   2.693 -38.529  0.00  0.00    +0.000 C 
BRANCH  14  15
ATOM     15  C10 UNL     1     -26.766   2.555 -37.811  0.00  0.00    +0.000 C 
BRANCH  15  16
ATOM     16  C11 UNL     1     -27.909   3.089 -38.638  0.00  0.00    +0.000 A 
ATOM     17  C12 UNL     1     -28.506   4.316 -38.320  0.00  0.00    +0.000 A 
ATOM     18  C13 UNL     1     -29.553   4.814 -39.096  0.00  0.00    +0.000 A 
ATOM     19  C14 UNL     1     -30.010   4.093 -40.198  0.00  0.00    +0.000 A 
ATOM     20  C15 UNL     1     -29.421   2.874 -40.525  0.00  0.00    +0.000 A 
ATOM     21  C16 UNL     1     -28.374   2.373 -39.749  0.00  0.00    +0.000 A 
ENDBRANCH  15  16
ENDBRANCH  14  15
ENDBRANCH   3  14
TORSDOF 6
ENDMDL
MODEL 6
REMARK VINA RESULT:    -4.545     24.918     26.516
REMARK INTER + INTRA:          -7.717
REMARK INTER:                  -7.287
REMARK INTRA:                  -0.429
REMARK UNBOUND:                -1.577
REMARK  Name = /home/anacleto/Desktop/manuscript_Mpro/naturecomm/supplementary_file_S2/6-chemical-library/molecular_docking/3D_ligand_structure/521.pdb
REMARK  6 active torsions:
REMARK  status: ('A' for Active; 'I' for Inactive)
REMARK    1  A    between atoms: C6_6  and  N1_7
REMARK    2  A    between atoms: N1_7  and  C7_8
REMARK    3  A    between atoms: C7_8  and  C8_9
REMARK    4  A    between atoms: N2_11  and  C9_12
REMARK    5  A    between atoms: C9_12  and  C10_13
REMARK    6  A    between atoms: C10_13  and  C11_14
REMARK                            x       y       z     vdW  Elec       q    Type
REMARK                         _______ _______ _______ _____ _____    ______ ____
ROOT
ATOM      1  C8  UNL     1     -38.350   2.552 -15.070  0.00  0.00    +0.000 C 
ATOM      2  O1  UNL     1     -38.321   2.095 -13.932  0.00  0.00    +0.000 OA
ATOM      3  N2  UNL     1     -37.831   3.783 -15.425  0.00  0.00    +0.000 N 
ATOM      4  H9  UNL     1     -38.091   4.098 -16.358  0.00  0.00    +0.000 HD
ENDROOT
BRANCH   1   5
ATOM      5  C7  UNL     1     -38.927   1.780 -16.265  0.00  0.00    +0.000 C 
BRANCH   5   6
ATOM      6  N1  UNL     1     -38.459   0.378 -16.225  0.00  0.00    +0.000 N 
ATOM      7  H6  UNL     1     -38.486   0.020 -15.270  0.00  0.00    +0.000 HD
BRANCH   6  13
ATOM      8  C1  UNL     1     -36.409  -0.997 -16.402  0.00  0.00    +0.000 A 
ATOM      9  C2  UNL     1     -35.151  -1.209 -16.978  0.00  0.00    +0.000 A 
ATOM     10  C3  UNL     1     -34.669  -0.340 -17.952  0.00  0.00    +0.000 A 
ATOM     11  C4  UNL     1     -35.442   0.749 -18.340  0.00  0.00    +0.000 A 
ATOM     12  C5  UNL     1     -36.699   0.954 -17.763  0.00  0.00    +0.000 A 
ATOM     13  C6  UNL     1     -37.221   0.067 -16.811  0.00  0.00    +0.000 A 
ENDBRANCH   6  13
ENDBRANCH   5   6
ENDBRANCH   1   5
BRANCH   3  14
ATOM     14  C9  UNL     1     -37.385   4.749 -14.441  0.00  0.00    +0.000 C 
BRANCH  14  15
ATOM     15  C10 UNL     1     -38.548   5.583 -13.908  0.00  0.00    +0.000 C 
BRANCH  15  16
ATOM     16  C11 UNL     1     -38.558   6.976 -14.487  0.00  0.00    +0.000 A 
ATOM     17  C12 UNL     1     -37.477   7.437 -15.251  0.00  0.00    +0.000 A 
ATOM     18  C13 UNL     1     -37.495   8.721 -15.797  0.00  0.00    +0.000 A 
ATOM     19  C14 UNL     1     -38.594   9.553 -15.589  0.00  0.00    +0.000 A 
ATOM     20  C15 UNL     1     -39.675   9.103 -14.835  0.00  0.00    +0.000 A 
ATOM     21  C16 UNL     1     -39.658   7.819 -14.286  0.00  0.00    +0.000 A 
ENDBRANCH  15  16
ENDBRANCH  14  15
ENDBRANCH   3  14
TORSDOF 6
ENDMDL
MODEL 7
REMARK VINA RESULT:    -4.484      1.258      2.193
REMARK INTER + INTRA:          -7.635
REMARK INTER:                  -7.101
REMARK INTRA:                  -0.534
REMARK UNBOUND:                -1.577
REMARK  Name = /home/anacleto/Desktop/manuscript_Mpro/naturecomm/supplementary_file_S2/6-chemical-library/molecular_docking/3D_ligand_structure/521.pdb
REMARK  6 active torsions:
REMARK  status: ('A' for Active; 'I' for Inactive)
REMARK    1  A    between atoms: C6_6  and  N1_7
REMARK    2  A    between atoms: N1_7  and  C7_8
REMARK    3  A    between atoms: C7_8  and  C8_9
REMARK    4  A    between atoms: N2_11  and  C9_12
REMARK    5  A    between atoms: C9_12  and  C10_13
REMARK    6  A    between atoms: C10_13  and  C11_14
REMARK                            x       y       z     vdW  Elec       q    Type
REMARK                         _______ _______ _______ _____ _____    ______ ____
ROOT
ATOM      1  C8  UNL     1     -25.730   9.211 -38.193  0.00  0.00    +0.000 C 
ATOM      2  O1  UNL     1     -26.776   9.383 -37.576  0.00  0.00    +0.000 OA
ATOM      3  N2  UNL     1     -25.562   8.264 -39.185  0.00  0.00    +0.000 N 
ATOM      4  H9  UNL     1     -24.596   8.121 -39.474  0.00  0.00    +0.000 HD
ENDROOT
BRANCH   1   5
ATOM      5  C7  UNL     1     -24.479  10.074 -37.973  0.00  0.00    +0.000 C 
BRANCH   5   6
ATOM      6  N1  UNL     1     -23.596   9.427 -36.979  0.00  0.00    +0.000 N 
ATOM      7  H6  UNL     1     -23.407  10.062 -36.203  0.00  0.00    +0.000 HD
BRANCH   6  13
ATOM      8  C1  UNL     1     -21.208   9.569 -37.611  0.00  0.00    +0.000 A 
ATOM      9  C2  UNL     1     -20.063   8.951 -38.127  0.00  0.00    +0.000 A 
ATOM     10  C3  UNL     1     -20.095   7.609 -38.494  0.00  0.00    +0.000 A 
ATOM     11  C4  UNL     1     -21.277   6.890 -38.356  0.00  0.00    +0.000 A 
ATOM     12  C5  UNL     1     -22.417   7.512 -37.837  0.00  0.00    +0.000 A 
ATOM     13  C6  UNL     1     -22.395   8.852 -37.422  0.00  0.00    +0.000 A 
ENDBRANCH   6  13
ENDBRANCH   5   6
ENDBRANCH   1   5
BRANCH   3  14
ATOM     14  C9  UNL     1     -26.549   7.236 -39.450  0.00  0.00    +0.000 C 
BRANCH  14  15
ATOM     15  C10 UNL     1     -25.911   5.996 -40.073  0.00  0.00    +0.000 C 
BRANCH  15  16
ATOM     16  C11 UNL     1     -26.282   4.735 -39.332  0.00  0.00    +0.000 A 
ATOM     17  C12 UNL     1     -27.611   4.496 -38.956  0.00  0.00    +0.000 A 
ATOM     18  C13 UNL     1     -27.954   3.323 -38.283  0.00  0.00    +0.000 A 
ATOM     19  C14 UNL     1     -26.975   2.377 -37.985  0.00  0.00    +0.000 A 
ATOM     20  C15 UNL     1     -25.652   2.603 -38.359  0.00  0.00    +0.000 A 
ATOM     21  C16 UNL     1     -25.306   3.777 -39.030  0.00  0.00    +0.000 A 
ENDBRANCH  15  16
ENDBRANCH  14  15
ENDBRANCH   3  14
TORSDOF 6
ENDMDL
MODEL 8
REMARK VINA RESULT:    -4.471      2.275      3.486
REMARK INTER + INTRA:          -7.617
REMARK INTER:                  -7.178
REMARK INTRA:                  -0.439
REMARK UNBOUND:                -1.577
REMARK  Name = /home/anacleto/Desktop/manuscript_Mpro/naturecomm/supplementary_file_S2/6-chemical-library/molecular_docking/3D_ligand_structure/521.pdb
REMARK  6 active torsions:
REMARK  status: ('A' for Active; 'I' for Inactive)
REMARK    1  A    between atoms: C6_6  and  N1_7
REMARK    2  A    between atoms: N1_7  and  C7_8
REMARK    3  A    between atoms: C7_8  and  C8_9
REMARK    4  A    between atoms: N2_11  and  C9_12
REMARK    5  A    between atoms: C9_12  and  C10_13
REMARK    6  A    between atoms: C10_13  and  C11_14
REMARK                            x       y       z     vdW  Elec       q    Type
REMARK                         _______ _______ _______ _____ _____    ______ ____
ROOT
ATOM      1  C8  UNL     1     -23.382   8.760 -38.237  0.00  0.00    +0.000 C 
ATOM      2  O1  UNL     1     -23.721   9.399 -39.227  0.00  0.00    +0.000 OA
ATOM      3  N2  UNL     1     -23.704   7.434 -38.023  0.00  0.00    +0.000 N 
ATOM      4  H9  UNL     1     -23.509   7.098 -37.081  0.00  0.00    +0.000 HD
ENDROOT
BRANCH   1   5
ATOM      5  C7  UNL     1     -22.501   9.348 -37.126  0.00  0.00    +0.000 C 
BRANCH   5   6
ATOM      6  N1  UNL     1     -21.324   8.479 -36.911  0.00  0.00    +0.000 N 
ATOM      7  H6  UNL     1     -20.887   8.686 -36.012  0.00  0.00    +0.000 HD
BRANCH   6  13
ATOM      8  C1  UNL     1     -20.089   7.291 -38.696  0.00  0.00    +0.000 A 
ATOM      9  C2  UNL     1     -19.044   7.273 -39.627  0.00  0.00    +0.000 A 
ATOM     10  C3  UNL     1     -18.210   8.378 -39.765  0.00  0.00    +0.000 A 
ATOM     11  C4  UNL     1     -18.414   9.496 -38.964  0.00  0.00    +0.000 A 
ATOM     12  C5  UNL     1     -19.462   9.508 -38.038  0.00  0.00    +0.000 A 
ATOM     13  C6  UNL     1     -20.341   8.422 -37.912  0.00  0.00    +0.000 A 
ENDBRANCH   6  13
ENDBRANCH   5   6
ENDBRANCH   1   5
BRANCH   3  14
ATOM     14  C9  UNL     1     -24.657   6.723 -38.853  0.00  0.00    +0.000 C 
BRANCH  14  15
ATOM     15  C10 UNL     1     -24.361   5.225 -38.886  0.00  0.00    +0.000 C 
BRANCH  15  16
ATOM     16  C11 UNL     1     -25.606   4.397 -38.692  0.00  0.00    +0.000 A 
ATOM     17  C12 UNL     1     -25.517   3.063 -38.272  0.00  0.00    +0.000 A 
ATOM     18  C13 UNL     1     -26.672   2.304 -38.079  0.00  0.00    +0.000 A 
ATOM     19  C14 UNL     1     -27.926   2.873 -38.299  0.00  0.00    +0.000 A 
ATOM     20  C15 UNL     1     -28.026   4.199 -38.711  0.00  0.00    +0.000 A 
ATOM     21  C16 UNL     1     -26.871   4.960 -38.907  0.00  0.00    +0.000 A 
ENDBRANCH  15  16
ENDBRANCH  14  15
ENDBRANCH   3  14
TORSDOF 6
ENDMDL
MODEL 9
REMARK VINA RESULT:    -4.405      2.467      3.507
REMARK INTER + INTRA:          -7.528
REMARK INTER:                  -5.950
REMARK INTRA:                  -1.577
REMARK UNBOUND:                -1.577
REMARK  Name = /home/anacleto/Desktop/manuscript_Mpro/naturecomm/supplementary_file_S2/6-chemical-library/molecular_docking/3D_ligand_structure/521.pdb
REMARK  6 active torsions:
REMARK  status: ('A' for Active; 'I' for Inactive)
REMARK    1  A    between atoms: C6_6  and  N1_7
REMARK    2  A    between atoms: N1_7  and  C7_8
REMARK    3  A    between atoms: C7_8  and  C8_9
REMARK    4  A    between atoms: N2_11  and  C9_12
REMARK    5  A    between atoms: C9_12  and  C10_13
REMARK    6  A    between atoms: C10_13  and  C11_14
REMARK                            x       y       z     vdW  Elec       q    Type
REMARK                         _______ _______ _______ _____ _____    ______ ____
ROOT
ATOM      1  C8  UNL     1     -26.347   8.961 -39.053  0.00  0.00    +0.000 C 
ATOM      2  O1  UNL     1     -27.086   8.325 -38.309  0.00  0.00    +0.000 OA
ATOM      3  N2  UNL     1     -25.872   8.489 -40.262  0.00  0.00    +0.000 N 
ATOM      4  H9  UNL     1     -25.132   9.054 -40.675  0.00  0.00    +0.000 HD
ENDROOT
BRANCH   1   5
ATOM      5  C7  UNL     1     -25.898  10.398 -38.754  0.00  0.00    +0.000 C 
BRANCH   5   6
ATOM      6  N1  UNL     1     -25.065  10.415 -37.532  0.00  0.00    +0.000 N 
ATOM      7  H6  UNL     1     -25.232  11.268 -36.998  0.00  0.00    +0.000 HD
BRANCH   6  13
ATOM      8  C1  UNL     1     -22.875   9.697 -36.632  0.00  0.00    +0.000 A 
ATOM      9  C2  UNL     1     -21.490   9.576 -36.796  0.00  0.00    +0.000 A 
ATOM     10  C3  UNL     1     -20.886   9.986 -37.980  0.00  0.00    +0.000 A 
ATOM     11  C4  UNL     1     -21.665  10.530 -38.995  0.00  0.00    +0.000 A 
ATOM     12  C5  UNL     1     -23.049  10.646 -38.826  0.00  0.00    +0.000 A 
ATOM     13  C6  UNL     1     -23.684  10.199 -37.657  0.00  0.00    +0.000 A 
ENDBRANCH   6  13
ENDBRANCH   5   6
ENDBRANCH   1   5
BRANCH   3  14
ATOM     14  C9  UNL     1     -26.033   7.109 -40.673  0.00  0.00    +0.000 C 
BRANCH  14  15
ATOM     15  C10 UNL     1     -24.709   6.505 -41.137  0.00  0.00    +0.000 C 
BRANCH  15  16
ATOM     16  C11 UNL     1     -23.726   6.356 -40.002  0.00  0.00    +0.000 A 
ATOM     17  C12 UNL     1     -22.407   6.809 -40.138  0.00  0.00    +0.000 A 
ATOM     18  C13 UNL     1     -21.504   6.682 -39.081  0.00  0.00    +0.000 A 
ATOM     19  C14 UNL     1     -21.913   6.107 -37.879  0.00  0.00    +0.000 A 
ATOM     20  C15 UNL     1     -23.224   5.658 -37.732  0.00  0.00    +0.000 A 
ATOM     21  C16 UNL     1     -24.127   5.782 -38.789  0.00  0.00    +0.000 A 
ENDBRANCH  15  16
ENDBRANCH  14  15
ENDBRANCH   3  14
TORSDOF 6
ENDMDL
