MODEL 1
REMARK VINA RESULT:    -4.902      0.000      0.000
REMARK INTER + INTRA:          -4.902
REMARK INTER:                  -4.902
REMARK INTRA:                   0.000
REMARK UNBOUND:                 0.000
REMARK  Name = /home/anacleto/Desktop/manuscript_Mpro/naturecomm/supplementary_file_S2/6-chemical-library/molecular_docking/3D_ligand_structure/163.pdb
REMARK  0 active torsions:
REMARK  status: ('A' for Active; 'I' for Inactive)
REMARK                            x       y       z     vdW  Elec       q    Type
REMARK                         _______ _______ _______ _____ _____    ______ ____
ROOT
ATOM      1  C1  UNL     1      15.513  13.539  -2.624  0.00  0.00    +0.000 A 
ATOM      2  C2  UNL     1      14.994  14.753  -3.033  0.00  0.00    +0.000 A 
ATOM      3  N1  UNL     1      14.211  14.538  -4.145  0.00  0.00    +0.000 N 
ATOM      4  C3  UNL     1      14.236  13.207  -4.433  0.00  0.00    +0.000 A 
ATOM      5  C4  UNL     1      15.026  12.559  -3.520  0.00  0.00    +0.000 A 
ATOM      6  N2  UNL     1      13.586  12.583  -5.461  0.00  0.00    +0.000 N 
ATOM      7  C5  UNL     1      13.725  11.220  -5.602  0.00  0.00    +0.000 A 
ATOM      8  O1  UNL     1      13.163  10.612  -6.510  0.00  0.00    +0.000 OA
ATOM      9  N3  UNL     1      14.519  10.568  -4.685  0.00  0.00    +0.000 N 
ATOM     10  C6  UNL     1      15.204  11.130  -3.623  0.00  0.00    +0.000 A 
ATOM     11  O2  UNL     1      15.891  10.466  -2.854  0.00  0.00    +0.000 OA
ATOM     12  H3  UNL     1      13.707  15.252  -4.654  0.00  0.00    +0.000 HD
ATOM     13  H4  UNL     1      13.005  13.071  -6.130  0.00  0.00    +0.000 HD
ATOM     14  H5  UNL     1      14.612   9.571  -4.799  0.00  0.00    +0.000 HD
ENDROOT
TORSDOF 0
ENDMDL
MODEL 2
REMARK VINA RESULT:    -4.725      1.710      2.767
REMARK INTER + INTRA:          -4.725
REMARK INTER:                  -4.725
REMARK INTRA:                   0.000
REMARK UNBOUND:                 0.000
REMARK  Name = /home/anacleto/Desktop/manuscript_Mpro/naturecomm/supplementary_file_S2/6-chemical-library/molecular_docking/3D_ligand_structure/163.pdb
REMARK  0 active torsions:
REMARK  status: ('A' for Active; 'I' for Inactive)
REMARK                            x       y       z     vdW  Elec       q    Type
REMARK                         _______ _______ _______ _____ _____    ______ ____
ROOT
ATOM      1  C1  UNL     1      15.880  12.354  -2.046  0.00  0.00    +0.000 A 
ATOM      2  C2  UNL     1      16.279  11.060  -1.768  0.00  0.00    +0.000 A 
ATOM      3  N1  UNL     1      15.758  10.228  -2.734  0.00  0.00    +0.000 N 
ATOM      4  C3  UNL     1      15.040  10.987  -3.608  0.00  0.00    +0.000 A 
ATOM      5  C4  UNL     1      15.091  12.300  -3.218  0.00  0.00    +0.000 A 
ATOM      6  N2  UNL     1      14.365  10.542  -4.710  0.00  0.00    +0.000 N 
ATOM      7  C5  UNL     1      13.688  11.457  -5.486  0.00  0.00    +0.000 A 
ATOM      8  O1  UNL     1      13.065  11.108  -6.485  0.00  0.00    +0.000 OA
ATOM      9  N3  UNL     1      13.739  12.777  -5.095  0.00  0.00    +0.000 N 
ATOM     10  C6  UNL     1      14.399  13.299  -3.998  0.00  0.00    +0.000 A 
ATOM     11  O2  UNL     1      14.388  14.495  -3.728  0.00  0.00    +0.000 OA
ATOM     12  H3  UNL     1      15.891   9.227  -2.779  0.00  0.00    +0.000 HD
ATOM     13  H4  UNL     1      14.333   9.570  -4.989  0.00  0.00    +0.000 HD
ATOM     14  H5  UNL     1      13.240  13.436  -5.671  0.00  0.00    +0.000 HD
ENDROOT
TORSDOF 0
ENDMDL
MODEL 3
REMARK VINA RESULT:    -4.702      2.462      2.905
REMARK INTER + INTRA:          -4.702
REMARK INTER:                  -4.702
REMARK INTRA:                   0.000
REMARK UNBOUND:                 0.000
REMARK  Name = /home/anacleto/Desktop/manuscript_Mpro/naturecomm/supplementary_file_S2/6-chemical-library/molecular_docking/3D_ligand_structure/163.pdb
REMARK  0 active torsions:
REMARK  status: ('A' for Active; 'I' for Inactive)
REMARK                            x       y       z     vdW  Elec       q    Type
REMARK                         _______ _______ _______ _____ _____    ______ ____
ROOT
ATOM      1  C1  UNL     1      15.906  12.469  -4.060  0.00  0.00    +0.000 A 
ATOM      2  C2  UNL     1      15.567  11.626  -3.018  0.00  0.00    +0.000 A 
ATOM      3  N1  UNL     1      14.692  10.677  -3.494  0.00  0.00    +0.000 N 
ATOM      4  C3  UNL     1      14.481  10.917  -4.818  0.00  0.00    +0.000 A 
ATOM      5  C4  UNL     1      15.210  12.011  -5.204  0.00  0.00    +0.000 A 
ATOM      6  N2  UNL     1      13.677  10.198  -5.659  0.00  0.00    +0.000 N 
ATOM      7  C5  UNL     1      13.583  10.587  -6.977  0.00  0.00    +0.000 A 
ATOM      8  O1  UNL     1      12.873   9.976  -7.772  0.00  0.00    +0.000 OA
ATOM      9  N3  UNL     1      14.316  11.687  -7.365  0.00  0.00    +0.000 N 
ATOM     10  C6  UNL     1      15.147  12.458  -6.575  0.00  0.00    +0.000 A 
ATOM     11  O2  UNL     1      15.763  13.425  -7.011  0.00  0.00    +0.000 OA
ATOM     12  H3  UNL     1      14.280   9.932  -2.948  0.00  0.00    +0.000 HD
ATOM     13  H4  UNL     1      13.142   9.392  -5.364  0.00  0.00    +0.000 HD
ATOM     14  H5  UNL     1      14.238  11.961  -8.332  0.00  0.00    +0.000 HD
ENDROOT
TORSDOF 0
ENDMDL
MODEL 4
REMARK VINA RESULT:    -4.522     17.733     18.254
REMARK INTER + INTRA:          -4.522
REMARK INTER:                  -4.522
REMARK INTRA:                   0.000
REMARK UNBOUND:                 0.000
REMARK  Name = /home/anacleto/Desktop/manuscript_Mpro/naturecomm/supplementary_file_S2/6-chemical-library/molecular_docking/3D_ligand_structure/163.pdb
REMARK  0 active torsions:
REMARK  status: ('A' for Active; 'I' for Inactive)
REMARK                            x       y       z     vdW  Elec       q    Type
REMARK                         _______ _______ _______ _____ _____    ______ ____
ROOT
ATOM      1  C1  UNL     1      22.841  16.984  11.833  0.00  0.00    +0.000 A 
ATOM      2  C2  UNL     1      22.465  15.776  12.391  0.00  0.00    +0.000 A 
ATOM      3  N1  UNL     1      23.179  14.773  11.775  0.00  0.00    +0.000 N 
ATOM      4  C3  UNL     1      23.994  15.340  10.843  0.00  0.00    +0.000 A 
ATOM      5  C4  UNL     1      23.815  16.698  10.848  0.00  0.00    +0.000 A 
ATOM      6  N2  UNL     1      24.866  14.686  10.017  0.00  0.00    +0.000 N 
ATOM      7  C5  UNL     1      25.617  15.425   9.129  0.00  0.00    +0.000 A 
ATOM      8  O1  UNL     1      26.413  14.886   8.365  0.00  0.00    +0.000 OA
ATOM      9  N3  UNL     1      25.437  16.791   9.134  0.00  0.00    +0.000 N 
ATOM     10  C6  UNL     1      24.578  17.518   9.937  0.00  0.00    +0.000 A 
ATOM     11  O2  UNL     1      24.485  18.739   9.870  0.00  0.00    +0.000 OA
ATOM     12  H3  UNL     1      23.105  13.787  11.986  0.00  0.00    +0.000 HD
ATOM     13  H4  UNL     1      24.991  13.683  10.020  0.00  0.00    +0.000 HD
ATOM     14  H5  UNL     1      25.992  17.320   8.480  0.00  0.00    +0.000 HD
ENDROOT
TORSDOF 0
ENDMDL
MODEL 5
REMARK VINA RESULT:    -4.456      2.203      3.889
REMARK INTER + INTRA:          -4.456
REMARK INTER:                  -4.456
REMARK INTRA:                   0.000
REMARK UNBOUND:                 0.000
REMARK  Name = /home/anacleto/Desktop/manuscript_Mpro/naturecomm/supplementary_file_S2/6-chemical-library/molecular_docking/3D_ligand_structure/163.pdb
REMARK  0 active torsions:
REMARK  status: ('A' for Active; 'I' for Inactive)
REMARK                            x       y       z     vdW  Elec       q    Type
REMARK                         _______ _______ _______ _____ _____    ______ ____
ROOT
ATOM      1  C1  UNL     1      13.565  12.201  -5.780  0.00  0.00    +0.000 A 
ATOM      2  C2  UNL     1      12.929  10.975  -5.711  0.00  0.00    +0.000 A 
ATOM      3  N1  UNL     1      13.525  10.232  -4.717  0.00  0.00    +0.000 N 
ATOM      4  C3  UNL     1      14.523  10.979  -4.167  0.00  0.00    +0.000 A 
ATOM      5  C4  UNL     1      14.579  12.196  -4.793  0.00  0.00    +0.000 A 
ATOM      6  N2  UNL     1      15.355  10.604  -3.148  0.00  0.00    +0.000 N 
ATOM      7  C5  UNL     1      16.313  11.494  -2.715  0.00  0.00    +0.000 A 
ATOM      8  O1  UNL     1      17.085  11.205  -1.805  0.00  0.00    +0.000 OA
ATOM      9  N3  UNL     1      16.370  12.718  -3.345  0.00  0.00    +0.000 N 
ATOM     10  C6  UNL     1      15.565  13.165  -4.376  0.00  0.00    +0.000 A 
ATOM     11  O2  UNL     1      15.690  14.277  -4.878  0.00  0.00    +0.000 OA
ATOM     12  H3  UNL     1      13.262   9.294  -4.448  0.00  0.00    +0.000 HD
ATOM     13  H4  UNL     1      15.306   9.703  -2.692  0.00  0.00    +0.000 HD
ATOM     14  H5  UNL     1      17.075  13.359  -3.019  0.00  0.00    +0.000 HD
ENDROOT
TORSDOF 0
ENDMDL
MODEL 6
REMARK VINA RESULT:    -4.364      1.872      3.424
REMARK INTER + INTRA:          -4.364
REMARK INTER:                  -4.364
REMARK INTRA:                   0.000
REMARK UNBOUND:                 0.000
REMARK  Name = /home/anacleto/Desktop/manuscript_Mpro/naturecomm/supplementary_file_S2/6-chemical-library/molecular_docking/3D_ligand_structure/163.pdb
REMARK  0 active torsions:
REMARK  status: ('A' for Active; 'I' for Inactive)
REMARK                            x       y       z     vdW  Elec       q    Type
REMARK                         _______ _______ _______ _____ _____    ______ ____
ROOT
ATOM      1  C1  UNL     1      14.223  10.694  -4.687  0.00  0.00    +0.000 A 
ATOM      2  C2  UNL     1      13.508  11.089  -5.802  0.00  0.00    +0.000 A 
ATOM      3  N1  UNL     1      13.408  12.462  -5.790  0.00  0.00    +0.000 N 
ATOM      4  C3  UNL     1      14.050  12.926  -4.683  0.00  0.00    +0.000 A 
ATOM      5  C4  UNL     1      14.566  11.870  -3.978  0.00  0.00    +0.000 A 
ATOM      6  N2  UNL     1      14.181  14.234  -4.304  0.00  0.00    +0.000 N 
ATOM      7  C5  UNL     1      14.869  14.522  -3.146  0.00  0.00    +0.000 A 
ATOM      8  O1  UNL     1      15.013  15.680  -2.762  0.00  0.00    +0.000 OA
ATOM      9  N3  UNL     1      15.387  13.460  -2.438  0.00  0.00    +0.000 N 
ATOM     10  C6  UNL     1      15.296  12.118  -2.758  0.00  0.00    +0.000 A 
ATOM     11  O2  UNL     1      15.791  11.238  -2.063  0.00  0.00    +0.000 OA
ATOM     12  H3  UNL     1      12.936  13.022  -6.487  0.00  0.00    +0.000 HD
ATOM     13  H4  UNL     1      13.797  15.007  -4.831  0.00  0.00    +0.000 HD
ATOM     14  H5  UNL     1      15.888  13.685  -1.593  0.00  0.00    +0.000 HD
ENDROOT
TORSDOF 0
ENDMDL
MODEL 7
REMARK VINA RESULT:    -4.198     16.305     17.294
REMARK INTER + INTRA:          -4.198
REMARK INTER:                  -4.198
REMARK INTRA:                   0.000
REMARK UNBOUND:                 0.000
REMARK  Name = /home/anacleto/Desktop/manuscript_Mpro/naturecomm/supplementary_file_S2/6-chemical-library/molecular_docking/3D_ligand_structure/163.pdb
REMARK  0 active torsions:
REMARK  status: ('A' for Active; 'I' for Inactive)
REMARK                            x       y       z     vdW  Elec       q    Type
REMARK                         _______ _______ _______ _____ _____    ______ ____
ROOT
ATOM      1  C1  UNL     1      13.485   1.654   9.067  0.00  0.00    +0.000 A 
ATOM      2  C2  UNL     1      12.506   0.730   9.385  0.00  0.00    +0.000 A 
ATOM      3  N1  UNL     1      12.855  -0.480   8.829  0.00  0.00    +0.000 N 
ATOM      4  C3  UNL     1      14.036  -0.322   8.170  0.00  0.00    +0.000 A 
ATOM      5  C4  UNL     1      14.456   0.977   8.293  0.00  0.00    +0.000 A 
ATOM      6  N2  UNL     1      14.723  -1.286   7.484  0.00  0.00    +0.000 N 
ATOM      7  C5  UNL     1      15.910  -0.945   6.875  0.00  0.00    +0.000 A 
ATOM      8  O1  UNL     1      16.564  -1.774   6.246  0.00  0.00    +0.000 OA
ATOM      9  N3  UNL     1      16.332   0.360   6.998  0.00  0.00    +0.000 N 
ATOM     10  C6  UNL     1      15.695   1.384   7.673  0.00  0.00    +0.000 A 
ATOM     11  O2  UNL     1      16.149   2.522   7.729  0.00  0.00    +0.000 OA
ATOM     12  H3  UNL     1      12.320  -1.335   8.902  0.00  0.00    +0.000 HD
ATOM     13  H4  UNL     1      14.405  -2.242   7.399  0.00  0.00    +0.000 HD
ATOM     14  H5  UNL     1      17.202   0.596   6.548  0.00  0.00    +0.000 HD
ENDROOT
TORSDOF 0
ENDMDL
MODEL 8
REMARK VINA RESULT:    -4.073     16.004     17.433
REMARK INTER + INTRA:          -4.073
REMARK INTER:                  -4.073
REMARK INTRA:                   0.000
REMARK UNBOUND:                 0.000
REMARK  Name = /home/anacleto/Desktop/manuscript_Mpro/naturecomm/supplementary_file_S2/6-chemical-library/molecular_docking/3D_ligand_structure/163.pdb
REMARK  0 active torsions:
REMARK  status: ('A' for Active; 'I' for Inactive)
REMARK                            x       y       z     vdW  Elec       q    Type
REMARK                         _______ _______ _______ _____ _____    ______ ____
ROOT
ATOM      1  C1  UNL     1      13.730  -1.774   8.168  0.00  0.00    +0.000 A 
ATOM      2  C2  UNL     1      12.611  -1.269   8.804  0.00  0.00    +0.000 A 
ATOM      3  N1  UNL     1      12.756   0.095   8.919  0.00  0.00    +0.000 N 
ATOM      4  C3  UNL     1      13.948   0.446   8.362  0.00  0.00    +0.000 A 
ATOM      5  C4  UNL     1      14.577  -0.676   7.889  0.00  0.00    +0.000 A 
ATOM      6  N2  UNL     1      14.466   1.708   8.271  0.00  0.00    +0.000 N 
ATOM      7  C5  UNL     1      15.694   1.878   7.671  0.00  0.00    +0.000 A 
ATOM      8  O1  UNL     1      16.203   2.991   7.566  0.00  0.00    +0.000 OA
ATOM      9  N3  UNL     1      16.326   0.750   7.196  0.00  0.00    +0.000 N 
ATOM     10  C6  UNL     1      15.866  -0.552   7.251  0.00  0.00    +0.000 A 
ATOM     11  O2  UNL     1      16.502  -1.497   6.798  0.00  0.00    +0.000 OA
ATOM     12  H3  UNL     1      12.086   0.722   9.344  0.00  0.00    +0.000 HD
ATOM     13  H4  UNL     1      13.994   2.530   8.624  0.00  0.00    +0.000 HD
ATOM     14  H5  UNL     1      17.224   0.889   6.759  0.00  0.00    +0.000 HD
ENDROOT
TORSDOF 0
ENDMDL
MODEL 9
REMARK VINA RESULT:    -4.026     16.311     17.271
REMARK INTER + INTRA:          -4.026
REMARK INTER:                  -4.026
REMARK INTRA:                   0.000
REMARK UNBOUND:                 0.000
REMARK  Name = /home/anacleto/Desktop/manuscript_Mpro/naturecomm/supplementary_file_S2/6-chemical-library/molecular_docking/3D_ligand_structure/163.pdb
REMARK  0 active torsions:
REMARK  status: ('A' for Active; 'I' for Inactive)
REMARK                            x       y       z     vdW  Elec       q    Type
REMARK                         _______ _______ _______ _____ _____    ______ ____
ROOT
ATOM      1  C1  UNL     1      17.789   6.522  12.941  0.00  0.00    +0.000 A 
ATOM      2  C2  UNL     1      18.088   7.769  13.457  0.00  0.00    +0.000 A 
ATOM      3  N1  UNL     1      19.064   8.340  12.672  0.00  0.00    +0.000 N 
ATOM      4  C3  UNL     1      19.376   7.466  11.676  0.00  0.00    +0.000 A 
ATOM      5  C4  UNL     1      18.613   6.335  11.807  0.00  0.00    +0.000 A 
ATOM      6  N2  UNL     1      20.300   7.654  10.684  0.00  0.00    +0.000 N 
ATOM      7  C5  UNL     1      20.485   6.655   9.754  0.00  0.00    +0.000 A 
ATOM      8  O1  UNL     1      21.303   6.775   8.845  0.00  0.00    +0.000 OA
ATOM      9  N3  UNL     1      19.718   5.519   9.886  0.00  0.00    +0.000 N 
ATOM     10  C6  UNL     1      18.769   5.259  10.857  0.00  0.00    +0.000 A 
ATOM     11  O2  UNL     1      18.131   4.212  10.894  0.00  0.00    +0.000 OA
ATOM     12  H3  UNL     1      19.474   9.253  12.817  0.00  0.00    +0.000 HD
ATOM     13  H4  UNL     1      20.859   8.492  10.596  0.00  0.00    +0.000 HD
ATOM     14  H5  UNL     1      19.864   4.796   9.199  0.00  0.00    +0.000 HD
ENDROOT
TORSDOF 0
ENDMDL
