MODEL 1
REMARK VINA RESULT:    -2.956      0.000      0.000
REMARK INTER + INTRA:          -3.054
REMARK INTER:                  -3.180
REMARK INTRA:                   0.126
REMARK UNBOUND:                 0.075
REMARK  Name = /home/anacleto/Desktop/manuscript_Mpro/naturecomm/supplementary_file_S2/6-chemical-library/molecular_docking/3D_ligand_structure/1406.pdb
REMARK  1 active torsions:
REMARK  status: ('A' for Active; 'I' for Inactive)
REMARK    1  A    between atoms: C3_3  and  N1_4
REMARK                            x       y       z     vdW  Elec       q    Type
REMARK                         _______ _______ _______ _____ _____    ______ ____
ROOT
ATOM      1  N1  UNL     1     -36.982  11.532 -31.274  0.00  0.00    +0.000 N 
ATOM      2  C4  UNL     1     -37.393  11.205 -30.025  0.00  0.00    +0.000 A 
ATOM      3  N2  UNL     1     -37.743  12.305 -29.395  0.00  0.00    +0.000 NA
ATOM      4  N3  UNL     1     -37.564  13.364 -30.265  0.00  0.00    +0.000 NA
ATOM      5  C5  UNL     1     -37.110  12.876 -31.400  0.00  0.00    +0.000 A 
ENDROOT
BRANCH   1   8
ATOM      6  C1  UNL     1     -35.161  10.638 -32.914  0.00  0.00    +0.000 C 
ATOM      7  C2  UNL     1     -36.341  11.032 -33.752  0.00  0.00    +0.000 C 
ATOM      8  C3  UNL     1     -36.549  10.597 -32.321  0.00  0.00    +0.000 C 
ENDBRANCH   1   8
TORSDOF 1
ENDMDL
MODEL 2
REMARK VINA RESULT:    -2.925     16.871     18.142
REMARK INTER + INTRA:          -3.021
REMARK INTER:                  -3.112
REMARK INTRA:                   0.092
REMARK UNBOUND:                 0.075
REMARK  Name = /home/anacleto/Desktop/manuscript_Mpro/naturecomm/supplementary_file_S2/6-chemical-library/molecular_docking/3D_ligand_structure/1406.pdb
REMARK  1 active torsions:
REMARK  status: ('A' for Active; 'I' for Inactive)
REMARK    1  A    between atoms: C3_3  and  N1_4
REMARK                            x       y       z     vdW  Elec       q    Type
REMARK                         _______ _______ _______ _____ _____    ______ ____
ROOT
ATOM      1  N1  UNL     1     -37.897   6.944 -13.923  0.00  0.00    +0.000 N 
ATOM      2  C4  UNL     1     -37.606   5.811 -14.607  0.00  0.00    +0.000 A 
ATOM      3  N2  UNL     1     -38.030   4.777 -13.912  0.00  0.00    +0.000 NA
ATOM      4  N3  UNL     1     -38.620   5.260 -12.758  0.00  0.00    +0.000 NA
ATOM      5  C5  UNL     1     -38.537   6.573 -12.787  0.00  0.00    +0.000 A 
ENDROOT
BRANCH   1   8
ATOM      6  C1  UNL     1     -38.619   9.093 -15.213  0.00  0.00    +0.000 C 
ATOM      7  C2  UNL     1     -37.311   8.654 -15.802  0.00  0.00    +0.000 C 
ATOM      8  C3  UNL     1     -37.636   8.319 -14.366  0.00  0.00    +0.000 C 
ENDBRANCH   1   8
TORSDOF 1
ENDMDL
MODEL 3
REMARK VINA RESULT:    -2.918     16.181     17.437
REMARK INTER + INTRA:          -3.013
REMARK INTER:                  -3.092
REMARK INTRA:                   0.079
REMARK UNBOUND:                 0.075
REMARK  Name = /home/anacleto/Desktop/manuscript_Mpro/naturecomm/supplementary_file_S2/6-chemical-library/molecular_docking/3D_ligand_structure/1406.pdb
REMARK  1 active torsions:
REMARK  status: ('A' for Active; 'I' for Inactive)
REMARK    1  A    between atoms: C3_3  and  N1_4
REMARK                            x       y       z     vdW  Elec       q    Type
REMARK                         _______ _______ _______ _____ _____    ______ ____
ROOT
ATOM      1  N1  UNL     1     -38.139   7.643 -14.642  0.00  0.00    +0.000 N 
ATOM      2  C4  UNL     1     -37.484   8.464 -15.498  0.00  0.00    +0.000 A 
ATOM      3  N2  UNL     1     -38.289   9.448 -15.837  0.00  0.00    +0.000 NA
ATOM      4  N3  UNL     1     -39.486   9.260 -15.172  0.00  0.00    +0.000 NA
ATOM      5  C5  UNL     1     -39.373   8.167 -14.447  0.00  0.00    +0.000 A 
ENDROOT
BRANCH   1   8
ATOM      6  C1  UNL     1     -37.449   5.128 -14.706  0.00  0.00    +0.000 C 
ATOM      7  C2  UNL     1     -38.451   5.273 -13.599  0.00  0.00    +0.000 C 
ATOM      8  C3  UNL     1     -37.587   6.449 -13.988  0.00  0.00    +0.000 C 
ENDBRANCH   1   8
TORSDOF 1
ENDMDL
MODEL 4
REMARK VINA RESULT:    -2.916      2.940      3.910
REMARK INTER + INTRA:          -3.011
REMARK INTER:                  -3.105
REMARK INTRA:                   0.094
REMARK UNBOUND:                 0.075
REMARK  Name = /home/anacleto/Desktop/manuscript_Mpro/naturecomm/supplementary_file_S2/6-chemical-library/molecular_docking/3D_ligand_structure/1406.pdb
REMARK  1 active torsions:
REMARK  status: ('A' for Active; 'I' for Inactive)
REMARK    1  A    between atoms: C3_3  and  N1_4
REMARK                            x       y       z     vdW  Elec       q    Type
REMARK                         _______ _______ _______ _____ _____    ______ ____
ROOT
ATOM      1  N1  UNL     1     -34.218  11.730 -32.874  0.00  0.00    +0.000 N 
ATOM      2  C4  UNL     1     -34.120  12.699 -31.931  0.00  0.00    +0.000 A 
ATOM      3  N2  UNL     1     -33.084  13.459 -32.214  0.00  0.00    +0.000 NA
ATOM      4  N3  UNL     1     -32.510  12.972 -33.374  0.00  0.00    +0.000 NA
ATOM      5  C5  UNL     1     -33.215  11.931 -33.762  0.00  0.00    +0.000 A 
ENDROOT
BRANCH   1   8
ATOM      6  C1  UNL     1     -36.606  10.966 -33.593  0.00  0.00    +0.000 C 
ATOM      7  C2  UNL     1     -36.512  10.751 -32.112  0.00  0.00    +0.000 C 
ATOM      8  C3  UNL     1     -35.262  10.700 -32.958  0.00  0.00    +0.000 C 
ENDBRANCH   1   8
TORSDOF 1
ENDMDL
MODEL 5
REMARK VINA RESULT:    -2.868      2.448      3.227
REMARK INTER + INTRA:          -2.960
REMARK INTER:                  -3.036
REMARK INTRA:                   0.075
REMARK UNBOUND:                 0.075
REMARK  Name = /home/anacleto/Desktop/manuscript_Mpro/naturecomm/supplementary_file_S2/6-chemical-library/molecular_docking/3D_ligand_structure/1406.pdb
REMARK  1 active torsions:
REMARK  status: ('A' for Active; 'I' for Inactive)
REMARK    1  A    between atoms: C3_3  and  N1_4
REMARK                            x       y       z     vdW  Elec       q    Type
REMARK                         _______ _______ _______ _____ _____    ______ ____
ROOT
ATOM      1  N1  UNL     1     -35.392  12.796 -31.681  0.00  0.00    +0.000 N 
ATOM      2  C4  UNL     1     -35.157  13.905 -30.938  0.00  0.00    +0.000 A 
ATOM      3  N2  UNL     1     -33.905  14.271 -31.110  0.00  0.00    +0.000 NA
ATOM      4  N3  UNL     1     -33.325  13.380 -31.994  0.00  0.00    +0.000 NA
ATOM      5  C5  UNL     1     -34.242  12.500 -32.334  0.00  0.00    +0.000 A 
ENDROOT
BRANCH   1   8
ATOM      6  C1  UNL     1     -37.154  11.096 -30.781  0.00  0.00    +0.000 C 
ATOM      7  C2  UNL     1     -36.753  10.621 -32.146  0.00  0.00    +0.000 C 
ATOM      8  C3  UNL     1     -36.674  12.091 -31.811  0.00  0.00    +0.000 C 
ENDBRANCH   1   8
TORSDOF 1
ENDMDL
MODEL 6
REMARK VINA RESULT:    -2.867     15.450     16.796
REMARK INTER + INTRA:          -2.960
REMARK INTER:                  -3.045
REMARK INTRA:                   0.086
REMARK UNBOUND:                 0.075
REMARK  Name = /home/anacleto/Desktop/manuscript_Mpro/naturecomm/supplementary_file_S2/6-chemical-library/molecular_docking/3D_ligand_structure/1406.pdb
REMARK  1 active torsions:
REMARK  status: ('A' for Active; 'I' for Inactive)
REMARK    1  A    between atoms: C3_3  and  N1_4
REMARK                            x       y       z     vdW  Elec       q    Type
REMARK                         _______ _______ _______ _____ _____    ______ ____
ROOT
ATOM      1  N1  UNL     1     -21.746   8.371 -37.614  0.00  0.00    +0.000 N 
ATOM      2  C4  UNL     1     -21.521   9.402 -36.763  0.00  0.00    +0.000 A 
ATOM      3  N2  UNL     1     -22.650  10.051 -36.578  0.00  0.00    +0.000 NA
ATOM      4  N3  UNL     1     -23.628   9.414 -37.320  0.00  0.00    +0.000 NA
ATOM      5  C5  UNL     1     -23.063   8.395 -37.933  0.00  0.00    +0.000 A 
ENDROOT
BRANCH   1   8
ATOM      6  C1  UNL     1     -19.701   7.678 -39.077  0.00  0.00    +0.000 C 
ATOM      7  C2  UNL     1     -20.815   6.732 -39.416  0.00  0.00    +0.000 C 
ATOM      8  C3  UNL     1     -20.763   7.370 -38.048  0.00  0.00    +0.000 C 
ENDBRANCH   1   8
TORSDOF 1
ENDMDL
MODEL 7
REMARK VINA RESULT:    -2.849     12.634     14.070
REMARK INTER + INTRA:          -2.940
REMARK INTER:                  -3.007
REMARK INTRA:                   0.067
REMARK UNBOUND:                 0.075
REMARK  Name = /home/anacleto/Desktop/manuscript_Mpro/naturecomm/supplementary_file_S2/6-chemical-library/molecular_docking/3D_ligand_structure/1406.pdb
REMARK  1 active torsions:
REMARK  status: ('A' for Active; 'I' for Inactive)
REMARK    1  A    between atoms: C3_3  and  N1_4
REMARK                            x       y       z     vdW  Elec       q    Type
REMARK                         _______ _______ _______ _____ _____    ______ ____
ROOT
ATOM      1  N1  UNL     1     -27.769   4.157 -38.664  0.00  0.00    +0.000 N 
ATOM      2  C4  UNL     1     -26.433   4.361 -38.755  0.00  0.00    +0.000 A 
ATOM      3  N2  UNL     1     -25.812   3.253 -38.414  0.00  0.00    +0.000 NA
ATOM      4  N3  UNL     1     -26.775   2.309 -38.107  0.00  0.00    +0.000 NA
ATOM      5  C5  UNL     1     -27.953   2.873 -38.272  0.00  0.00    +0.000 A 
ENDROOT
BRANCH   1   8
ATOM      6  C1  UNL     1     -29.316   6.153 -38.010  0.00  0.00    +0.000 C 
ATOM      7  C2  UNL     1     -30.216   5.028 -38.426  0.00  0.00    +0.000 C 
ATOM      8  C3  UNL     1     -28.823   5.124 -38.999  0.00  0.00    +0.000 C 
ENDBRANCH   1   8
TORSDOF 1
ENDMDL
MODEL 8
REMARK VINA RESULT:    -2.835     18.942     19.987
REMARK INTER + INTRA:          -2.926
REMARK INTER:                  -3.018
REMARK INTRA:                   0.093
REMARK UNBOUND:                 0.075
REMARK  Name = /home/anacleto/Desktop/manuscript_Mpro/naturecomm/supplementary_file_S2/6-chemical-library/molecular_docking/3D_ligand_structure/1406.pdb
REMARK  1 active torsions:
REMARK  status: ('A' for Active; 'I' for Inactive)
REMARK    1  A    between atoms: C3_3  and  N1_4
REMARK                            x       y       z     vdW  Elec       q    Type
REMARK                         _______ _______ _______ _____ _____    ______ ____
ROOT
ATOM      1  N1  UNL     1     -25.062  -3.989 -28.072  0.00  0.00    +0.000 N 
ATOM      2  C4  UNL     1     -24.190  -3.527 -29.001  0.00  0.00    +0.000 A 
ATOM      3  N2  UNL     1     -23.009  -3.388 -28.438  0.00  0.00    +0.000 NA
ATOM      4  N3  UNL     1     -23.122  -3.783 -27.118  0.00  0.00    +0.000 NA
ATOM      5  C5  UNL     1     -24.370  -4.151 -26.918  0.00  0.00    +0.000 A 
ENDROOT
BRANCH   1   8
ATOM      6  C1  UNL     1     -27.535  -3.265 -28.471  0.00  0.00    +0.000 C 
ATOM      7  C2  UNL     1     -27.528  -4.114 -27.235  0.00  0.00    +0.000 C 
ATOM      8  C3  UNL     1     -26.474  -4.325 -28.295  0.00  0.00    +0.000 C 
ENDBRANCH   1   8
TORSDOF 1
ENDMDL
MODEL 9
REMARK VINA RESULT:    -2.830     12.507     14.004
REMARK INTER + INTRA:          -2.920
REMARK INTER:                  -2.994
REMARK INTRA:                   0.073
REMARK UNBOUND:                 0.075
REMARK  Name = /home/anacleto/Desktop/manuscript_Mpro/naturecomm/supplementary_file_S2/6-chemical-library/molecular_docking/3D_ligand_structure/1406.pdb
REMARK  1 active torsions:
REMARK  status: ('A' for Active; 'I' for Inactive)
REMARK    1  A    between atoms: C3_3  and  N1_4
REMARK                            x       y       z     vdW  Elec       q    Type
REMARK                         _______ _______ _______ _____ _____    ______ ____
ROOT
ATOM      1  N1  UNL     1     -27.676   4.508 -38.864  0.00  0.00    +0.000 N 
ATOM      2  C4  UNL     1     -28.862   4.973 -38.402  0.00  0.00    +0.000 A 
ATOM      3  N2  UNL     1     -28.863   6.286 -38.489  0.00  0.00    +0.000 NA
ATOM      4  N3  UNL     1     -27.651   6.672 -39.033  0.00  0.00    +0.000 NA
ATOM      5  C5  UNL     1     -26.950   5.581 -39.260  0.00  0.00    +0.000 A 
ENDROOT
BRANCH   1   8
ATOM      6  C1  UNL     1     -26.764   2.304 -37.807  0.00  0.00    +0.000 C 
ATOM      7  C2  UNL     1     -25.838   2.659 -38.932  0.00  0.00    +0.000 C 
ATOM      8  C3  UNL     1     -27.282   3.098 -38.983  0.00  0.00    +0.000 C 
ENDBRANCH   1   8
TORSDOF 1
ENDMDL
