MODEL 1
REMARK VINA RESULT:    -4.390      0.000      0.000
REMARK INTER + INTRA:          -4.805
REMARK INTER:                  -4.649
REMARK INTRA:                  -0.156
REMARK UNBOUND:                -0.159
REMARK  Name = /home/anacleto/Desktop/manuscript_Mpro/naturecomm/supplementary_file_S2/6-chemical-library/molecular_docking/3D_ligand_structure/1309.pdb
REMARK  1 active torsions:
REMARK  status: ('A' for Active; 'I' for Inactive)
REMARK    1  A    between atoms: C4_5  and  C5_6
REMARK                            x       y       z     vdW  Elec       q    Type
REMARK                         _______ _______ _______ _____ _____    ______ ____
ROOT
ATOM      1  C1  UNL     1      19.446   7.952  12.902  0.00  0.00    +0.000 C 
ATOM      2  N1  UNL     1      18.614   8.172  14.095  0.00  0.00    +0.000 NA
ATOM      3  C2  UNL     1      17.316   7.598  13.726  0.00  0.00    +0.000 C 
ATOM      4  C3  UNL     1      17.655   6.317  12.980  0.00  0.00    +0.000 C 
ATOM      5  C4  UNL     1      19.051   6.560  12.390  0.00  0.00    +0.000 C 
ATOM      6  H3  UNL     1      19.003   7.626  14.865  0.00  0.00    +0.000 HD
ENDROOT
BRANCH   5   7
ATOM      7  C5  UNL     1      19.126   6.428  10.885  0.00  0.00    +0.000 A 
ATOM      8  C6  UNL     1      18.806   5.227  10.233  0.00  0.00    +0.000 A 
ATOM      9  C7  UNL     1      18.878   5.129   8.842  0.00  0.00    +0.000 A 
ATOM     10  C8  UNL     1      19.270   6.230   8.084  0.00  0.00    +0.000 A 
ATOM     11  C9  UNL     1      19.588   7.429   8.716  0.00  0.00    +0.000 A 
ATOM     12  C10 UNL     1      19.516   7.529  10.107  0.00  0.00    +0.000 A 
ENDBRANCH   5   7
TORSDOF 1
ENDMDL
MODEL 2
REMARK VINA RESULT:    -4.332     15.107     16.935
REMARK INTER + INTRA:          -4.744
REMARK INTER:                  -4.579
REMARK INTRA:                  -0.165
REMARK UNBOUND:                -0.159
REMARK  Name = /home/anacleto/Desktop/manuscript_Mpro/naturecomm/supplementary_file_S2/6-chemical-library/molecular_docking/3D_ligand_structure/1309.pdb
REMARK  1 active torsions:
REMARK  status: ('A' for Active; 'I' for Inactive)
REMARK    1  A    between atoms: C4_5  and  C5_6
REMARK                            x       y       z     vdW  Elec       q    Type
REMARK                         _______ _______ _______ _____ _____    ______ ____
ROOT
ATOM      1  C1  UNL     1      14.215  12.645  -5.019  0.00  0.00    +0.000 C 
ATOM      2  N1  UNL     1      12.906  12.471  -5.666  0.00  0.00    +0.000 NA
ATOM      3  C2  UNL     1      12.891  11.056  -6.048  0.00  0.00    +0.000 C 
ATOM      4  C3  UNL     1      13.514  10.327  -4.868  0.00  0.00    +0.000 C 
ATOM      5  C4  UNL     1      14.432  11.362  -4.204  0.00  0.00    +0.000 C 
ATOM      6  H3  UNL     1      12.177  12.626  -4.968  0.00  0.00    +0.000 HD
ENDROOT
BRANCH   5   7
ATOM      7  C5  UNL     1      15.883  10.945  -4.112  0.00  0.00    +0.000 A 
ATOM      8  C6  UNL     1      16.462  10.550  -2.896  0.00  0.00    +0.000 A 
ATOM      9  C7  UNL     1      17.801  10.164  -2.835  0.00  0.00    +0.000 A 
ATOM     10  C8  UNL     1      18.582  10.167  -3.989  0.00  0.00    +0.000 A 
ATOM     11  C9  UNL     1      18.022  10.554  -5.204  0.00  0.00    +0.000 A 
ATOM     12  C10 UNL     1      16.681  10.939  -5.266  0.00  0.00    +0.000 A 
ENDBRANCH   5   7
TORSDOF 1
ENDMDL
MODEL 3
REMARK VINA RESULT:    -4.276      2.080      4.568
REMARK INTER + INTRA:          -4.684
REMARK INTER:                  -4.526
REMARK INTRA:                  -0.159
REMARK UNBOUND:                -0.159
REMARK  Name = /home/anacleto/Desktop/manuscript_Mpro/naturecomm/supplementary_file_S2/6-chemical-library/molecular_docking/3D_ligand_structure/1309.pdb
REMARK  1 active torsions:
REMARK  status: ('A' for Active; 'I' for Inactive)
REMARK    1  A    between atoms: C4_5  and  C5_6
REMARK                            x       y       z     vdW  Elec       q    Type
REMARK                         _______ _______ _______ _____ _____    ______ ____
ROOT
ATOM      1  C1  UNL     1      18.791   5.489  10.015  0.00  0.00    +0.000 C 
ATOM      2  N1  UNL     1      18.815   5.682   8.557  0.00  0.00    +0.000 NA
ATOM      3  C2  UNL     1      19.015   7.126   8.400  0.00  0.00    +0.000 C 
ATOM      4  C3  UNL     1      20.039   7.495   9.462  0.00  0.00    +0.000 C 
ATOM      5  C4  UNL     1      19.867   6.439  10.561  0.00  0.00    +0.000 C 
ATOM      6  H3  UNL     1      19.631   5.198   8.180  0.00  0.00    +0.000 HD
ENDROOT
BRANCH   5   7
ATOM      7  C5  UNL     1      19.535   7.003  11.925  0.00  0.00    +0.000 A 
ATOM      8  C6  UNL     1      18.209   7.215  12.334  0.00  0.00    +0.000 A 
ATOM      9  C7  UNL     1      17.926   7.732  13.599  0.00  0.00    +0.000 A 
ATOM     10  C8  UNL     1      18.964   8.045  14.474  0.00  0.00    +0.000 A 
ATOM     11  C9  UNL     1      20.285   7.838  14.084  0.00  0.00    +0.000 A 
ATOM     12  C10 UNL     1      20.569   7.320  12.819  0.00  0.00    +0.000 A 
ENDBRANCH   5   7
TORSDOF 1
ENDMDL
MODEL 4
REMARK VINA RESULT:    -4.169     14.526     16.576
REMARK INTER + INTRA:          -4.571
REMARK INTER:                  -4.406
REMARK INTRA:                  -0.166
REMARK UNBOUND:                -0.159
REMARK  Name = /home/anacleto/Desktop/manuscript_Mpro/naturecomm/supplementary_file_S2/6-chemical-library/molecular_docking/3D_ligand_structure/1309.pdb
REMARK  1 active torsions:
REMARK  status: ('A' for Active; 'I' for Inactive)
REMARK    1  A    between atoms: C4_5  and  C5_6
REMARK                            x       y       z     vdW  Elec       q    Type
REMARK                         _______ _______ _______ _____ _____    ______ ____
ROOT
ATOM      1  C1  UNL     1      17.055  10.332  -3.040  0.00  0.00    +0.000 C 
ATOM      2  N1  UNL     1      17.610  10.975  -1.839  0.00  0.00    +0.000 NA
ATOM      3  C2  UNL     1      17.051  12.330  -1.879  0.00  0.00    +0.000 C 
ATOM      4  C3  UNL     1      15.609  12.143  -2.322  0.00  0.00    +0.000 C 
ATOM      5  C4  UNL     1      15.610  10.841  -3.133  0.00  0.00    +0.000 C 
ATOM      6  H3  UNL     1      17.242  10.497  -1.016  0.00  0.00    +0.000 HD
ENDROOT
BRANCH   5   7
ATOM      7  C5  UNL     1      15.114  10.988  -4.554  0.00  0.00    +0.000 A 
ATOM      8  C6  UNL     1      13.775  10.746  -4.898  0.00  0.00    +0.000 A 
ATOM      9  C7  UNL     1      13.338  10.893  -6.215  0.00  0.00    +0.000 A 
ATOM     10  C8  UNL     1      14.233  11.284  -7.209  0.00  0.00    +0.000 A 
ATOM     11  C9  UNL     1      15.564  11.531  -6.883  0.00  0.00    +0.000 A 
ATOM     12  C10 UNL     1      16.002  11.385  -5.566  0.00  0.00    +0.000 A 
ENDBRANCH   5   7
TORSDOF 1
ENDMDL
MODEL 5
REMARK VINA RESULT:    -4.009     14.688     16.839
REMARK INTER + INTRA:          -4.402
REMARK INTER:                  -4.244
REMARK INTRA:                  -0.159
REMARK UNBOUND:                -0.159
REMARK  Name = /home/anacleto/Desktop/manuscript_Mpro/naturecomm/supplementary_file_S2/6-chemical-library/molecular_docking/3D_ligand_structure/1309.pdb
REMARK  1 active torsions:
REMARK  status: ('A' for Active; 'I' for Inactive)
REMARK    1  A    between atoms: C4_5  and  C5_6
REMARK                            x       y       z     vdW  Elec       q    Type
REMARK                         _______ _______ _______ _____ _____    ______ ____
ROOT
ATOM      1  C1  UNL     1      17.357  12.599  -3.670  0.00  0.00    +0.000 C 
ATOM      2  N1  UNL     1      18.110  12.284  -2.446  0.00  0.00    +0.000 NA
ATOM      3  C2  UNL     1      17.485  11.050  -1.960  0.00  0.00    +0.000 C 
ATOM      4  C3  UNL     1      17.240  10.219  -3.209  0.00  0.00    +0.000 C 
ATOM      5  C4  UNL     1      17.108  11.243  -4.345  0.00  0.00    +0.000 C 
ATOM      6  H3  UNL     1      19.076  12.079  -2.704  0.00  0.00    +0.000 HD
ENDROOT
BRANCH   5   7
ATOM      7  C5  UNL     1      15.798  11.177  -5.098  0.00  0.00    +0.000 A 
ATOM      8  C6  UNL     1      15.716  11.482  -6.466  0.00  0.00    +0.000 A 
ATOM      9  C7  UNL     1      14.498  11.410  -7.142  0.00  0.00    +0.000 A 
ATOM     10  C8  UNL     1      13.343  11.031  -6.461  0.00  0.00    +0.000 A 
ATOM     11  C9  UNL     1      13.408  10.722  -5.105  0.00  0.00    +0.000 A 
ATOM     12  C10 UNL     1      14.626  10.793  -4.428  0.00  0.00    +0.000 A 
ENDBRANCH   5   7
TORSDOF 1
ENDMDL
MODEL 6
REMARK VINA RESULT:    -3.989     17.048     18.602
REMARK INTER + INTRA:          -4.381
REMARK INTER:                  -4.223
REMARK INTRA:                  -0.158
REMARK UNBOUND:                -0.159
REMARK  Name = /home/anacleto/Desktop/manuscript_Mpro/naturecomm/supplementary_file_S2/6-chemical-library/molecular_docking/3D_ligand_structure/1309.pdb
REMARK  1 active torsions:
REMARK  status: ('A' for Active; 'I' for Inactive)
REMARK    1  A    between atoms: C4_5  and  C5_6
REMARK                            x       y       z     vdW  Elec       q    Type
REMARK                         _______ _______ _______ _____ _____    ______ ____
ROOT
ATOM      1  C1  UNL     1      13.757  10.713  -7.370  0.00  0.00    +0.000 C 
ATOM      2  N1  UNL     1      12.407  11.009  -6.866  0.00  0.00    +0.000 NA
ATOM      3  C2  UNL     1      12.640  11.478  -5.497  0.00  0.00    +0.000 C 
ATOM      4  C3  UNL     1      13.875  12.361  -5.593  0.00  0.00    +0.000 C 
ATOM      5  C4  UNL     1      14.647  11.831  -6.808  0.00  0.00    +0.000 C 
ATOM      6  H3  UNL     1      12.021  11.780  -7.412  0.00  0.00    +0.000 HD
ENDROOT
BRANCH   5   7
ATOM      7  C5  UNL     1      16.059  11.382  -6.505  0.00  0.00    +0.000 A 
ATOM      8  C6  UNL     1      17.047  11.331  -7.500  0.00  0.00    +0.000 A 
ATOM      9  C7  UNL     1      18.345  10.918  -7.197  0.00  0.00    +0.000 A 
ATOM     10  C8  UNL     1      18.675  10.550  -5.894  0.00  0.00    +0.000 A 
ATOM     11  C9  UNL     1      17.706  10.597  -4.895  0.00  0.00    +0.000 A 
ATOM     12  C10 UNL     1      16.408  11.011  -5.197  0.00  0.00    +0.000 A 
ENDBRANCH   5   7
TORSDOF 1
ENDMDL
MODEL 7
REMARK VINA RESULT:    -3.942     15.284     17.535
REMARK INTER + INTRA:          -4.332
REMARK INTER:                  -4.166
REMARK INTRA:                  -0.166
REMARK UNBOUND:                -0.159
REMARK  Name = /home/anacleto/Desktop/manuscript_Mpro/naturecomm/supplementary_file_S2/6-chemical-library/molecular_docking/3D_ligand_structure/1309.pdb
REMARK  1 active torsions:
REMARK  status: ('A' for Active; 'I' for Inactive)
REMARK    1  A    between atoms: C4_5  and  C5_6
REMARK                            x       y       z     vdW  Elec       q    Type
REMARK                         _______ _______ _______ _____ _____    ______ ____
ROOT
ATOM      1  C1  UNL     1      15.270  11.441  -6.687  0.00  0.00    +0.000 C 
ATOM      2  N1  UNL     1      14.290  11.001  -7.691  0.00  0.00    +0.000 NA
ATOM      3  C2  UNL     1      13.123  10.610  -6.894  0.00  0.00    +0.000 C 
ATOM      4  C3  UNL     1      13.019  11.672  -5.810  0.00  0.00    +0.000 C 
ATOM      5  C4  UNL     1      14.449  12.199  -5.633  0.00  0.00    +0.000 C 
ATOM      6  H3  UNL     1      14.034  11.804  -8.267  0.00  0.00    +0.000 HD
ENDROOT
BRANCH   5   7
ATOM      7  C5  UNL     1      14.997  12.062  -4.230  0.00  0.00    +0.000 A 
ATOM      8  C6  UNL     1      14.973  13.131  -3.321  0.00  0.00    +0.000 A 
ATOM      9  C7  UNL     1      15.480  12.981  -2.030  0.00  0.00    +0.000 A 
ATOM     10  C8  UNL     1      16.018  11.761  -1.627  0.00  0.00    +0.000 A 
ATOM     11  C9  UNL     1      16.046  10.689  -2.517  0.00  0.00    +0.000 A 
ATOM     12  C10 UNL     1      15.539  10.838  -3.809  0.00  0.00    +0.000 A 
ENDBRANCH   5   7
TORSDOF 1
ENDMDL
MODEL 8
REMARK VINA RESULT:    -3.916      7.046      8.187
REMARK INTER + INTRA:          -4.303
REMARK INTER:                  -4.152
REMARK INTRA:                  -0.152
REMARK UNBOUND:                -0.159
REMARK  Name = /home/anacleto/Desktop/manuscript_Mpro/naturecomm/supplementary_file_S2/6-chemical-library/molecular_docking/3D_ligand_structure/1309.pdb
REMARK  1 active torsions:
REMARK  status: ('A' for Active; 'I' for Inactive)
REMARK    1  A    between atoms: C4_5  and  C5_6
REMARK                            x       y       z     vdW  Elec       q    Type
REMARK                         _______ _______ _______ _____ _____    ______ ____
ROOT
ATOM      1  C1  UNL     1      12.652  -0.546   9.205  0.00  0.00    +0.000 C 
ATOM      2  N1  UNL     1      11.951  -1.246  10.292  0.00  0.00    +0.000 NA
ATOM      3  C2  UNL     1      12.623  -0.768  11.505  0.00  0.00    +0.000 C 
ATOM      4  C3  UNL     1      12.844   0.717  11.268  0.00  0.00    +0.000 C 
ATOM      5  C4  UNL     1      12.911   0.869   9.743  0.00  0.00    +0.000 C 
ATOM      6  H3  UNL     1      10.982  -0.926  10.311  0.00  0.00    +0.000 HD
ENDROOT
BRANCH   5   7
ATOM      7  C5  UNL     1      14.195   1.482   9.230  0.00  0.00    +0.000 A 
ATOM      8  C6  UNL     1      14.848   2.514   9.923  0.00  0.00    +0.000 A 
ATOM      9  C7  UNL     1      16.035   3.062   9.434  0.00  0.00    +0.000 A 
ATOM     10  C8  UNL     1      16.586   2.587   8.246  0.00  0.00    +0.000 A 
ATOM     11  C9  UNL     1      15.952   1.562   7.548  0.00  0.00    +0.000 A 
ATOM     12  C10 UNL     1      14.765   1.012   8.037  0.00  0.00    +0.000 A 
ENDBRANCH   5   7
TORSDOF 1
ENDMDL
MODEL 9
REMARK VINA RESULT:    -3.889     17.092     19.071
REMARK INTER + INTRA:          -4.276
REMARK INTER:                  -4.117
REMARK INTRA:                  -0.159
REMARK UNBOUND:                -0.159
REMARK  Name = /home/anacleto/Desktop/manuscript_Mpro/naturecomm/supplementary_file_S2/6-chemical-library/molecular_docking/3D_ligand_structure/1309.pdb
REMARK  1 active torsions:
REMARK  status: ('A' for Active; 'I' for Inactive)
REMARK    1  A    between atoms: C4_5  and  C5_6
REMARK                            x       y       z     vdW  Elec       q    Type
REMARK                         _______ _______ _______ _____ _____    ______ ____
ROOT
ATOM      1  C1  UNL     1      15.140  11.136  -4.767  0.00  0.00    +0.000 C 
ATOM      2  N1  UNL     1      13.854  10.506  -4.435  0.00  0.00    +0.000 NA
ATOM      3  C2  UNL     1      12.933  11.039  -5.444  0.00  0.00    +0.000 C 
ATOM      4  C3  UNL     1      13.730  11.036  -6.739  0.00  0.00    +0.000 C 
ATOM      5  C4  UNL     1      15.196  11.146  -6.301  0.00  0.00    +0.000 C 
ATOM      6  H3  UNL     1      13.941   9.499  -4.576  0.00  0.00    +0.000 HD
ENDROOT
BRANCH   5   7
ATOM      7  C5  UNL     1      15.931  12.339  -6.870  0.00  0.00    +0.000 A 
ATOM      8  C6  UNL     1      15.656  13.648  -6.442  0.00  0.00    +0.000 A 
ATOM      9  C7  UNL     1      16.349  14.734  -6.976  0.00  0.00    +0.000 A 
ATOM     10  C8  UNL     1      17.328  14.530  -7.946  0.00  0.00    +0.000 A 
ATOM     11  C9  UNL     1      17.615  13.237  -8.380  0.00  0.00    +0.000 A 
ATOM     12  C10 UNL     1      16.922  12.150  -7.845  0.00  0.00    +0.000 A 
ENDBRANCH   5   7
TORSDOF 1
ENDMDL
