MODEL 1
REMARK VINA RESULT:    -2.391      0.000      0.000
REMARK INTER + INTRA:          -2.391
REMARK INTER:                  -2.391
REMARK INTRA:                   0.000
REMARK UNBOUND:                 0.000
REMARK  Name = /home/anacleto/Desktop/manuscript_Mpro/naturecomm/supplementary_file_S2/6-chemical-library/molecular_docking/3D_ligand_structure/116.pdb
REMARK  0 active torsions:
REMARK  status: ('A' for Active; 'I' for Inactive)
REMARK                            x       y       z     vdW  Elec       q    Type
REMARK                         _______ _______ _______ _____ _____    ______ ____
ROOT
ATOM      1  C1  UNL     1      14.575  12.056  -6.614  0.00  0.00    +0.000 A 
ATOM      2  C2  UNL     1      13.645  12.264  -5.599  0.00  0.00    +0.000 A 
ATOM      3  N1  UNL     1      12.610  11.441  -5.756  0.00  0.00    +0.000 NA
ATOM      4  O1  UNL     1      12.917  10.706  -6.902  0.00  0.00    +0.000 OA
ATOM      5  N2  UNL     1      14.149  11.096  -7.432  0.00  0.00    +0.000 NA
ENDROOT
TORSDOF 0
ENDMDL
MODEL 2
REMARK VINA RESULT:    -2.372      1.632      1.979
REMARK INTER + INTRA:          -2.372
REMARK INTER:                  -2.372
REMARK INTRA:                   0.000
REMARK UNBOUND:                 0.000
REMARK  Name = /home/anacleto/Desktop/manuscript_Mpro/naturecomm/supplementary_file_S2/6-chemical-library/molecular_docking/3D_ligand_structure/116.pdb
REMARK  0 active torsions:
REMARK  status: ('A' for Active; 'I' for Inactive)
REMARK                            x       y       z     vdW  Elec       q    Type
REMARK                         _______ _______ _______ _____ _____    ______ ____
ROOT
ATOM      1  C1  UNL     1      13.618  12.255  -5.703  0.00  0.00    +0.000 A 
ATOM      2  C2  UNL     1      14.622  12.111  -4.750  0.00  0.00    +0.000 A 
ATOM      3  N1  UNL     1      14.509  10.930  -4.145  0.00  0.00    +0.000 NA
ATOM      4  O1  UNL     1      13.400  10.333  -4.747  0.00  0.00    +0.000 OA
ATOM      5  N2  UNL     1      12.849  11.168  -5.722  0.00  0.00    +0.000 NA
ENDROOT
TORSDOF 0
ENDMDL
MODEL 3
REMARK VINA RESULT:    -2.338      1.646      1.982
REMARK INTER + INTRA:          -2.338
REMARK INTER:                  -2.338
REMARK INTRA:                   0.000
REMARK UNBOUND:                 0.000
REMARK  Name = /home/anacleto/Desktop/manuscript_Mpro/naturecomm/supplementary_file_S2/6-chemical-library/molecular_docking/3D_ligand_structure/116.pdb
REMARK  0 active torsions:
REMARK  status: ('A' for Active; 'I' for Inactive)
REMARK                            x       y       z     vdW  Elec       q    Type
REMARK                         _______ _______ _______ _____ _____    ______ ____
ROOT
ATOM      1  C1  UNL     1      14.625  12.173  -4.802  0.00  0.00    +0.000 A 
ATOM      2  C2  UNL     1      13.592  12.260  -5.731  0.00  0.00    +0.000 A 
ATOM      3  N1  UNL     1      12.846  11.158  -5.686  0.00  0.00    +0.000 NA
ATOM      4  O1  UNL     1      13.443  10.372  -4.699  0.00  0.00    +0.000 OA
ATOM      5  N2  UNL     1      14.554  11.015  -4.150  0.00  0.00    +0.000 NA
ENDROOT
TORSDOF 0
ENDMDL
MODEL 4
REMARK VINA RESULT:    -2.255      1.631      2.148
REMARK INTER + INTRA:          -2.255
REMARK INTER:                  -2.255
REMARK INTRA:                   0.000
REMARK UNBOUND:                 0.000
REMARK  Name = /home/anacleto/Desktop/manuscript_Mpro/naturecomm/supplementary_file_S2/6-chemical-library/molecular_docking/3D_ligand_structure/116.pdb
REMARK  0 active torsions:
REMARK  status: ('A' for Active; 'I' for Inactive)
REMARK                            x       y       z     vdW  Elec       q    Type
REMARK                         _______ _______ _______ _____ _____    ______ ____
ROOT
ATOM      1  C1  UNL     1      13.124  11.697  -5.608  0.00  0.00    +0.000 A 
ATOM      2  C2  UNL     1      13.179  10.775  -6.649  0.00  0.00    +0.000 A 
ATOM      3  N1  UNL     1      14.161  11.095  -7.489  0.00  0.00    +0.000 NA
ATOM      4  O1  UNL     1      14.724  12.251  -6.944  0.00  0.00    +0.000 OA
ATOM      5  N2  UNL     1      14.070  12.619  -5.767  0.00  0.00    +0.000 NA
ENDROOT
TORSDOF 0
ENDMDL
MODEL 5
REMARK VINA RESULT:    -1.864     20.900     21.147
REMARK INTER + INTRA:          -1.864
REMARK INTER:                  -1.864
REMARK INTRA:                   0.000
REMARK UNBOUND:                 0.000
REMARK  Name = /home/anacleto/Desktop/manuscript_Mpro/naturecomm/supplementary_file_S2/6-chemical-library/molecular_docking/3D_ligand_structure/116.pdb
REMARK  0 active torsions:
REMARK  status: ('A' for Active; 'I' for Inactive)
REMARK                            x       y       z     vdW  Elec       q    Type
REMARK                         _______ _______ _______ _____ _____    ______ ____
ROOT
ATOM      1  C1  UNL     1      23.815  15.472  10.919  0.00  0.00    +0.000 A 
ATOM      2  C2  UNL     1      24.308  15.076  12.158  0.00  0.00    +0.000 A 
ATOM      3  N1  UNL     1      23.332  15.094  13.064  0.00  0.00    +0.000 NA
ATOM      4  O1  UNL     1      22.205  15.514  12.355  0.00  0.00    +0.000 OA
ATOM      5  N2  UNL     1      22.516  15.747  11.014  0.00  0.00    +0.000 NA
ENDROOT
TORSDOF 0
ENDMDL
MODEL 6
REMARK VINA RESULT:    -1.864      2.856      3.213
REMARK INTER + INTRA:          -1.864
REMARK INTER:                  -1.864
REMARK INTRA:                   0.000
REMARK UNBOUND:                 0.000
REMARK  Name = /home/anacleto/Desktop/manuscript_Mpro/naturecomm/supplementary_file_S2/6-chemical-library/molecular_docking/3D_ligand_structure/116.pdb
REMARK  0 active torsions:
REMARK  status: ('A' for Active; 'I' for Inactive)
REMARK                            x       y       z     vdW  Elec       q    Type
REMARK                         _______ _______ _______ _____ _____    ______ ____
ROOT
ATOM      1  C1  UNL     1      15.313  12.341  -3.078  0.00  0.00    +0.000 A 
ATOM      2  C2  UNL     1      15.194  11.032  -3.537  0.00  0.00    +0.000 A 
ATOM      3  N1  UNL     1      14.380  10.992  -4.590  0.00  0.00    +0.000 NA
ATOM      4  O1  UNL     1      13.990  12.319  -4.782  0.00  0.00    +0.000 OA
ATOM      5  N2  UNL     1      14.579  13.156  -3.832  0.00  0.00    +0.000 NA
ENDROOT
TORSDOF 0
ENDMDL
MODEL 7
REMARK VINA RESULT:    -1.708      9.683      9.781
REMARK INTER + INTRA:          -1.708
REMARK INTER:                  -1.708
REMARK INTRA:                   0.000
REMARK UNBOUND:                 0.000
REMARK  Name = /home/anacleto/Desktop/manuscript_Mpro/naturecomm/supplementary_file_S2/6-chemical-library/molecular_docking/3D_ligand_structure/116.pdb
REMARK  0 active torsions:
REMARK  status: ('A' for Active; 'I' for Inactive)
REMARK                            x       y       z     vdW  Elec       q    Type
REMARK                         _______ _______ _______ _____ _____    ______ ____
ROOT
ATOM      1  C1  UNL     1      18.723  14.368  -0.177  0.00  0.00    +0.000 A 
ATOM      2  C2  UNL     1      18.103  15.564   0.172  0.00  0.00    +0.000 A 
ATOM      3  N1  UNL     1      18.913  16.288   0.942  0.00  0.00    +0.000 NA
ATOM      4  O1  UNL     1      20.065  15.511   1.066  0.00  0.00    +0.000 OA
ATOM      5  N2  UNL     1      19.938  14.312   0.362  0.00  0.00    +0.000 NA
ENDROOT
TORSDOF 0
ENDMDL
MODEL 8
REMARK VINA RESULT:    -1.695     10.586     10.710
REMARK INTER + INTRA:          -1.695
REMARK INTER:                  -1.695
REMARK INTRA:                   0.000
REMARK UNBOUND:                 0.000
REMARK  Name = /home/anacleto/Desktop/manuscript_Mpro/naturecomm/supplementary_file_S2/6-chemical-library/molecular_docking/3D_ligand_structure/116.pdb
REMARK  0 active torsions:
REMARK  status: ('A' for Active; 'I' for Inactive)
REMARK                            x       y       z     vdW  Elec       q    Type
REMARK                         _______ _______ _______ _____ _____    ______ ____
ROOT
ATOM      1  C1  UNL     1      20.261  17.026   0.170  0.00  0.00    +0.000 A 
ATOM      2  C2  UNL     1      21.326  16.133   0.107  0.00  0.00    +0.000 A 
ATOM      3  N1  UNL     1      20.939  14.932   0.534  0.00  0.00    +0.000 NA
ATOM      4  O1  UNL     1      19.594  15.097   0.868  0.00  0.00    +0.000 OA
ATOM      5  N2  UNL     1      19.177  16.409   0.636  0.00  0.00    +0.000 NA
ENDROOT
TORSDOF 0
ENDMDL
