MODEL 1
REMARK VINA RESULT:    -3.034      0.000      0.000
REMARK INTER + INTRA:          -3.034
REMARK INTER:                  -3.034
REMARK INTRA:                   0.000
REMARK UNBOUND:                 0.000
REMARK  Name = /home/anacleto/Desktop/manuscript_Mpro/naturecomm/supplementary_file_S2/6-chemical-library/molecular_docking/3D_ligand_structure/81.pdb
REMARK  0 active torsions:
REMARK  status: ('A' for Active; 'I' for Inactive)
REMARK                            x       y       z     vdW  Elec       q    Type
REMARK                         _______ _______ _______ _____ _____    ______ ____
ROOT
ATOM      1  C1  UNL     1     -36.226  12.351 -30.825  0.00  0.00    +0.000 C 
ATOM      2  C2  UNL     1     -35.177  12.762 -31.554  0.00  0.00    +0.000 C 
ATOM      3  C3  UNL     1     -34.674  12.021 -32.758  0.00  0.00    +0.000 C 
ATOM      4  C4  UNL     1     -35.253  10.608 -32.879  0.00  0.00    +0.000 C 
ATOM      5  C5  UNL     1     -36.746  10.590 -32.566  0.00  0.00    +0.000 C 
ATOM      6  C6  UNL     1     -37.027  11.127 -31.160  0.00  0.00    +0.000 C 
ENDROOT
TORSDOF 0
ENDMDL
MODEL 2
REMARK VINA RESULT:    -3.034      0.301      2.491
REMARK INTER + INTRA:          -3.034
REMARK INTER:                  -3.034
REMARK INTRA:                   0.000
REMARK UNBOUND:                 0.000
REMARK  Name = /home/anacleto/Desktop/manuscript_Mpro/naturecomm/supplementary_file_S2/6-chemical-library/molecular_docking/3D_ligand_structure/81.pdb
REMARK  0 active torsions:
REMARK  status: ('A' for Active; 'I' for Inactive)
REMARK                            x       y       z     vdW  Elec       q    Type
REMARK                         _______ _______ _______ _____ _____    ______ ____
ROOT
ATOM      1  C1  UNL     1     -34.564  11.858 -32.534  0.00  0.00    +0.000 C 
ATOM      2  C2  UNL     1     -35.275  10.817 -32.991  0.00  0.00    +0.000 C 
ATOM      3  C3  UNL     1     -36.630  10.452 -32.459  0.00  0.00    +0.000 C 
ATOM      4  C4  UNL     1     -36.973  11.165 -31.148  0.00  0.00    +0.000 C 
ATOM      5  C5  UNL     1     -36.563  12.635 -31.191  0.00  0.00    +0.000 C 
ATOM      6  C6  UNL     1     -35.065  12.788 -31.466  0.00  0.00    +0.000 C 
ENDROOT
TORSDOF 0
ENDMDL
MODEL 3
REMARK VINA RESULT:    -3.030      0.071      2.083
REMARK INTER + INTRA:          -3.030
REMARK INTER:                  -3.030
REMARK INTRA:                   0.000
REMARK UNBOUND:                 0.000
REMARK  Name = /home/anacleto/Desktop/manuscript_Mpro/naturecomm/supplementary_file_S2/6-chemical-library/molecular_docking/3D_ligand_structure/81.pdb
REMARK  0 active torsions:
REMARK  status: ('A' for Active; 'I' for Inactive)
REMARK                            x       y       z     vdW  Elec       q    Type
REMARK                         _______ _______ _______ _____ _____    ______ ____
ROOT
ATOM      1  C1  UNL     1     -35.114  12.757 -31.609  0.00  0.00    +0.000 C 
ATOM      2  C2  UNL     1     -36.173  12.407 -30.862  0.00  0.00    +0.000 C 
ATOM      3  C3  UNL     1     -37.017  11.201 -31.150  0.00  0.00    +0.000 C 
ATOM      4  C4  UNL     1     -36.762  10.605 -32.537  0.00  0.00    +0.000 C 
ATOM      5  C5  UNL     1     -35.270  10.562 -32.858  0.00  0.00    +0.000 C 
ATOM      6  C6  UNL     1     -34.645  11.957 -32.790  0.00  0.00    +0.000 C 
ENDROOT
TORSDOF 0
ENDMDL
MODEL 4
REMARK VINA RESULT:    -3.020      0.286      2.080
REMARK INTER + INTRA:          -3.020
REMARK INTER:                  -3.020
REMARK INTRA:                   0.000
REMARK UNBOUND:                 0.000
REMARK  Name = /home/anacleto/Desktop/manuscript_Mpro/naturecomm/supplementary_file_S2/6-chemical-library/molecular_docking/3D_ligand_structure/81.pdb
REMARK  0 active torsions:
REMARK  status: ('A' for Active; 'I' for Inactive)
REMARK                            x       y       z     vdW  Elec       q    Type
REMARK                         _______ _______ _______ _____ _____    ______ ____
ROOT
ATOM      1  C1  UNL     1     -35.336  10.860 -33.020  0.00  0.00    +0.000 C 
ATOM      2  C2  UNL     1     -34.591  11.871 -32.549  0.00  0.00    +0.000 C 
ATOM      3  C3  UNL     1     -35.039  12.772 -31.436  0.00  0.00    +0.000 C 
ATOM      4  C4  UNL     1     -36.531  12.639 -31.120  0.00  0.00    +0.000 C 
ATOM      5  C5  UNL     1     -36.970  11.177 -31.114  0.00  0.00    +0.000 C 
ATOM      6  C6  UNL     1     -36.682  10.504 -32.459  0.00  0.00    +0.000 C 
ENDROOT
TORSDOF 0
ENDMDL
MODEL 5
REMARK VINA RESULT:    -3.011     13.651     14.939
REMARK INTER + INTRA:          -3.011
REMARK INTER:                  -3.011
REMARK INTRA:                   0.000
REMARK UNBOUND:                 0.000
REMARK  Name = /home/anacleto/Desktop/manuscript_Mpro/naturecomm/supplementary_file_S2/6-chemical-library/molecular_docking/3D_ligand_structure/81.pdb
REMARK  0 active torsions:
REMARK  status: ('A' for Active; 'I' for Inactive)
REMARK                            x       y       z     vdW  Elec       q    Type
REMARK                         _______ _______ _______ _____ _____    ______ ____
ROOT
ATOM      1  C1  UNL     1     -26.896   2.567 -40.578  0.00  0.00    +0.000 C 
ATOM      2  C2  UNL     1     -27.988   2.531 -39.800  0.00  0.00    +0.000 C 
ATOM      3  C3  UNL     1     -27.929   2.564 -38.301  0.00  0.00    +0.000 C 
ATOM      4  C4  UNL     1     -26.523   2.315 -37.750  0.00  0.00    +0.000 C 
ATOM      5  C5  UNL     1     -25.468   3.073 -38.552  0.00  0.00    +0.000 C 
ATOM      6  C6  UNL     1     -25.503   2.678 -40.030  0.00  0.00    +0.000 C 
ENDROOT
TORSDOF 0
ENDMDL
MODEL 6
REMARK VINA RESULT:    -3.007     13.652     14.828
REMARK INTER + INTRA:          -3.007
REMARK INTER:                  -3.007
REMARK INTRA:                   0.000
REMARK UNBOUND:                 0.000
REMARK  Name = /home/anacleto/Desktop/manuscript_Mpro/naturecomm/supplementary_file_S2/6-chemical-library/molecular_docking/3D_ligand_structure/81.pdb
REMARK  0 active torsions:
REMARK  status: ('A' for Active; 'I' for Inactive)
REMARK                            x       y       z     vdW  Elec       q    Type
REMARK                         _______ _______ _______ _____ _____    ______ ____
ROOT
ATOM      1  C1  UNL     1     -27.959   2.539 -39.883  0.00  0.00    +0.000 C 
ATOM      2  C2  UNL     1     -26.839   2.543 -40.622  0.00  0.00    +0.000 C 
ATOM      3  C3  UNL     1     -25.465   2.645 -40.028  0.00  0.00    +0.000 C 
ATOM      4  C4  UNL     1     -25.476   3.067 -38.556  0.00  0.00    +0.000 C 
ATOM      5  C5  UNL     1     -26.570   2.341 -37.778  0.00  0.00    +0.000 C 
ATOM      6  C6  UNL     1     -27.951   2.601 -38.383  0.00  0.00    +0.000 C 
ENDROOT
TORSDOF 0
ENDMDL
MODEL 7
REMARK VINA RESULT:    -2.987     13.964     14.821
REMARK INTER + INTRA:          -2.987
REMARK INTER:                  -2.987
REMARK INTRA:                   0.000
REMARK UNBOUND:                 0.000
REMARK  Name = /home/anacleto/Desktop/manuscript_Mpro/naturecomm/supplementary_file_S2/6-chemical-library/molecular_docking/3D_ligand_structure/81.pdb
REMARK  0 active torsions:
REMARK  status: ('A' for Active; 'I' for Inactive)
REMARK                            x       y       z     vdW  Elec       q    Type
REMARK                         _______ _______ _______ _____ _____    ______ ____
ROOT
ATOM      1  C1  UNL     1     -27.806   2.292 -38.434  0.00  0.00    +0.000 C 
ATOM      2  C2  UNL     1     -26.631   2.502 -37.820  0.00  0.00    +0.000 C 
ATOM      3  C3  UNL     1     -25.368   2.837 -38.556  0.00  0.00    +0.000 C 
ATOM      4  C4  UNL     1     -25.471   2.598 -40.065  0.00  0.00    +0.000 C 
ATOM      5  C5  UNL     1     -26.806   3.092 -40.617  0.00  0.00    +0.000 C 
ATOM      6  C6  UNL     1     -27.985   2.406 -39.920  0.00  0.00    +0.000 C 
ENDROOT
TORSDOF 0
ENDMDL
MODEL 8
REMARK VINA RESULT:    -2.959     12.622     13.918
REMARK INTER + INTRA:          -2.959
REMARK INTER:                  -2.959
REMARK INTRA:                   0.000
REMARK UNBOUND:                 0.000
REMARK  Name = /home/anacleto/Desktop/manuscript_Mpro/naturecomm/supplementary_file_S2/6-chemical-library/molecular_docking/3D_ligand_structure/81.pdb
REMARK  0 active torsions:
REMARK  status: ('A' for Active; 'I' for Inactive)
REMARK                            x       y       z     vdW  Elec       q    Type
REMARK                         _______ _______ _______ _____ _____    ______ ____
ROOT
ATOM      1  C1  UNL     1     -26.583   4.902 -39.007  0.00  0.00    +0.000 C 
ATOM      2  C2  UNL     1     -25.490   4.125 -39.050  0.00  0.00    +0.000 C 
ATOM      3  C3  UNL     1     -25.475   2.703 -38.573  0.00  0.00    +0.000 C 
ATOM      4  C4  UNL     1     -26.710   2.333 -37.747  0.00  0.00    +0.000 C 
ATOM      5  C5  UNL     1     -27.985   2.895 -38.370  0.00  0.00    +0.000 C 
ATOM      6  C6  UNL     1     -27.914   4.418 -38.509  0.00  0.00    +0.000 C 
ENDROOT
TORSDOF 0
ENDMDL
MODEL 9
REMARK VINA RESULT:    -2.944      0.283      2.897
REMARK INTER + INTRA:          -2.944
REMARK INTER:                  -2.944
REMARK INTRA:                   0.000
REMARK UNBOUND:                 0.000
REMARK  Name = /home/anacleto/Desktop/manuscript_Mpro/naturecomm/supplementary_file_S2/6-chemical-library/molecular_docking/3D_ligand_structure/81.pdb
REMARK  0 active torsions:
REMARK  status: ('A' for Active; 'I' for Inactive)
REMARK                            x       y       z     vdW  Elec       q    Type
REMARK                         _______ _______ _______ _____ _____    ______ ____
ROOT
ATOM      1  C1  UNL     1     -35.407  10.791 -32.875  0.00  0.00    +0.000 C 
ATOM      2  C2  UNL     1     -36.575  10.518 -32.273  0.00  0.00    +0.000 C 
ATOM      3  C3  UNL     1     -37.149  11.362 -31.173  0.00  0.00    +0.000 C 
ATOM      4  C4  UNL     1     -36.140  12.356 -30.591  0.00  0.00    +0.000 C 
ATOM      5  C5  UNL     1     -35.320  13.025 -31.690  0.00  0.00    +0.000 C 
ATOM      6  C6  UNL     1     -34.571  11.991 -32.534  0.00  0.00    +0.000 C 
ENDROOT
TORSDOF 0
ENDMDL
