MODEL 1
REMARK VINA RESULT:    -5.917      0.000      0.000
REMARK INTER + INTRA:         -11.277
REMARK INTER:                  -9.304
REMARK INTRA:                  -1.972
REMARK UNBOUND:                -1.901
REMARK  Name = /home/anacleto/Desktop/manuscript_Mpro/naturecomm/supplementary_file_S2/6-chemical-library/molecular_docking/3D_ligand_structure/boceprevir.pdb
REMARK  18 active torsions:
REMARK  status: ('A' for Active; 'I' for Inactive)
REMARK    1  A    between atoms: C1_1  and  C2_2
REMARK    2  A    between atoms: C2_2  and  C3_3
REMARK    3  A    between atoms: C2_2  and  C4_4
REMARK    4  A    between atoms: C2_2  and  N1_5
REMARK    5  A    between atoms: N2_8  and  C6_9
REMARK    6  A    between atoms: C6_9  and  C7_10
REMARK    7  A    between atoms: C6_9  and  C24_34
REMARK    8  A    between atoms: C11_16  and  C12_17
REMARK    9  A    between atoms: N4_19  and  C13_20
REMARK   10  A    between atoms: C13_20  and  C14_21
REMARK   11  A    between atoms: C13_20  and  C19_26
REMARK   12  A    between atoms: C14_21  and  C15_22
REMARK   13  A    between atoms: C19_26  and  C20_28
REMARK   14  A    between atoms: C21_31  and  C22_32
REMARK   15  A    between atoms: C21_31  and  C23_33
REMARK   16  A    between atoms: C24_34  and  C25_35
REMARK   17  A    between atoms: C24_34  and  C26_36
REMARK   18  A    between atoms: C24_34  and  C27_37
REMARK                            x       y       z     vdW  Elec       q    Type
REMARK                         _______ _______ _______ _____ _____    ______ ____
ROOT
ATOM      1  C7  UNL     1     -21.838  -6.739 -28.262  0.00  0.00    +0.000 C 
ATOM      2  O2  UNL     1     -22.620  -5.944 -28.802  0.00  0.00    +0.000 OA
ATOM      3  N3  UNL     1     -22.300  -7.884 -27.654  0.00  0.00    +0.000 N 
ATOM      4  C8  UNL     1     -21.490  -9.036 -27.280  0.00  0.00    +0.000 C 
ATOM      5  C9  UNL     1     -22.470 -10.130 -27.003  0.00  0.00    +0.000 C 
ATOM      6  C10 UNL     1     -23.851  -9.600 -27.222  0.00  0.00    +0.000 C 
ATOM      7  C11 UNL     1     -23.740  -8.149 -27.628  0.00  0.00    +0.000 C 
ATOM      8  C21 UNL     1     -23.350 -10.765 -28.068  0.00  0.00    +0.000 C 
ATOM      9  C22 UNL     1     -23.901 -12.135 -27.762  0.00  0.00    +0.000 C 
ATOM     10  C23 UNL     1     -23.033 -10.567 -29.529  0.00  0.00    +0.000 C 
ENDROOT
BRANCH   7  11
ATOM     11  C12 UNL     1     -24.421  -7.217 -26.594  0.00  0.00    +0.000 C 
ATOM     12  O3  UNL     1     -24.572  -7.500 -25.409  0.00  0.00    +0.000 OA
ATOM     13  N4  UNL     1     -24.925  -6.050 -27.137  0.00  0.00    +0.000 N 
ATOM     14  H18 UNL     1     -25.172  -6.083 -28.124  0.00  0.00    +0.000 HD
BRANCH  13  15
ATOM     15  C13 UNL     1     -25.655  -5.095 -26.303  0.00  0.00    +0.000 C 
BRANCH  15  16
ATOM     16  C19 UNL     1     -26.808  -4.424 -27.053  0.00  0.00    +0.000 C 
ATOM     17  O4  UNL     1     -27.975  -4.421 -26.661  0.00  0.00    +0.000 OA
BRANCH  16  18
ATOM     18  C20 UNL     1     -26.467  -3.576 -28.285  0.00  0.00    +0.000 C 
ATOM     19  N5  UNL     1     -27.402  -2.623 -28.585  0.00  0.00    +0.000 N 
ATOM     20  O5  UNL     1     -25.441  -3.741 -28.925  0.00  0.00    +0.000 OA
ATOM     21  H29 UNL     1     -27.261  -2.000 -29.367  0.00  0.00    +0.000 HD
ATOM     22  H30 UNL     1     -28.227  -2.529 -27.999  0.00  0.00    +0.000 HD
ENDBRANCH  16  18
ENDBRANCH  15  16
BRANCH  15  23
ATOM     23  C14 UNL     1     -24.660  -4.055 -25.768  0.00  0.00    +0.000 C 
BRANCH  23  24
ATOM     24  C15 UNL     1     -24.859  -3.763 -24.278  0.00  0.00    +0.000 C 
ATOM     25  C16 UNL     1     -24.027  -4.674 -23.330  0.00  0.00    +0.000 C 
ATOM     26  C17 UNL     1     -22.967  -3.562 -23.269  0.00  0.00    +0.000 C 
ATOM     27  C18 UNL     1     -24.075  -2.567 -23.664  0.00  0.00    +0.000 C 
ENDBRANCH  23  24
ENDBRANCH  15  23
ENDBRANCH  13  15
ENDBRANCH   7  11
BRANCH   1  28
ATOM     28  C6  UNL     1     -20.319  -6.431 -28.230  0.00  0.00    +0.000 C 
BRANCH  28  32
ATOM     29  N1  UNL     1     -19.083  -7.298 -31.534  0.00  0.00    +0.000 N 
ATOM     30  C5  UNL     1     -19.285  -7.496 -30.190  0.00  0.00    +0.000 C 
ATOM     31  O1  UNL     1     -18.954  -8.488 -29.557  0.00  0.00    +0.000 OA
ATOM     32  N2  UNL     1     -19.904  -6.400 -29.638  0.00  0.00    +0.000 N 
ATOM     33  H10 UNL     1     -19.020  -6.318 -31.770  0.00  0.00    +0.000 HD
ATOM     34  H11 UNL     1     -20.611  -6.012 -30.251  0.00  0.00    +0.000 HD
BRANCH  29  36
ATOM     35  C1  UNL     1     -16.892  -8.386 -31.917  0.00  0.00    +0.000 C 
ATOM     36  C2  UNL     1     -18.339  -8.220 -32.403  0.00  0.00    +0.000 C 
ATOM     37  C3  UNL     1     -18.316  -7.613 -33.820  0.00  0.00    +0.000 C 
ATOM     38  C4  UNL     1     -19.026  -9.594 -32.484  0.00  0.00    +0.000 C 
ENDBRANCH  29  36
ENDBRANCH  28  32
BRANCH  28  39
ATOM     39  C24 UNL     1     -19.973  -5.091 -27.503  0.00  0.00    +0.000 C 
ATOM     40  C25 UNL     1     -21.033  -4.819 -26.410  0.00  0.00    +0.000 C 
ATOM     41  C26 UNL     1     -18.584  -5.115 -26.834  0.00  0.00    +0.000 C 
ATOM     42  C27 UNL     1     -20.017  -3.911 -28.491  0.00  0.00    +0.000 C 
ENDBRANCH  28  39
ENDBRANCH   1  28
TORSDOF 10
ENDMDL
MODEL 2
REMARK VINA RESULT:    -5.914      2.221      2.830
REMARK INTER + INTRA:         -11.272
REMARK INTER:                  -9.986
REMARK INTRA:                  -1.286
REMARK UNBOUND:                -1.901
REMARK  Name = /home/anacleto/Desktop/manuscript_Mpro/naturecomm/supplementary_file_S2/6-chemical-library/molecular_docking/3D_ligand_structure/boceprevir.pdb
REMARK  18 active torsions:
REMARK  status: ('A' for Active; 'I' for Inactive)
REMARK    1  A    between atoms: C1_1  and  C2_2
REMARK    2  A    between atoms: C2_2  and  C3_3
REMARK    3  A    between atoms: C2_2  and  C4_4
REMARK    4  A    between atoms: C2_2  and  N1_5
REMARK    5  A    between atoms: N2_8  and  C6_9
REMARK    6  A    between atoms: C6_9  and  C7_10
REMARK    7  A    between atoms: C6_9  and  C24_34
REMARK    8  A    between atoms: C11_16  and  C12_17
REMARK    9  A    between atoms: N4_19  and  C13_20
REMARK   10  A    between atoms: C13_20  and  C14_21
REMARK   11  A    between atoms: C13_20  and  C19_26
REMARK   12  A    between atoms: C14_21  and  C15_22
REMARK   13  A    between atoms: C19_26  and  C20_28
REMARK   14  A    between atoms: C21_31  and  C22_32
REMARK   15  A    between atoms: C21_31  and  C23_33
REMARK   16  A    between atoms: C24_34  and  C25_35
REMARK   17  A    between atoms: C24_34  and  C26_36
REMARK   18  A    between atoms: C24_34  and  C27_37
REMARK                            x       y       z     vdW  Elec       q    Type
REMARK                         _______ _______ _______ _____ _____    ______ ____
ROOT
ATOM      1  C7  UNL     1     -22.691  -6.451 -29.971  0.00  0.00    +0.000 C 
ATOM      2  O2  UNL     1     -23.274  -5.367 -29.833  0.00  0.00    +0.000 OA
ATOM      3  N3  UNL     1     -23.367  -7.642 -29.830  0.00  0.00    +0.000 N 
ATOM      4  C8  UNL     1     -22.896  -8.946 -30.276  0.00  0.00    +0.000 C 
ATOM      5  C9  UNL     1     -24.099  -9.832 -30.234  0.00  0.00    +0.000 C 
ATOM      6  C10 UNL     1     -25.267  -9.027 -29.762  0.00  0.00    +0.000 C 
ATOM      7  C11 UNL     1     -24.791  -7.620 -29.489  0.00  0.00    +0.000 C 
ATOM      8  C21 UNL     1     -25.303  -9.665 -31.146  0.00  0.00    +0.000 C 
ATOM      9  C22 UNL     1     -26.184 -10.874 -31.334  0.00  0.00    +0.000 C 
ATOM     10  C23 UNL     1     -25.202  -8.808 -32.384  0.00  0.00    +0.000 C 
ENDROOT
BRANCH   7  11
ATOM     11  C12 UNL     1     -24.962  -7.242 -27.997  0.00  0.00    +0.000 C 
ATOM     12  O3  UNL     1     -24.829  -8.034 -27.068  0.00  0.00    +0.000 OA
ATOM     13  N4  UNL     1     -25.362  -5.935 -27.790  0.00  0.00    +0.000 N 
ATOM     14  H18 UNL     1     -25.876  -5.496 -28.551  0.00  0.00    +0.000 HD
BRANCH  13  15
ATOM     15  C13 UNL     1     -25.630  -5.442 -26.440  0.00  0.00    +0.000 C 
BRANCH  15  16
ATOM     16  C19 UNL     1     -27.112  -5.527 -26.069  0.00  0.00    +0.000 C 
ATOM     17  O4  UNL     1     -27.528  -5.905 -24.974  0.00  0.00    +0.000 OA
BRANCH  16  18
ATOM     18  C20 UNL     1     -28.135  -4.964 -27.064  0.00  0.00    +0.000 C 
ATOM     19  N5  UNL     1     -29.438  -5.136 -26.685  0.00  0.00    +0.000 N 
ATOM     20  O5  UNL     1     -27.800  -4.403 -28.095  0.00  0.00    +0.000 OA
ATOM     21  H29 UNL     1     -30.188  -4.784 -27.263  0.00  0.00    +0.000 HD
ATOM     22  H30 UNL     1     -29.648  -5.598 -25.805  0.00  0.00    +0.000 HD
ENDBRANCH  16  18
ENDBRANCH  15  16
BRANCH  15  23
ATOM     23  C14 UNL     1     -25.112  -4.000 -26.334  0.00  0.00    +0.000 C 
BRANCH  23  24
ATOM     24  C15 UNL     1     -23.923  -3.871 -25.377  0.00  0.00    +0.000 C 
ATOM     25  C16 UNL     1     -24.167  -2.908 -24.180  0.00  0.00    +0.000 C 
ATOM     26  C17 UNL     1     -24.545  -4.133 -23.332  0.00  0.00    +0.000 C 
ATOM     27  C18 UNL     1     -23.725  -4.991 -24.315  0.00  0.00    +0.000 C 
ENDBRANCH  23  24
ENDBRANCH  15  23
ENDBRANCH  13  15
ENDBRANCH   7  11
BRANCH   1  28
ATOM     28  C6  UNL     1     -21.169  -6.480 -30.267  0.00  0.00    +0.000 C 
BRANCH  28  32
ATOM     29  N1  UNL     1     -20.182  -5.114 -33.485  0.00  0.00    +0.000 N 
ATOM     30  C5  UNL     1     -20.114  -5.996 -32.434  0.00  0.00    +0.000 C 
ATOM     31  O1  UNL     1     -19.374  -6.966 -32.363  0.00  0.00    +0.000 OA
ATOM     32  N2  UNL     1     -20.991  -5.622 -31.445  0.00  0.00    +0.000 N 
ATOM     33  H10 UNL     1     -20.498  -4.199 -33.196  0.00  0.00    +0.000 HD
ATOM     34  H11 UNL     1     -21.868  -5.279 -31.821  0.00  0.00    +0.000 HD
BRANCH  29  36
ATOM     35  C1  UNL     1     -18.246  -4.031 -34.582  0.00  0.00    +0.000 C 
ATOM     36  C2  UNL     1     -19.294  -5.150 -34.655  0.00  0.00    +0.000 C 
ATOM     37  C3  UNL     1     -20.161  -4.931 -35.909  0.00  0.00    +0.000 C 
ATOM     38  C4  UNL     1     -18.596  -6.514 -34.789  0.00  0.00    +0.000 C 
ENDBRANCH  29  36
ENDBRANCH  28  32
BRANCH  28  39
ATOM     39  C24 UNL     1     -20.294  -5.993 -29.067  0.00  0.00    +0.000 C 
ATOM     40  C25 UNL     1     -20.016  -4.480 -29.225  0.00  0.00    +0.000 C 
ATOM     41  C26 UNL     1     -20.971  -6.219 -27.701  0.00  0.00    +0.000 C 
ATOM     42  C27 UNL     1     -18.933  -6.713 -29.061  0.00  0.00    +0.000 C 
ENDBRANCH  28  39
ENDBRANCH   1  28
TORSDOF 10
ENDMDL
MODEL 3
REMARK VINA RESULT:    -5.860      3.345      6.391
REMARK INTER + INTRA:         -11.186
REMARK INTER:                  -9.301
REMARK INTRA:                  -1.885
REMARK UNBOUND:                -1.901
REMARK  Name = /home/anacleto/Desktop/manuscript_Mpro/naturecomm/supplementary_file_S2/6-chemical-library/molecular_docking/3D_ligand_structure/boceprevir.pdb
REMARK  18 active torsions:
REMARK  status: ('A' for Active; 'I' for Inactive)
REMARK    1  A    between atoms: C1_1  and  C2_2
REMARK    2  A    between atoms: C2_2  and  C3_3
REMARK    3  A    between atoms: C2_2  and  C4_4
REMARK    4  A    between atoms: C2_2  and  N1_5
REMARK    5  A    between atoms: N2_8  and  C6_9
REMARK    6  A    between atoms: C6_9  and  C7_10
REMARK    7  A    between atoms: C6_9  and  C24_34
REMARK    8  A    between atoms: C11_16  and  C12_17
REMARK    9  A    between atoms: N4_19  and  C13_20
REMARK   10  A    between atoms: C13_20  and  C14_21
REMARK   11  A    between atoms: C13_20  and  C19_26
REMARK   12  A    between atoms: C14_21  and  C15_22
REMARK   13  A    between atoms: C19_26  and  C20_28
REMARK   14  A    between atoms: C21_31  and  C22_32
REMARK   15  A    between atoms: C21_31  and  C23_33
REMARK   16  A    between atoms: C24_34  and  C25_35
REMARK   17  A    between atoms: C24_34  and  C26_36
REMARK   18  A    between atoms: C24_34  and  C27_37
REMARK                            x       y       z     vdW  Elec       q    Type
REMARK                         _______ _______ _______ _____ _____    ______ ____
ROOT
ATOM      1  C7  UNL     1     -24.761  -5.592 -26.887  0.00  0.00    +0.000 C 
ATOM      2  O2  UNL     1     -25.112  -6.425 -26.040  0.00  0.00    +0.000 OA
ATOM      3  N3  UNL     1     -23.546  -4.953 -26.790  0.00  0.00    +0.000 N 
ATOM      4  C8  UNL     1     -22.883  -4.218 -27.859  0.00  0.00    +0.000 C 
ATOM      5  C9  UNL     1     -21.475  -4.032 -27.392  0.00  0.00    +0.000 C 
ATOM      6  C10 UNL     1     -21.332  -4.669 -26.047  0.00  0.00    +0.000 C 
ATOM      7  C11 UNL     1     -22.670  -5.249 -25.654  0.00  0.00    +0.000 C 
ATOM      8  C21 UNL     1     -20.489  -5.174 -27.212  0.00  0.00    +0.000 C 
ATOM      9  C22 UNL     1     -19.024  -4.813 -27.220  0.00  0.00    +0.000 C 
ATOM     10  C23 UNL     1     -20.769  -6.522 -27.828  0.00  0.00    +0.000 C 
ENDROOT
BRANCH   7  11
ATOM     11  C12 UNL     1     -23.230  -4.573 -24.378  0.00  0.00    +0.000 C 
ATOM     12  O3  UNL     1     -23.136  -3.372 -24.138  0.00  0.00    +0.000 OA
ATOM     13  N4  UNL     1     -23.786  -5.457 -23.472  0.00  0.00    +0.000 N 
ATOM     14  H18 UNL     1     -23.438  -6.413 -23.505  0.00  0.00    +0.000 HD
BRANCH  13  15
ATOM     15  C13 UNL     1     -24.299  -4.983 -22.187  0.00  0.00    +0.000 C 
BRANCH  15  16
ATOM     16  C19 UNL     1     -23.683  -5.725 -20.999  0.00  0.00    +0.000 C 
ATOM     17  O4  UNL     1     -22.668  -6.417 -21.071  0.00  0.00    +0.000 OA
BRANCH  16  18
ATOM     18  C20 UNL     1     -24.276  -5.472 -19.607  0.00  0.00    +0.000 C 
ATOM     19  N5  UNL     1     -23.816  -4.335 -19.002  0.00  0.00    +0.000 N 
ATOM     20  O5  UNL     1     -25.096  -6.222 -19.102  0.00  0.00    +0.000 OA
ATOM     21  H29 UNL     1     -24.159  -4.068 -18.090  0.00  0.00    +0.000 HD
ATOM     22  H30 UNL     1     -23.145  -3.745 -19.485  0.00  0.00    +0.000 HD
ENDBRANCH  16  18
ENDBRANCH  15  16
BRANCH  15  23
ATOM     23  C14 UNL     1     -25.829  -5.117 -22.194  0.00  0.00    +0.000 C 
BRANCH  23  24
ATOM     24  C15 UNL     1     -26.319  -6.224 -23.132  0.00  0.00    +0.000 C 
ATOM     25  C16 UNL     1     -26.438  -7.623 -22.462  0.00  0.00    +0.000 C 
ATOM     26  C17 UNL     1     -27.931  -7.338 -22.237  0.00  0.00    +0.000 C 
ATOM     27  C18 UNL     1     -27.849  -6.324 -23.395  0.00  0.00    +0.000 C 
ENDBRANCH  23  24
ENDBRANCH  15  23
ENDBRANCH  13  15
ENDBRANCH   7  11
BRANCH   1  28
ATOM     28  C6  UNL     1     -25.712  -5.227 -28.056  0.00  0.00    +0.000 C 
BRANCH  28  32
ATOM     29  N1  UNL     1     -25.654  -8.162 -30.196  0.00  0.00    +0.000 N 
ATOM     30  C5  UNL     1     -25.279  -6.900 -29.806  0.00  0.00    +0.000 C 
ATOM     31  O1  UNL     1     -24.429  -6.208 -30.346  0.00  0.00    +0.000 OA
ATOM     32  N2  UNL     1     -26.016  -6.503 -28.716  0.00  0.00    +0.000 N 
ATOM     33  H10 UNL     1     -26.604  -8.377 -29.931  0.00  0.00    +0.000 HD
ATOM     34  H11 UNL     1     -26.168  -7.262 -28.060  0.00  0.00    +0.000 HD
BRANCH  29  36
ATOM     35  C1  UNL     1     -25.753  -8.220 -32.669  0.00  0.00    +0.000 C 
ATOM     36  C2  UNL     1     -25.151  -8.839 -31.400  0.00  0.00    +0.000 C 
ATOM     37  C3  UNL     1     -25.582 -10.316 -31.321  0.00  0.00    +0.000 C 
ATOM     38  C4  UNL     1     -23.616  -8.793 -31.471  0.00  0.00    +0.000 C 
ENDBRANCH  29  36
ENDBRANCH  28  32
BRANCH  28  39
ATOM     39  C24 UNL     1     -27.015  -4.499 -27.592  0.00  0.00    +0.000 C 
ATOM     40  C25 UNL     1     -27.710  -3.871 -28.822  0.00  0.00    +0.000 C 
ATOM     41  C26 UNL     1     -28.016  -5.447 -26.903  0.00  0.00    +0.000 C 
ATOM     42  C27 UNL     1     -26.679  -3.355 -26.618  0.00  0.00    +0.000 C 
ENDBRANCH  28  39
ENDBRANCH   1  28
TORSDOF 10
ENDMDL
MODEL 4
REMARK VINA RESULT:    -5.859      1.562      2.153
REMARK INTER + INTRA:         -11.186
REMARK INTER:                  -9.457
REMARK INTRA:                  -1.729
REMARK UNBOUND:                -1.901
REMARK  Name = /home/anacleto/Desktop/manuscript_Mpro/naturecomm/supplementary_file_S2/6-chemical-library/molecular_docking/3D_ligand_structure/boceprevir.pdb
REMARK  18 active torsions:
REMARK  status: ('A' for Active; 'I' for Inactive)
REMARK    1  A    between atoms: C1_1  and  C2_2
REMARK    2  A    between atoms: C2_2  and  C3_3
REMARK    3  A    between atoms: C2_2  and  C4_4
REMARK    4  A    between atoms: C2_2  and  N1_5
REMARK    5  A    between atoms: N2_8  and  C6_9
REMARK    6  A    between atoms: C6_9  and  C7_10
REMARK    7  A    between atoms: C6_9  and  C24_34
REMARK    8  A    between atoms: C11_16  and  C12_17
REMARK    9  A    between atoms: N4_19  and  C13_20
REMARK   10  A    between atoms: C13_20  and  C14_21
REMARK   11  A    between atoms: C13_20  and  C19_26
REMARK   12  A    between atoms: C14_21  and  C15_22
REMARK   13  A    between atoms: C19_26  and  C20_28
REMARK   14  A    between atoms: C21_31  and  C22_32
REMARK   15  A    between atoms: C21_31  and  C23_33
REMARK   16  A    between atoms: C24_34  and  C25_35
REMARK   17  A    between atoms: C24_34  and  C26_36
REMARK   18  A    between atoms: C24_34  and  C27_37
REMARK                            x       y       z     vdW  Elec       q    Type
REMARK                         _______ _______ _______ _____ _____    ______ ____
ROOT
ATOM      1  C7  UNL     1     -22.415  -6.414 -28.981  0.00  0.00    +0.000 C 
ATOM      2  O2  UNL     1     -22.946  -5.302 -29.107  0.00  0.00    +0.000 OA
ATOM      3  N3  UNL     1     -23.176  -7.560 -28.933  0.00  0.00    +0.000 N 
ATOM      4  C8  UNL     1     -22.683  -8.918 -29.114  0.00  0.00    +0.000 C 
ATOM      5  C9  UNL     1     -23.903  -9.753 -29.333  0.00  0.00    +0.000 C 
ATOM      6  C10 UNL     1     -25.104  -8.864 -29.278  0.00  0.00    +0.000 C 
ATOM      7  C11 UNL     1     -24.635  -7.454 -29.006  0.00  0.00    +0.000 C 
ATOM      8  C21 UNL     1     -24.797  -9.636 -30.556  0.00  0.00    +0.000 C 
ATOM      9  C22 UNL     1     -25.666 -10.826 -30.877  0.00  0.00    +0.000 C 
ATOM     10  C23 UNL     1     -24.307  -8.912 -31.786  0.00  0.00    +0.000 C 
ENDROOT
BRANCH   7  11
ATOM     11  C12 UNL     1     -25.186  -6.922 -27.660  0.00  0.00    +0.000 C 
ATOM     12  O3  UNL     1     -25.287  -7.602 -26.642  0.00  0.00    +0.000 OA
ATOM     13  N4  UNL     1     -25.637  -5.617 -27.714  0.00  0.00    +0.000 N 
ATOM     14  H18 UNL     1     -25.943  -5.284 -28.626  0.00  0.00    +0.000 HD
BRANCH  13  15
ATOM     15  C13 UNL     1     -26.247  -4.990 -26.541  0.00  0.00    +0.000 C 
BRANCH  15  16
ATOM     16  C19 UNL     1     -27.751  -4.762 -26.714  0.00  0.00    +0.000 C 
ATOM     17  O4  UNL     1     -28.237  -3.881 -27.422  0.00  0.00    +0.000 OA
BRANCH  16  18
ATOM     18  C20 UNL     1     -28.708  -5.785 -26.089  0.00  0.00    +0.000 C 
ATOM     19  N5  UNL     1     -30.033  -5.495 -26.269  0.00  0.00    +0.000 N 
ATOM     20  O5  UNL     1     -28.308  -6.775 -25.497  0.00  0.00    +0.000 OA
ATOM     21  H29 UNL     1     -30.744  -6.117 -25.912  0.00  0.00    +0.000 HD
ATOM     22  H30 UNL     1     -30.298  -4.662 -26.787  0.00  0.00    +0.000 HD
ENDBRANCH  16  18
ENDBRANCH  15  16
BRANCH  15  23
ATOM     23  C14 UNL     1     -25.514  -3.671 -26.257  0.00  0.00    +0.000 C 
BRANCH  23  24
ATOM     24  C15 UNL     1     -24.226  -3.875 -25.453  0.00  0.00    +0.000 C 
ATOM     25  C16 UNL     1     -24.090  -2.942 -24.215  0.00  0.00    +0.000 C 
ATOM     26  C17 UNL     1     -24.652  -4.083 -23.352  0.00  0.00    +0.000 C 
ATOM     27  C18 UNL     1     -24.183  -5.061 -24.446  0.00  0.00    +0.000 C 
ENDBRANCH  23  24
ENDBRANCH  15  23
ENDBRANCH  13  15
ENDBRANCH   7  11
BRANCH   1  28
ATOM     28  C6  UNL     1     -20.876  -6.527 -28.837  0.00  0.00    +0.000 C 
BRANCH  28  32
ATOM     29  N1  UNL     1     -19.337  -7.276 -32.041  0.00  0.00    +0.000 N 
ATOM     30  C5  UNL     1     -19.631  -7.504 -30.719  0.00  0.00    +0.000 C 
ATOM     31  O1  UNL     1     -19.290  -8.482 -30.070  0.00  0.00    +0.000 OA
ATOM     32  N2  UNL     1     -20.355  -6.454 -30.208  0.00  0.00    +0.000 N 
ATOM     33  H10 UNL     1     -19.316  -6.291 -32.264  0.00  0.00    +0.000 HD
ATOM     34  H11 UNL     1     -21.036  -6.100 -30.872  0.00  0.00    +0.000 HD
BRANCH  29  36
ATOM     35  C1  UNL     1     -17.095  -8.311 -32.206  0.00  0.00    +0.000 C 
ATOM     36  C2  UNL     1     -18.474  -8.141 -32.858  0.00  0.00    +0.000 C 
ATOM     37  C3  UNL     1     -18.291  -7.460 -34.228  0.00  0.00    +0.000 C 
ATOM     38  C4  UNL     1     -19.117  -9.518 -33.091  0.00  0.00    +0.000 C 
ENDBRANCH  29  36
ENDBRANCH  28  32
BRANCH  28  39
ATOM     39  C24 UNL     1     -20.255  -5.416 -27.930  0.00  0.00    +0.000 C 
ATOM     40  C25 UNL     1     -20.038  -4.137 -28.772  0.00  0.00    +0.000 C 
ATOM     41  C26 UNL     1     -21.149  -5.057 -26.727  0.00  0.00    +0.000 C 
ATOM     42  C27 UNL     1     -18.878  -5.857 -27.399  0.00  0.00    +0.000 C 
ENDBRANCH  28  39
ENDBRANCH   1  28
TORSDOF 10
ENDMDL
MODEL 5
REMARK VINA RESULT:    -5.855      2.412      4.969
REMARK INTER + INTRA:         -11.179
REMARK INTER:                  -9.312
REMARK INTRA:                  -1.867
REMARK UNBOUND:                -1.901
REMARK  Name = /home/anacleto/Desktop/manuscript_Mpro/naturecomm/supplementary_file_S2/6-chemical-library/molecular_docking/3D_ligand_structure/boceprevir.pdb
REMARK  18 active torsions:
REMARK  status: ('A' for Active; 'I' for Inactive)
REMARK    1  A    between atoms: C1_1  and  C2_2
REMARK    2  A    between atoms: C2_2  and  C3_3
REMARK    3  A    between atoms: C2_2  and  C4_4
REMARK    4  A    between atoms: C2_2  and  N1_5
REMARK    5  A    between atoms: N2_8  and  C6_9
REMARK    6  A    between atoms: C6_9  and  C7_10
REMARK    7  A    between atoms: C6_9  and  C24_34
REMARK    8  A    between atoms: C11_16  and  C12_17
REMARK    9  A    between atoms: N4_19  and  C13_20
REMARK   10  A    between atoms: C13_20  and  C14_21
REMARK   11  A    between atoms: C13_20  and  C19_26
REMARK   12  A    between atoms: C14_21  and  C15_22
REMARK   13  A    between atoms: C19_26  and  C20_28
REMARK   14  A    between atoms: C21_31  and  C22_32
REMARK   15  A    between atoms: C21_31  and  C23_33
REMARK   16  A    between atoms: C24_34  and  C25_35
REMARK   17  A    between atoms: C24_34  and  C26_36
REMARK   18  A    between atoms: C24_34  and  C27_37
REMARK                            x       y       z     vdW  Elec       q    Type
REMARK                         _______ _______ _______ _____ _____    ______ ____
ROOT
ATOM      1  C7  UNL     1     -22.713  -7.006 -28.440  0.00  0.00    +0.000 C 
ATOM      2  O2  UNL     1     -23.177  -7.653 -27.491  0.00  0.00    +0.000 OA
ATOM      3  N3  UNL     1     -22.020  -5.836 -28.227  0.00  0.00    +0.000 N 
ATOM      4  C8  UNL     1     -21.162  -5.167 -29.196  0.00  0.00    +0.000 C 
ATOM      5  C9  UNL     1     -20.373  -4.176 -28.402  0.00  0.00    +0.000 C 
ATOM      6  C10 UNL     1     -20.782  -4.282 -26.967  0.00  0.00    +0.000 C 
ATOM      7  C11 UNL     1     -21.853  -5.341 -26.859  0.00  0.00    +0.000 C 
ATOM      8  C21 UNL     1     -19.336  -4.563 -27.360  0.00  0.00    +0.000 C 
ATOM      9  C22 UNL     1     -18.304  -3.521 -27.011  0.00  0.00    +0.000 C 
ATOM     10  C23 UNL     1     -18.794  -5.970 -27.317  0.00  0.00    +0.000 C 
ENDROOT
BRANCH   7  11
ATOM     11  C12 UNL     1     -23.191  -4.747 -26.355  0.00  0.00    +0.000 C 
ATOM     12  O3  UNL     1     -23.694  -3.715 -26.793  0.00  0.00    +0.000 OA
ATOM     13  N4  UNL     1     -23.751  -5.439 -25.297  0.00  0.00    +0.000 N 
ATOM     14  H18 UNL     1     -23.105  -5.966 -24.712  0.00  0.00    +0.000 HD
BRANCH  13  15
ATOM     15  C13 UNL     1     -24.982  -4.966 -24.665  0.00  0.00    +0.000 C 
BRANCH  15  16
ATOM     16  C19 UNL     1     -24.734  -4.352 -23.286  0.00  0.00    +0.000 C 
ATOM     17  O4  UNL     1     -25.000  -4.914 -22.223  0.00  0.00    +0.000 OA
BRANCH  16  18
ATOM     18  C20 UNL     1     -23.972  -3.023 -23.217  0.00  0.00    +0.000 C 
ATOM     19  N5  UNL     1     -22.957  -3.006 -22.300  0.00  0.00    +0.000 N 
ATOM     20  O5  UNL     1     -24.250  -2.075 -23.935  0.00  0.00    +0.000 OA
ATOM     21  H29 UNL     1     -22.382  -2.183 -22.192  0.00  0.00    +0.000 HD
ATOM     22  H30 UNL     1     -22.768  -3.836 -21.746  0.00  0.00    +0.000 HD
ENDBRANCH  16  18
ENDBRANCH  15  16
BRANCH  15  23
ATOM     23  C14 UNL     1     -25.970  -6.140 -24.582  0.00  0.00    +0.000 C 
BRANCH  23  24
ATOM     24  C15 UNL     1     -26.584  -6.489 -25.941  0.00  0.00    +0.000 C 
ATOM     25  C16 UNL     1     -28.046  -7.015 -25.866  0.00  0.00    +0.000 C 
ATOM     26  C17 UNL     1     -28.526  -5.585 -26.166  0.00  0.00    +0.000 C 
ATOM     27  C18 UNL     1     -27.148  -5.321 -26.801  0.00  0.00    +0.000 C 
ENDBRANCH  23  24
ENDBRANCH  15  23
ENDBRANCH  13  15
ENDBRANCH   7  11
BRANCH   1  28
ATOM     28  C6  UNL     1     -22.943  -7.490 -29.894  0.00  0.00    +0.000 C 
BRANCH  28  32
ATOM     29  N1  UNL     1     -20.199  -9.696 -30.790  0.00  0.00    +0.000 N 
ATOM     30  C5  UNL     1     -20.944  -8.545 -30.864  0.00  0.00    +0.000 C 
ATOM     31  O1  UNL     1     -20.685  -7.570 -31.553  0.00  0.00    +0.000 OA
ATOM     32  N2  UNL     1     -22.053  -8.647 -30.059  0.00  0.00    +0.000 N 
ATOM     33  H10 UNL     1     -20.759 -10.498 -30.539  0.00  0.00    +0.000 HD
ATOM     34  H11 UNL     1     -21.848  -9.117 -29.184  0.00  0.00    +0.000 HD
BRANCH  29  36
ATOM     35  C1  UNL     1     -19.374  -9.975 -33.107  0.00  0.00    +0.000 C 
ATOM     36  C2  UNL     1     -19.014  -9.969 -31.615  0.00  0.00    +0.000 C 
ATOM     37  C3  UNL     1     -18.486 -11.365 -31.230  0.00  0.00    +0.000 C 
ATOM     38  C4  UNL     1     -17.896  -8.946 -31.350  0.00  0.00    +0.000 C 
ENDBRANCH  29  36
ENDBRANCH  28  32
BRANCH  28  39
ATOM     39  C24 UNL     1     -24.430  -7.866 -30.196  0.00  0.00    +0.000 C 
ATOM     40  C25 UNL     1     -25.351  -6.733 -29.687  0.00  0.00    +0.000 C 
ATOM     41  C26 UNL     1     -24.702  -8.071 -31.699  0.00  0.00    +0.000 C 
ATOM     42  C27 UNL     1     -24.826  -9.152 -29.449  0.00  0.00    +0.000 C 
ENDBRANCH  28  39
ENDBRANCH   1  28
TORSDOF 10
ENDMDL
MODEL 6
REMARK VINA RESULT:    -5.738      2.600      7.659
REMARK INTER + INTRA:         -10.993
REMARK INTER:                  -8.542
REMARK INTRA:                  -2.451
REMARK UNBOUND:                -1.901
REMARK  Name = /home/anacleto/Desktop/manuscript_Mpro/naturecomm/supplementary_file_S2/6-chemical-library/molecular_docking/3D_ligand_structure/boceprevir.pdb
REMARK  18 active torsions:
REMARK  status: ('A' for Active; 'I' for Inactive)
REMARK    1  A    between atoms: C1_1  and  C2_2
REMARK    2  A    between atoms: C2_2  and  C3_3
REMARK    3  A    between atoms: C2_2  and  C4_4
REMARK    4  A    between atoms: C2_2  and  N1_5
REMARK    5  A    between atoms: N2_8  and  C6_9
REMARK    6  A    between atoms: C6_9  and  C7_10
REMARK    7  A    between atoms: C6_9  and  C24_34
REMARK    8  A    between atoms: C11_16  and  C12_17
REMARK    9  A    between atoms: N4_19  and  C13_20
REMARK   10  A    between atoms: C13_20  and  C14_21
REMARK   11  A    between atoms: C13_20  and  C19_26
REMARK   12  A    between atoms: C14_21  and  C15_22
REMARK   13  A    between atoms: C19_26  and  C20_28
REMARK   14  A    between atoms: C21_31  and  C22_32
REMARK   15  A    between atoms: C21_31  and  C23_33
REMARK   16  A    between atoms: C24_34  and  C25_35
REMARK   17  A    between atoms: C24_34  and  C26_36
REMARK   18  A    between atoms: C24_34  and  C27_37
REMARK                            x       y       z     vdW  Elec       q    Type
REMARK                         _______ _______ _______ _____ _____    ______ ____
ROOT
ATOM      1  C7  UNL     1     -23.638  -6.895 -27.621  0.00  0.00    +0.000 C 
ATOM      2  O2  UNL     1     -22.699  -7.481 -27.063  0.00  0.00    +0.000 OA
ATOM      3  N3  UNL     1     -23.835  -7.005 -28.978  0.00  0.00    +0.000 N 
ATOM      4  C8  UNL     1     -25.052  -6.648 -29.694  0.00  0.00    +0.000 C 
ATOM      5  C9  UNL     1     -24.911  -7.273 -31.044  0.00  0.00    +0.000 C 
ATOM      6  C10 UNL     1     -23.602  -7.995 -31.099  0.00  0.00    +0.000 C 
ATOM      7  C11 UNL     1     -22.904  -7.809 -29.773  0.00  0.00    +0.000 C 
ATOM      8  C21 UNL     1     -24.899  -8.775 -31.282  0.00  0.00    +0.000 C 
ATOM      9  C22 UNL     1     -25.241  -9.243 -32.674  0.00  0.00    +0.000 C 
ATOM     10  C23 UNL     1     -25.381  -9.716 -30.206  0.00  0.00    +0.000 C 
ENDROOT
BRANCH   7  11
ATOM     11  C12 UNL     1     -21.567  -7.045 -29.938  0.00  0.00    +0.000 C 
ATOM     12  O3  UNL     1     -21.406  -6.097 -30.702  0.00  0.00    +0.000 OA
ATOM     13  N4  UNL     1     -20.524  -7.573 -29.199  0.00  0.00    +0.000 N 
ATOM     14  H18 UNL     1     -20.590  -8.563 -28.971  0.00  0.00    +0.000 HD
BRANCH  13  15
ATOM     15  C13 UNL     1     -19.180  -7.004 -29.296  0.00  0.00    +0.000 C 
BRANCH  15  16
ATOM     16  C19 UNL     1     -18.175  -7.978 -29.916  0.00  0.00    +0.000 C 
ATOM     17  O4  UNL     1     -17.433  -8.711 -29.262  0.00  0.00    +0.000 OA
BRANCH  16  18
ATOM     18  C20 UNL     1     -18.198  -8.163 -31.438  0.00  0.00    +0.000 C 
ATOM     19  N5  UNL     1     -16.962  -8.142 -32.024  0.00  0.00    +0.000 N 
ATOM     20  O5  UNL     1     -19.237  -8.326 -32.058  0.00  0.00    +0.000 OA
ATOM     21  H29 UNL     1     -16.868  -8.274 -33.021  0.00  0.00    +0.000 HD
ATOM     22  H30 UNL     1     -16.136  -8.017 -31.447  0.00  0.00    +0.000 HD
ENDBRANCH  16  18
ENDBRANCH  15  16
BRANCH  15  23
ATOM     23  C14 UNL     1     -18.735  -6.562 -27.894  0.00  0.00    +0.000 C 
BRANCH  23  24
ATOM     24  C15 UNL     1     -19.629  -5.464 -27.312  0.00  0.00    +0.000 C 
ATOM     25  C16 UNL     1     -19.019  -4.724 -26.088  0.00  0.00    +0.000 C 
ATOM     26  C17 UNL     1     -18.530  -3.630 -27.051  0.00  0.00    +0.000 C 
ATOM     27  C18 UNL     1     -19.634  -4.081 -28.026  0.00  0.00    +0.000 C 
ENDBRANCH  23  24
ENDBRANCH  15  23
ENDBRANCH  13  15
ENDBRANCH   7  11
BRANCH   1  28
ATOM     28  C6  UNL     1     -24.586  -5.989 -26.794  0.00  0.00    +0.000 C 
BRANCH  28  32
ATOM     29  N1  UNL     1     -26.439  -7.891 -24.314  0.00  0.00    +0.000 N 
ATOM     30  C5  UNL     1     -26.305  -7.027 -25.373  0.00  0.00    +0.000 C 
ATOM     31  O1  UNL     1     -27.222  -6.511 -25.994  0.00  0.00    +0.000 OA
ATOM     32  N2  UNL     1     -24.974  -6.800 -25.632  0.00  0.00    +0.000 N 
ATOM     33  H10 UNL     1     -25.643  -7.862 -23.693  0.00  0.00    +0.000 HD
ATOM     34  H11 UNL     1     -24.416  -7.640 -25.532  0.00  0.00    +0.000 HD
BRANCH  29  36
ATOM     35  C1  UNL     1     -28.417  -7.016 -23.110  0.00  0.00    +0.000 C 
ATOM     36  C2  UNL     1     -27.724  -8.252 -23.699  0.00  0.00    +0.000 C 
ATOM     37  C3  UNL     1     -27.434  -9.245 -22.557  0.00  0.00    +0.000 C 
ATOM     38  C4  UNL     1     -28.656  -8.944 -24.709  0.00  0.00    +0.000 C 
ENDBRANCH  29  36
ENDBRANCH  28  32
BRANCH  28  39
ATOM     39  C24 UNL     1     -23.931  -4.640 -26.356  0.00  0.00    +0.000 C 
ATOM     40  C25 UNL     1     -25.038  -3.673 -25.874  0.00  0.00    +0.000 C 
ATOM     41  C26 UNL     1     -22.911  -4.813 -25.214  0.00  0.00    +0.000 C 
ATOM     42  C27 UNL     1     -23.221  -3.970 -27.546  0.00  0.00    +0.000 C 
ENDBRANCH  28  39
ENDBRANCH   1  28
TORSDOF 10
ENDMDL
MODEL 7
REMARK VINA RESULT:    -5.618      4.468      7.044
REMARK INTER + INTRA:         -10.803
REMARK INTER:                  -8.827
REMARK INTRA:                  -1.976
REMARK UNBOUND:                -1.901
REMARK  Name = /home/anacleto/Desktop/manuscript_Mpro/naturecomm/supplementary_file_S2/6-chemical-library/molecular_docking/3D_ligand_structure/boceprevir.pdb
REMARK  18 active torsions:
REMARK  status: ('A' for Active; 'I' for Inactive)
REMARK    1  A    between atoms: C1_1  and  C2_2
REMARK    2  A    between atoms: C2_2  and  C3_3
REMARK    3  A    between atoms: C2_2  and  C4_4
REMARK    4  A    between atoms: C2_2  and  N1_5
REMARK    5  A    between atoms: N2_8  and  C6_9
REMARK    6  A    between atoms: C6_9  and  C7_10
REMARK    7  A    between atoms: C6_9  and  C24_34
REMARK    8  A    between atoms: C11_16  and  C12_17
REMARK    9  A    between atoms: N4_19  and  C13_20
REMARK   10  A    between atoms: C13_20  and  C14_21
REMARK   11  A    between atoms: C13_20  and  C19_26
REMARK   12  A    between atoms: C14_21  and  C15_22
REMARK   13  A    between atoms: C19_26  and  C20_28
REMARK   14  A    between atoms: C21_31  and  C22_32
REMARK   15  A    between atoms: C21_31  and  C23_33
REMARK   16  A    between atoms: C24_34  and  C25_35
REMARK   17  A    between atoms: C24_34  and  C26_36
REMARK   18  A    between atoms: C24_34  and  C27_37
REMARK                            x       y       z     vdW  Elec       q    Type
REMARK                         _______ _______ _______ _____ _____    ______ ____
ROOT
ATOM      1  C7  UNL     1     -16.740  -9.237 -27.468  0.00  0.00    +0.000 C 
ATOM      2  O2  UNL     1     -16.724  -8.049 -27.117  0.00  0.00    +0.000 OA
ATOM      3  N3  UNL     1     -17.295  -9.613 -28.670  0.00  0.00    +0.000 N 
ATOM      4  C8  UNL     1     -17.095 -10.892 -29.338  0.00  0.00    +0.000 C 
ATOM      5  C9  UNL     1     -17.587 -10.686 -30.734  0.00  0.00    +0.000 C 
ATOM      6  C10 UNL     1     -18.071  -9.277 -30.865  0.00  0.00    +0.000 C 
ATOM      7  C11 UNL     1     -17.896  -8.592 -29.531  0.00  0.00    +0.000 C 
ATOM      8  C21 UNL     1     -16.918  -9.761 -31.737  0.00  0.00    +0.000 C 
ATOM      9  C22 UNL     1     -17.207 -10.019 -33.195  0.00  0.00    +0.000 C 
ATOM     10  C23 UNL     1     -15.515  -9.264 -31.491  0.00  0.00    +0.000 C 
ENDROOT
BRANCH   7  11
ATOM     11  C12 UNL     1     -19.256  -8.146 -28.938  0.00  0.00    +0.000 C 
ATOM     12  O3  UNL     1     -20.263  -8.850 -28.924  0.00  0.00    +0.000 OA
ATOM     13  N4  UNL     1     -19.271  -6.840 -28.488  0.00  0.00    +0.000 N 
ATOM     14  H18 UNL     1     -18.604  -6.206 -28.923  0.00  0.00    +0.000 HD
BRANCH  13  15
ATOM     15  C13 UNL     1     -20.500  -6.248 -27.960  0.00  0.00    +0.000 C 
BRANCH  15  16
ATOM     16  C19 UNL     1     -21.389  -5.664 -29.060  0.00  0.00    +0.000 C 
ATOM     17  O4  UNL     1     -22.473  -5.119 -28.853  0.00  0.00    +0.000 OA
BRANCH  16  18
ATOM     18  C20 UNL     1     -20.830  -5.620 -30.487  0.00  0.00    +0.000 C 
ATOM     19  N5  UNL     1     -21.648  -6.184 -31.427  0.00  0.00    +0.000 N 
ATOM     20  O5  UNL     1     -19.752  -5.110 -30.749  0.00  0.00    +0.000 OA
ATOM     21  H29 UNL     1     -21.379  -6.188 -32.400  0.00  0.00    +0.000 HD
ATOM     22  H30 UNL     1     -22.541  -6.577 -31.144  0.00  0.00    +0.000 HD
ENDBRANCH  16  18
ENDBRANCH  15  16
BRANCH  15  23
ATOM     23  C14 UNL     1     -20.121  -5.178 -26.925  0.00  0.00    +0.000 C 
BRANCH  23  24
ATOM     24  C15 UNL     1     -18.607  -4.972 -26.820  0.00  0.00    +0.000 C 
ATOM     25  C16 UNL     1     -18.174  -3.487 -26.646  0.00  0.00    +0.000 C 
ATOM     26  C17 UNL     1     -18.111  -3.731 -25.130  0.00  0.00    +0.000 C 
ATOM     27  C18 UNL     1     -17.936  -5.230 -25.440  0.00  0.00    +0.000 C 
ENDBRANCH  23  24
ENDBRANCH  15  23
ENDBRANCH  13  15
ENDBRANCH   7  11
BRANCH   1  28
ATOM     28  C6  UNL     1     -16.165 -10.330 -26.531  0.00  0.00    +0.000 C 
BRANCH  28  32
ATOM     29  N1  UNL     1     -12.739  -9.278 -25.936  0.00  0.00    +0.000 N 
ATOM     30  C5  UNL     1     -13.727 -10.004 -26.553  0.00  0.00    +0.000 C 
ATOM     31  O1  UNL     1     -13.567 -10.786 -27.479  0.00  0.00    +0.000 OA
ATOM     32  N2  UNL     1     -14.942  -9.746 -25.965  0.00  0.00    +0.000 N 
ATOM     33  H10 UNL     1     -12.972  -9.050 -24.980  0.00  0.00    +0.000 HD
ATOM     34  H11 UNL     1     -15.048  -8.767 -25.720  0.00  0.00    +0.000 HD
BRANCH  29  36
ATOM     35  C1  UNL     1     -11.054  -9.319 -27.749  0.00  0.00    +0.000 C 
ATOM     36  C2  UNL     1     -11.307  -9.407 -26.237  0.00  0.00    +0.000 C 
ATOM     37  C3  UNL     1     -10.847 -10.792 -25.741  0.00  0.00    +0.000 C 
ATOM     38  C4  UNL     1     -10.479  -8.338 -25.504  0.00  0.00    +0.000 C 
ENDBRANCH  29  36
ENDBRANCH  28  32
BRANCH  28  39
ATOM     39  C24 UNL     1     -17.159 -10.772 -25.409  0.00  0.00    +0.000 C 
ATOM     40  C25 UNL     1     -16.872  -9.955 -24.128  0.00  0.00    +0.000 C 
ATOM     41  C26 UNL     1     -18.635 -10.556 -25.798  0.00  0.00    +0.000 C 
ATOM     42  C27 UNL     1     -16.959 -12.258 -25.062  0.00  0.00    +0.000 C 
ENDBRANCH  28  39
ENDBRANCH   1  28
TORSDOF 10
ENDMDL
MODEL 8
REMARK VINA RESULT:    -5.462      3.012      6.966
REMARK INTER + INTRA:         -10.557
REMARK INTER:                  -8.656
REMARK INTRA:                  -1.901
REMARK UNBOUND:                -1.901
REMARK  Name = /home/anacleto/Desktop/manuscript_Mpro/naturecomm/supplementary_file_S2/6-chemical-library/molecular_docking/3D_ligand_structure/boceprevir.pdb
REMARK  18 active torsions:
REMARK  status: ('A' for Active; 'I' for Inactive)
REMARK    1  A    between atoms: C1_1  and  C2_2
REMARK    2  A    between atoms: C2_2  and  C3_3
REMARK    3  A    between atoms: C2_2  and  C4_4
REMARK    4  A    between atoms: C2_2  and  N1_5
REMARK    5  A    between atoms: N2_8  and  C6_9
REMARK    6  A    between atoms: C6_9  and  C7_10
REMARK    7  A    between atoms: C6_9  and  C24_34
REMARK    8  A    between atoms: C11_16  and  C12_17
REMARK    9  A    between atoms: N4_19  and  C13_20
REMARK   10  A    between atoms: C13_20  and  C14_21
REMARK   11  A    between atoms: C13_20  and  C19_26
REMARK   12  A    between atoms: C14_21  and  C15_22
REMARK   13  A    between atoms: C19_26  and  C20_28
REMARK   14  A    between atoms: C21_31  and  C22_32
REMARK   15  A    between atoms: C21_31  and  C23_33
REMARK   16  A    between atoms: C24_34  and  C25_35
REMARK   17  A    between atoms: C24_34  and  C26_36
REMARK   18  A    between atoms: C24_34  and  C27_37
REMARK                            x       y       z     vdW  Elec       q    Type
REMARK                         _______ _______ _______ _____ _____    ______ ____
ROOT
ATOM      1  C7  UNL     1     -22.146  -6.727 -29.128  0.00  0.00    +0.000 C 
ATOM      2  O2  UNL     1     -22.164  -7.906 -28.747  0.00  0.00    +0.000 OA
ATOM      3  N3  UNL     1     -23.295  -5.971 -29.147  0.00  0.00    +0.000 N 
ATOM      4  C8  UNL     1     -23.358  -4.520 -29.255  0.00  0.00    +0.000 C 
ATOM      5  C9  UNL     1     -24.756  -4.158 -28.871  0.00  0.00    +0.000 C 
ATOM      6  C10 UNL     1     -25.498  -5.413 -28.538  0.00  0.00    +0.000 C 
ATOM      7  C11 UNL     1     -24.559  -6.581 -28.730  0.00  0.00    +0.000 C 
ATOM      8  C21 UNL     1     -25.321  -4.339 -27.471  0.00  0.00    +0.000 C 
ATOM      9  C22 UNL     1     -26.526  -3.506 -27.114  0.00  0.00    +0.000 C 
ATOM     10  C23 UNL     1     -24.393  -4.569 -26.304  0.00  0.00    +0.000 C 
ENDROOT
BRANCH   7  11
ATOM     11  C12 UNL     1     -25.064  -7.538 -29.839  0.00  0.00    +0.000 C 
ATOM     12  O3  UNL     1     -25.697  -7.174 -30.826  0.00  0.00    +0.000 OA
ATOM     13  N4  UNL     1     -24.809  -8.873 -29.586  0.00  0.00    +0.000 N 
ATOM     14  H18 UNL     1     -24.712  -9.136 -28.608  0.00  0.00    +0.000 HD
BRANCH  13  15
ATOM     15  C13 UNL     1     -25.280  -9.909 -30.506  0.00  0.00    +0.000 C 
BRANCH  15  16
ATOM     16  C19 UNL     1     -25.843 -11.130 -29.775  0.00  0.00    +0.000 C 
ATOM     17  O4  UNL     1     -25.771 -12.282 -30.202  0.00  0.00    +0.000 OA
BRANCH  16  18
ATOM     18  C20 UNL     1     -26.394 -10.928 -28.358  0.00  0.00    +0.000 C 
ATOM     19  N5  UNL     1     -27.759 -10.888 -28.288  0.00  0.00    +0.000 N 
ATOM     20  O5  UNL     1     -25.665 -10.826 -27.384  0.00  0.00    +0.000 OA
ATOM     21  H29 UNL     1     -28.221 -10.778 -27.397  0.00  0.00    +0.000 HD
ATOM     22  H30 UNL     1     -28.308 -10.997 -29.137  0.00  0.00    +0.000 HD
ENDBRANCH  16  18
ENDBRANCH  15  16
BRANCH  15  23
ATOM     23  C14 UNL     1     -24.121 -10.301 -31.434  0.00  0.00    +0.000 C 
BRANCH  23  24
ATOM     24  C15 UNL     1     -24.261  -9.700 -32.836  0.00  0.00    +0.000 C 
ATOM     25  C16 UNL     1     -24.031 -10.716 -33.992  0.00  0.00    +0.000 C 
ATOM     26  C17 UNL     1     -25.555 -10.904 -34.067  0.00  0.00    +0.000 C 
ATOM     27  C18 UNL     1     -25.698  -9.520 -33.405  0.00  0.00    +0.000 C 
ENDBRANCH  23  24
ENDBRANCH  15  23
ENDBRANCH  13  15
ENDBRANCH   7  11
BRANCH   1  28
ATOM     28  C6  UNL     1     -20.822  -6.097 -29.632  0.00  0.00    +0.000 C 
BRANCH  28  32
ATOM     29  N1  UNL     1     -18.798  -5.580 -26.660  0.00  0.00    +0.000 N 
ATOM     30  C5  UNL     1     -19.621  -5.189 -27.687  0.00  0.00    +0.000 C 
ATOM     31  O1  UNL     1     -20.058  -4.061 -27.862  0.00  0.00    +0.000 OA
ATOM     32  N2  UNL     1     -19.875  -6.252 -28.520  0.00  0.00    +0.000 N 
ATOM     33  H10 UNL     1     -18.224  -6.372 -26.910  0.00  0.00    +0.000 HD
ATOM     34  H11 UNL     1     -20.006  -7.117 -28.007  0.00  0.00    +0.000 HD
BRANCH  29  36
ATOM     35  C1  UNL     1     -17.729  -3.374 -26.318  0.00  0.00    +0.000 C 
ATOM     36  C2  UNL     1     -18.234  -4.665 -25.658  0.00  0.00    +0.000 C 
ATOM     37  C3  UNL     1     -17.040  -5.377 -24.992  0.00  0.00    +0.000 C 
ATOM     38  C4  UNL     1     -19.259  -4.327 -24.563  0.00  0.00    +0.000 C 
ENDBRANCH  29  36
ENDBRANCH  28  32
BRANCH  28  39
ATOM     39  C24 UNL     1     -20.279  -6.756 -30.941  0.00  0.00    +0.000 C 
ATOM     40  C25 UNL     1     -18.864  -7.319 -30.674  0.00  0.00    +0.000 C 
ATOM     41  C26 UNL     1     -21.171  -7.907 -31.445  0.00  0.00    +0.000 C 
ATOM     42  C27 UNL     1     -20.154  -5.709 -32.063  0.00  0.00    +0.000 C 
ENDBRANCH  28  39
ENDBRANCH   1  28
TORSDOF 10
ENDMDL
MODEL 9
REMARK VINA RESULT:    -5.270      2.776      5.706
REMARK INTER + INTRA:         -10.252
REMARK INTER:                  -8.163
REMARK INTRA:                  -2.088
REMARK UNBOUND:                -1.901
REMARK  Name = /home/anacleto/Desktop/manuscript_Mpro/naturecomm/supplementary_file_S2/6-chemical-library/molecular_docking/3D_ligand_structure/boceprevir.pdb
REMARK  18 active torsions:
REMARK  status: ('A' for Active; 'I' for Inactive)
REMARK    1  A    between atoms: C1_1  and  C2_2
REMARK    2  A    between atoms: C2_2  and  C3_3
REMARK    3  A    between atoms: C2_2  and  C4_4
REMARK    4  A    between atoms: C2_2  and  N1_5
REMARK    5  A    between atoms: N2_8  and  C6_9
REMARK    6  A    between atoms: C6_9  and  C7_10
REMARK    7  A    between atoms: C6_9  and  C24_34
REMARK    8  A    between atoms: C11_16  and  C12_17
REMARK    9  A    between atoms: N4_19  and  C13_20
REMARK   10  A    between atoms: C13_20  and  C14_21
REMARK   11  A    between atoms: C13_20  and  C19_26
REMARK   12  A    between atoms: C14_21  and  C15_22
REMARK   13  A    between atoms: C19_26  and  C20_28
REMARK   14  A    between atoms: C21_31  and  C22_32
REMARK   15  A    between atoms: C21_31  and  C23_33
REMARK   16  A    between atoms: C24_34  and  C25_35
REMARK   17  A    between atoms: C24_34  and  C26_36
REMARK   18  A    between atoms: C24_34  and  C27_37
REMARK                            x       y       z     vdW  Elec       q    Type
REMARK                         _______ _______ _______ _____ _____    ______ ____
ROOT
ATOM      1  C7  UNL     1     -23.046  -7.207 -26.891  0.00  0.00    +0.000 C 
ATOM      2  O2  UNL     1     -23.447  -8.267 -26.391  0.00  0.00    +0.000 OA
ATOM      3  N3  UNL     1     -23.601  -6.000 -26.532  0.00  0.00    +0.000 N 
ATOM      4  C8  UNL     1     -23.022  -4.688 -26.786  0.00  0.00    +0.000 C 
ATOM      5  C9  UNL     1     -23.786  -3.746 -25.913  0.00  0.00    +0.000 C 
ATOM      6  C10 UNL     1     -24.809  -4.528 -25.152  0.00  0.00    +0.000 C 
ATOM      7  C11 UNL     1     -24.698  -5.977 -25.563  0.00  0.00    +0.000 C 
ATOM      8  C21 UNL     1     -23.727  -3.768 -24.394  0.00  0.00    +0.000 C 
ATOM      9  C22 UNL     1     -24.134  -2.502 -23.682  0.00  0.00    +0.000 C 
ATOM     10  C23 UNL     1     -22.622  -4.514 -23.689  0.00  0.00    +0.000 C 
ENDROOT
BRANCH   7  11
ATOM     11  C12 UNL     1     -25.999  -6.477 -26.239  0.00  0.00    +0.000 C 
ATOM     12  O3  UNL     1     -26.608  -5.853 -27.103  0.00  0.00    +0.000 OA
ATOM     13  N4  UNL     1     -26.474  -7.671 -25.728  0.00  0.00    +0.000 N 
ATOM     14  H18 UNL     1     -26.212  -7.886 -24.768  0.00  0.00    +0.000 HD
BRANCH  13  15
ATOM     15  C13 UNL     1     -27.729  -8.243 -26.215  0.00  0.00    +0.000 C 
BRANCH  15  16
ATOM     16  C19 UNL     1     -28.878  -8.070 -25.219  0.00  0.00    +0.000 C 
ATOM     17  O4  UNL     1     -29.562  -8.998 -24.788  0.00  0.00    +0.000 OA
BRANCH  16  18
ATOM     18  C20 UNL     1     -29.093  -6.681 -24.604  0.00  0.00    +0.000 C 
ATOM     19  N5  UNL     1     -30.097  -5.960 -25.190  0.00  0.00    +0.000 N 
ATOM     20  O5  UNL     1     -28.426  -6.274 -23.667  0.00  0.00    +0.000 OA
ATOM     21  H29 UNL     1     -30.331  -5.040 -24.845  0.00  0.00    +0.000 HD
ATOM     22  H30 UNL     1     -30.625  -6.365 -25.957  0.00  0.00    +0.000 HD
ENDBRANCH  16  18
ENDBRANCH  15  16
BRANCH  15  23
ATOM     23  C14 UNL     1     -27.494  -9.725 -26.542  0.00  0.00    +0.000 C 
BRANCH  23  24
ATOM     24  C15 UNL     1     -26.115  -9.981 -27.157  0.00  0.00    +0.000 C 
ATOM     25  C16 UNL     1     -25.385 -11.232 -26.591  0.00  0.00    +0.000 C 
ATOM     26  C17 UNL     1     -25.920 -12.030 -27.791  0.00  0.00    +0.000 C 
ATOM     27  C18 UNL     1     -26.061 -10.692 -28.540  0.00  0.00    +0.000 C 
ENDBRANCH  23  24
ENDBRANCH  15  23
ENDBRANCH  13  15
ENDBRANCH   7  11
BRANCH   1  28
ATOM     28  C6  UNL     1     -21.929  -7.232 -27.967  0.00  0.00    +0.000 C 
BRANCH  28  32
ATOM     29  N1  UNL     1     -18.946  -9.013 -26.906  0.00  0.00    +0.000 N 
ATOM     30  C5  UNL     1     -19.636  -7.963 -27.460  0.00  0.00    +0.000 C 
ATOM     31  O1  UNL     1     -19.145  -6.923 -27.872  0.00  0.00    +0.000 OA
ATOM     32  N2  UNL     1     -20.979  -8.254 -27.510  0.00  0.00    +0.000 N 
ATOM     33  H10 UNL     1     -19.425  -9.893 -27.029  0.00  0.00    +0.000 HD
ATOM     34  H11 UNL     1     -21.294  -8.746 -26.681  0.00  0.00    +0.000 HD
BRANCH  29  36
ATOM     35  C1  UNL     1     -17.031 -10.430 -26.232  0.00  0.00    +0.000 C 
ATOM     36  C2  UNL     1     -17.481  -9.082 -26.813  0.00  0.00    +0.000 C 
ATOM     37  C3  UNL     1     -17.017  -7.959 -25.866  0.00  0.00    +0.000 C 
ATOM     38  C4  UNL     1     -16.819  -8.855 -28.183  0.00  0.00    +0.000 C 
ENDBRANCH  29  36
ENDBRANCH  28  32
BRANCH  28  39
ATOM     39  C24 UNL     1     -22.458  -7.545 -29.404  0.00  0.00    +0.000 C 
ATOM     40  C25 UNL     1     -21.590  -6.792 -30.438  0.00  0.00    +0.000 C 
ATOM     41  C26 UNL     1     -22.417  -9.049 -29.742  0.00  0.00    +0.000 C 
ATOM     42  C27 UNL     1     -23.906  -7.049 -29.569  0.00  0.00    +0.000 C 
ENDBRANCH  28  39
ENDBRANCH   1  28
TORSDOF 10
ENDMDL
