MODEL 1
REMARK VINA RESULT:    -4.235      0.000      0.000
REMARK INTER + INTRA:          -5.051
REMARK INTER:                  -4.638
REMARK INTRA:                  -0.413
REMARK UNBOUND:                -0.321
REMARK  Name = /home/anacleto/Desktop/manuscript_Mpro/naturecomm/supplementary_file_S2/6-chemical-library/molecular_docking/3D_ligand_structure/1394.pdb
REMARK  2 active torsions:
REMARK  status: ('A' for Active; 'I' for Inactive)
REMARK    1  A    between atoms: C3_3  and  C4_4
REMARK    2  A    between atoms: C4_4  and  C5_5
REMARK                            x       y       z     vdW  Elec       q    Type
REMARK                         _______ _______ _______ _____ _____    ______ ____
ROOT
ATOM      1  C5  UNL     1     -35.433  11.203 -33.220  0.00  0.00    +0.000 A 
ATOM      2  C6  UNL     1     -34.054  11.013 -33.052  0.00  0.00    +0.000 A 
ATOM      3  C7  UNL     1     -33.141  11.710 -33.845  0.00  0.00    +0.000 A 
ATOM      4  C8  UNL     1     -33.596  12.606 -34.811  0.00  0.00    +0.000 A 
ATOM      5  C9  UNL     1     -34.964  12.808 -34.982  0.00  0.00    +0.000 A 
ATOM      6  C10 UNL     1     -35.879  12.113 -34.189  0.00  0.00    +0.000 A 
ENDROOT
BRANCH   1   7
ATOM      7  C4  UNL     1     -36.420  10.463 -32.352  0.00  0.00    +0.000 C 
BRANCH   7  10
ATOM      8  C1  UNL     1     -37.403  11.130 -30.035  0.00  0.00    +0.000 C 
ATOM      9  C2  UNL     1     -36.509  12.264 -30.453  0.00  0.00    +0.000 C 
ATOM     10  C3  UNL     1     -37.197  11.424 -31.499  0.00  0.00    +0.000 C 
ENDBRANCH   7  10
ENDBRANCH   1   7
TORSDOF 2
ENDMDL
MODEL 2
REMARK VINA RESULT:    -4.154     12.198     14.136
REMARK INTER + INTRA:          -4.960
REMARK INTER:                  -4.659
REMARK INTRA:                  -0.301
REMARK UNBOUND:                -0.321
REMARK  Name = /home/anacleto/Desktop/manuscript_Mpro/naturecomm/supplementary_file_S2/6-chemical-library/molecular_docking/3D_ligand_structure/1394.pdb
REMARK  2 active torsions:
REMARK  status: ('A' for Active; 'I' for Inactive)
REMARK    1  A    between atoms: C3_3  and  C4_4
REMARK    2  A    between atoms: C4_4  and  C5_5
REMARK                            x       y       z     vdW  Elec       q    Type
REMARK                         _______ _______ _______ _____ _____    ______ ____
ROOT
ATOM      1  C5  UNL     1     -25.595   4.256 -38.893  0.00  0.00    +0.000 A 
ATOM      2  C6  UNL     1     -26.821   4.933 -38.960  0.00  0.00    +0.000 A 
ATOM      3  C7  UNL     1     -28.009   4.281 -38.623  0.00  0.00    +0.000 A 
ATOM      4  C8  UNL     1     -27.983   2.949 -38.213  0.00  0.00    +0.000 A 
ATOM      5  C9  UNL     1     -26.769   2.269 -38.136  0.00  0.00    +0.000 A 
ATOM      6  C10 UNL     1     -25.579   2.919 -38.471  0.00  0.00    +0.000 A 
ENDROOT
BRANCH   1   7
ATOM      7  C4  UNL     1     -24.309   4.965 -39.240  0.00  0.00    +0.000 C 
BRANCH   7  10
ATOM      8  C1  UNL     1     -22.296   5.982 -37.938  0.00  0.00    +0.000 C 
ATOM      9  C2  UNL     1     -23.258   7.113 -38.174  0.00  0.00    +0.000 C 
ATOM     10  C3  UNL     1     -23.774   5.702 -38.046  0.00  0.00    +0.000 C 
ENDBRANCH   7  10
ENDBRANCH   1   7
TORSDOF 2
ENDMDL
MODEL 3
REMARK VINA RESULT:    -4.058      1.901      4.241
REMARK INTER + INTRA:          -4.853
REMARK INTER:                  -4.557
REMARK INTRA:                  -0.297
REMARK UNBOUND:                -0.321
REMARK  Name = /home/anacleto/Desktop/manuscript_Mpro/naturecomm/supplementary_file_S2/6-chemical-library/molecular_docking/3D_ligand_structure/1394.pdb
REMARK  2 active torsions:
REMARK  status: ('A' for Active; 'I' for Inactive)
REMARK    1  A    between atoms: C3_3  and  C4_4
REMARK    2  A    between atoms: C4_4  and  C5_5
REMARK                            x       y       z     vdW  Elec       q    Type
REMARK                         _______ _______ _______ _____ _____    ______ ____
ROOT
ATOM      1  C5  UNL     1     -36.242  11.532 -32.235  0.00  0.00    +0.000 A 
ATOM      2  C6  UNL     1     -35.406  12.575 -31.813  0.00  0.00    +0.000 A 
ATOM      3  C7  UNL     1     -35.465  13.043 -30.499  0.00  0.00    +0.000 A 
ATOM      4  C8  UNL     1     -36.358  12.471 -29.594  0.00  0.00    +0.000 A 
ATOM      5  C9  UNL     1     -37.190  11.429 -30.001  0.00  0.00    +0.000 A 
ATOM      6  C10 UNL     1     -37.130  10.959 -31.315  0.00  0.00    +0.000 A 
ENDROOT
BRANCH   1   7
ATOM      7  C4  UNL     1     -36.166  11.015 -33.651  0.00  0.00    +0.000 C 
BRANCH   7  10
ATOM      8  C1  UNL     1     -37.128  11.756 -35.954  0.00  0.00    +0.000 C 
ATOM      9  C2  UNL     1     -38.036  10.669 -35.450  0.00  0.00    +0.000 C 
ATOM     10  C3  UNL     1     -37.304  11.551 -34.470  0.00  0.00    +0.000 C 
ENDBRANCH   7  10
ENDBRANCH   1   7
TORSDOF 2
ENDMDL
MODEL 4
REMARK VINA RESULT:    -4.024      1.174      4.237
REMARK INTER + INTRA:          -4.816
REMARK INTER:                  -4.414
REMARK INTRA:                  -0.402
REMARK UNBOUND:                -0.321
REMARK  Name = /home/anacleto/Desktop/manuscript_Mpro/naturecomm/supplementary_file_S2/6-chemical-library/molecular_docking/3D_ligand_structure/1394.pdb
REMARK  2 active torsions:
REMARK  status: ('A' for Active; 'I' for Inactive)
REMARK    1  A    between atoms: C3_3  and  C4_4
REMARK    2  A    between atoms: C4_4  and  C5_5
REMARK                            x       y       z     vdW  Elec       q    Type
REMARK                         _______ _______ _______ _____ _____    ______ ____
ROOT
ATOM      1  C5  UNL     1     -36.718  11.725 -32.264  0.00  0.00    +0.000 A 
ATOM      2  C6  UNL     1     -36.964  10.881 -31.172  0.00  0.00    +0.000 A 
ATOM      3  C7  UNL     1     -37.692  11.340 -30.072  0.00  0.00    +0.000 A 
ATOM      4  C8  UNL     1     -38.183  12.644 -30.054  0.00  0.00    +0.000 A 
ATOM      5  C9  UNL     1     -37.950  13.490 -31.136  0.00  0.00    +0.000 A 
ATOM      6  C10 UNL     1     -37.224  13.032 -32.238  0.00  0.00    +0.000 A 
ENDROOT
BRANCH   1   7
ATOM      7  C4  UNL     1     -35.947  11.225 -33.460  0.00  0.00    +0.000 C 
BRANCH   7  10
ATOM      8  C1  UNL     1     -33.415  11.643 -33.898  0.00  0.00    +0.000 C 
ATOM      9  C2  UNL     1     -33.673  12.076 -32.482  0.00  0.00    +0.000 C 
ATOM     10  C3  UNL     1     -34.510  10.984 -33.099  0.00  0.00    +0.000 C 
ENDBRANCH   7  10
ENDBRANCH   1   7
TORSDOF 2
ENDMDL
MODEL 5
REMARK VINA RESULT:    -4.020     14.285     15.695
REMARK INTER + INTRA:          -4.811
REMARK INTER:                  -4.542
REMARK INTRA:                  -0.270
REMARK UNBOUND:                -0.321
REMARK  Name = /home/anacleto/Desktop/manuscript_Mpro/naturecomm/supplementary_file_S2/6-chemical-library/molecular_docking/3D_ligand_structure/1394.pdb
REMARK  2 active torsions:
REMARK  status: ('A' for Active; 'I' for Inactive)
REMARK    1  A    between atoms: C3_3  and  C4_4
REMARK    2  A    between atoms: C4_4  and  C5_5
REMARK                            x       y       z     vdW  Elec       q    Type
REMARK                         _______ _______ _______ _____ _____    ______ ____
ROOT
ATOM      1  C5  UNL     1     -21.100   7.470 -38.031  0.00  0.00    +0.000 A 
ATOM      2  C6  UNL     1     -19.871   7.569 -38.699  0.00  0.00    +0.000 A 
ATOM      3  C7  UNL     1     -19.181   8.783 -38.737  0.00  0.00    +0.000 A 
ATOM      4  C8  UNL     1     -19.711   9.907 -38.106  0.00  0.00    +0.000 A 
ATOM      5  C9  UNL     1     -20.928   9.819 -37.433  0.00  0.00    +0.000 A 
ATOM      6  C10 UNL     1     -21.619   8.605 -37.393  0.00  0.00    +0.000 A 
ENDROOT
BRANCH   1   7
ATOM      7  C4  UNL     1     -21.837   6.155 -37.975  0.00  0.00    +0.000 C 
BRANCH   7  10
ATOM      8  C1  UNL     1     -23.787   5.798 -39.663  0.00  0.00    +0.000 C 
ATOM      9  C2  UNL     1     -24.232   5.174 -38.370  0.00  0.00    +0.000 C 
ATOM     10  C3  UNL     1     -23.278   6.342 -38.352  0.00  0.00    +0.000 C 
ENDBRANCH   7  10
ENDBRANCH   1   7
TORSDOF 2
ENDMDL
MODEL 6
REMARK VINA RESULT:    -3.994     14.845     16.538
REMARK INTER + INTRA:          -4.782
REMARK INTER:                  -4.439
REMARK INTRA:                  -0.342
REMARK UNBOUND:                -0.321
REMARK  Name = /home/anacleto/Desktop/manuscript_Mpro/naturecomm/supplementary_file_S2/6-chemical-library/molecular_docking/3D_ligand_structure/1394.pdb
REMARK  2 active torsions:
REMARK  status: ('A' for Active; 'I' for Inactive)
REMARK    1  A    between atoms: C3_3  and  C4_4
REMARK    2  A    between atoms: C4_4  and  C5_5
REMARK                            x       y       z     vdW  Elec       q    Type
REMARK                         _______ _______ _______ _____ _____    ______ ____
ROOT
ATOM      1  C5  UNL     1     -20.419   8.479 -38.041  0.00  0.00    +0.000 A 
ATOM      2  C6  UNL     1     -20.219   9.854 -37.862  0.00  0.00    +0.000 A 
ATOM      3  C7  UNL     1     -19.058  10.469 -38.338  0.00  0.00    +0.000 A 
ATOM      4  C8  UNL     1     -18.090   9.715 -38.999  0.00  0.00    +0.000 A 
ATOM      5  C9  UNL     1     -18.282   8.347 -39.188  0.00  0.00    +0.000 A 
ATOM      6  C10 UNL     1     -19.443   7.732 -38.714  0.00  0.00    +0.000 A 
ENDROOT
BRANCH   1   7
ATOM      7  C4  UNL     1     -21.681   7.818 -37.542  0.00  0.00    +0.000 C 
BRANCH   7  10
ATOM      8  C1  UNL     1     -23.064   5.632 -37.841  0.00  0.00    +0.000 C 
ATOM      9  C2  UNL     1     -22.902   6.217 -39.216  0.00  0.00    +0.000 C 
ATOM     10  C3  UNL     1     -21.848   6.462 -38.166  0.00  0.00    +0.000 C 
ENDBRANCH   7  10
ENDBRANCH   1   7
TORSDOF 2
ENDMDL
MODEL 7
REMARK VINA RESULT:    -3.914     13.703     14.844
REMARK INTER + INTRA:          -4.693
REMARK INTER:                  -4.386
REMARK INTRA:                  -0.307
REMARK UNBOUND:                -0.321
REMARK  Name = /home/anacleto/Desktop/manuscript_Mpro/naturecomm/supplementary_file_S2/6-chemical-library/molecular_docking/3D_ligand_structure/1394.pdb
REMARK  2 active torsions:
REMARK  status: ('A' for Active; 'I' for Inactive)
REMARK    1  A    between atoms: C3_3  and  C4_4
REMARK    2  A    between atoms: C4_4  and  C5_5
REMARK                            x       y       z     vdW  Elec       q    Type
REMARK                         _______ _______ _______ _____ _____    ______ ____
ROOT
ATOM      1  C5  UNL     1     -24.020   5.576 -38.941  0.00  0.00    +0.000 A 
ATOM      2  C6  UNL     1     -23.556   6.109 -40.152  0.00  0.00    +0.000 A 
ATOM      3  C7  UNL     1     -22.284   6.677 -40.235  0.00  0.00    +0.000 A 
ATOM      4  C8  UNL     1     -21.462   6.716 -39.110  0.00  0.00    +0.000 A 
ATOM      5  C9  UNL     1     -21.910   6.183 -37.902  0.00  0.00    +0.000 A 
ATOM      6  C10 UNL     1     -23.182   5.613 -37.818  0.00  0.00    +0.000 A 
ENDROOT
BRANCH   1   7
ATOM      7  C4  UNL     1     -25.389   4.947 -38.856  0.00  0.00    +0.000 C 
BRANCH   7  10
ATOM      8  C1  UNL     1     -26.478   2.668 -38.223  0.00  0.00    +0.000 C 
ATOM      9  C2  UNL     1     -25.947   2.506 -39.620  0.00  0.00    +0.000 C 
ATOM     10  C3  UNL     1     -25.275   3.461 -38.667  0.00  0.00    +0.000 C 
ENDBRANCH   7  10
ENDBRANCH   1   7
TORSDOF 2
ENDMDL
MODEL 8
REMARK VINA RESULT:    -3.805     14.672     16.013
REMARK INTER + INTRA:          -4.571
REMARK INTER:                  -4.161
REMARK INTRA:                  -0.411
REMARK UNBOUND:                -0.321
REMARK  Name = /home/anacleto/Desktop/manuscript_Mpro/naturecomm/supplementary_file_S2/6-chemical-library/molecular_docking/3D_ligand_structure/1394.pdb
REMARK  2 active torsions:
REMARK  status: ('A' for Active; 'I' for Inactive)
REMARK    1  A    between atoms: C3_3  and  C4_4
REMARK    2  A    between atoms: C4_4  and  C5_5
REMARK                            x       y       z     vdW  Elec       q    Type
REMARK                         _______ _______ _______ _____ _____    ______ ____
ROOT
ATOM      1  C5  UNL     1     -21.436   6.875 -38.984  0.00  0.00    +0.000 A 
ATOM      2  C6  UNL     1     -22.134   6.865 -40.200  0.00  0.00    +0.000 A 
ATOM      3  C7  UNL     1     -23.369   6.223 -40.303  0.00  0.00    +0.000 A 
ATOM      4  C8  UNL     1     -23.921   5.588 -39.191  0.00  0.00    +0.000 A 
ATOM      5  C9  UNL     1     -23.239   5.597 -37.976  0.00  0.00    +0.000 A 
ATOM      6  C10 UNL     1     -22.004   6.240 -37.870  0.00  0.00    +0.000 A 
ENDROOT
BRANCH   1   7
ATOM      7  C4  UNL     1     -20.109   7.584 -38.867  0.00  0.00    +0.000 C 
BRANCH   7  10
ATOM      8  C1  UNL     1     -19.626  10.044 -38.164  0.00  0.00    +0.000 C 
ATOM      9  C2  UNL     1     -21.112   9.854 -38.034  0.00  0.00    +0.000 C 
ATOM     10  C3  UNL     1     -20.185   8.680 -37.844  0.00  0.00    +0.000 C 
ENDBRANCH   7  10
ENDBRANCH   1   7
TORSDOF 2
ENDMDL
MODEL 9
REMARK VINA RESULT:    -3.689     10.807     12.554
REMARK INTER + INTRA:          -4.441
REMARK INTER:                  -4.120
REMARK INTRA:                  -0.321
REMARK UNBOUND:                -0.321
REMARK  Name = /home/anacleto/Desktop/manuscript_Mpro/naturecomm/supplementary_file_S2/6-chemical-library/molecular_docking/3D_ligand_structure/1394.pdb
REMARK  2 active torsions:
REMARK  status: ('A' for Active; 'I' for Inactive)
REMARK    1  A    between atoms: C3_3  and  C4_4
REMARK    2  A    between atoms: C4_4  and  C5_5
REMARK                            x       y       z     vdW  Elec       q    Type
REMARK                         _______ _______ _______ _____ _____    ______ ____
ROOT
ATOM      1  C5  UNL     1     -28.088   3.582 -39.385  0.00  0.00    +0.000 A 
ATOM      2  C6  UNL     1     -26.965   4.015 -40.104  0.00  0.00    +0.000 A 
ATOM      3  C7  UNL     1     -25.684   3.605 -39.731  0.00  0.00    +0.000 A 
ATOM      4  C8  UNL     1     -25.512   2.755 -38.639  0.00  0.00    +0.000 A 
ATOM      5  C9  UNL     1     -26.622   2.313 -37.921  0.00  0.00    +0.000 A 
ATOM      6  C10 UNL     1     -27.905   2.722 -38.293  0.00  0.00    +0.000 A 
ENDROOT
BRANCH   1   7
ATOM      7  C4  UNL     1     -29.474   4.012 -39.797  0.00  0.00    +0.000 C 
BRANCH   7  10
ATOM      8  C1  UNL     1     -30.846   5.649 -38.309  0.00  0.00    +0.000 C 
ATOM      9  C2  UNL     1     -29.406   5.836 -37.921  0.00  0.00    +0.000 C 
ATOM     10  C3  UNL     1     -29.757   5.408 -39.323  0.00  0.00    +0.000 C 
ENDBRANCH   7  10
ENDBRANCH   1   7
TORSDOF 2
ENDMDL
