MODEL 1
REMARK VINA RESULT:    -5.678      0.000      0.000
REMARK INTER + INTRA:          -8.387
REMARK INTER:                  -7.941
REMARK INTRA:                  -0.447
REMARK UNBOUND:                -0.718
REMARK  Name = /home/anacleto/Desktop/manuscript_Mpro/naturecomm/supplementary_file_S2/6-chemical-library/molecular_docking/3D_ligand_structure/411.pdb
REMARK  6 active torsions:
REMARK  status: ('A' for Active; 'I' for Inactive)
REMARK    1  A    between atoms: C3_5  and  C4_6
REMARK    2  A    between atoms: N2_8  and  C5_9
REMARK    3  A    between atoms: C5_9  and  C6_10
REMARK    4  A    between atoms: N3_12  and  C7_13
REMARK    5  A    between atoms: C7_13  and  S1_14
REMARK    6  A    between atoms: S1_14  and  C8_17
REMARK                            x       y       z     vdW  Elec       q    Type
REMARK                         _______ _______ _______ _____ _____    ______ ____
ROOT
ATOM      1  C6  UNL     1      12.789  16.382  -2.305  0.00  0.00    +0.000 C 
ATOM      2  O3  UNL     1      11.920  15.665  -1.814  0.00  0.00    +0.000 OA
ATOM      3  N3  UNL     1      13.819  15.883  -3.072  0.00  0.00    +0.000 N 
ATOM      4  H6  UNL     1      14.621  16.475  -3.255  0.00  0.00    +0.000 HD
ENDROOT
BRANCH   1   5
ATOM      5  C5  UNL     1      12.841  17.898  -2.090  0.00  0.00    +0.000 C 
BRANCH   5   8
ATOM      6  C4  UNL     1      12.375  19.807  -3.562  0.00  0.00    +0.000 C 
ATOM      7  O2  UNL     1      13.258  20.506  -3.076  0.00  0.00    +0.000 OA
ATOM      8  N2  UNL     1      12.019  18.573  -3.069  0.00  0.00    +0.000 N 
ATOM      9  H3  UNL     1      11.447  18.007  -3.694  0.00  0.00    +0.000 HD
BRANCH   6  14
ATOM     10  N1  UNL     1      10.957  19.299  -5.575  0.00  0.00    +0.000 NA
ATOM     11  C1  UNL     1      10.410  20.076  -6.482  0.00  0.00    +0.000 A 
ATOM     12  O1  UNL     1      10.636  21.410  -6.317  0.00  0.00    +0.000 OA
ATOM     13  C2  UNL     1      11.404  21.476  -5.194  0.00  0.00    +0.000 A 
ATOM     14  C3  UNL     1      11.605  20.194  -4.735  0.00  0.00    +0.000 A 
ENDBRANCH   6  14
ENDBRANCH   5   8
ENDBRANCH   1   5
BRANCH   3  15
ATOM     15  C7  UNL     1      14.032  14.438  -3.146  0.00  0.00    +0.000 C 
BRANCH  15  16
ATOM     16  S1  UNL     1      15.502  13.918  -4.060  0.00  0.00    +0.000 S 
ATOM     17  O4  UNL     1      16.382  13.163  -3.186  0.00  0.00    +0.000 OA
ATOM     18  O5  UNL     1      16.008  15.080  -4.772  0.00  0.00    +0.000 OA
BRANCH  16  19
ATOM     19  C8  UNL     1      14.843  12.788  -5.261  0.00  0.00    +0.000 A 
ATOM     20  C9  UNL     1      15.579  12.485  -6.410  0.00  0.00    +0.000 A 
ATOM     21  C10 UNL     1      15.049  11.594  -7.343  0.00  0.00    +0.000 A 
ATOM     22  C11 UNL     1      13.801  11.008  -7.122  0.00  0.00    +0.000 A 
ATOM     23  C12 UNL     1      13.079  11.303  -5.964  0.00  0.00    +0.000 A 
ATOM     24  C13 UNL     1      13.601  12.191  -5.024  0.00  0.00    +0.000 A 
ENDBRANCH  16  19
ENDBRANCH  15  16
ENDBRANCH   3  15
TORSDOF 6
ENDMDL
MODEL 2
REMARK VINA RESULT:    -5.639      2.485      3.548
REMARK INTER + INTRA:          -8.335
REMARK INTER:                  -7.807
REMARK INTRA:                  -0.528
REMARK UNBOUND:                -0.718
REMARK  Name = /home/anacleto/Desktop/manuscript_Mpro/naturecomm/supplementary_file_S2/6-chemical-library/molecular_docking/3D_ligand_structure/411.pdb
REMARK  6 active torsions:
REMARK  status: ('A' for Active; 'I' for Inactive)
REMARK    1  A    between atoms: C3_5  and  C4_6
REMARK    2  A    between atoms: N2_8  and  C5_9
REMARK    3  A    between atoms: C5_9  and  C6_10
REMARK    4  A    between atoms: N3_12  and  C7_13
REMARK    5  A    between atoms: C7_13  and  S1_14
REMARK    6  A    between atoms: S1_14  and  C8_17
REMARK                            x       y       z     vdW  Elec       q    Type
REMARK                         _______ _______ _______ _____ _____    ______ ____
ROOT
ATOM      1  C6  UNL     1      14.709  14.516  -3.033  0.00  0.00    +0.000 C 
ATOM      2  O3  UNL     1      15.782  14.051  -2.657  0.00  0.00    +0.000 OA
ATOM      3  N3  UNL     1      14.215  14.312  -4.304  0.00  0.00    +0.000 N 
ATOM      4  H6  UNL     1      13.455  14.898  -4.630  0.00  0.00    +0.000 HD
ENDROOT
BRANCH   1   5
ATOM      5  C5  UNL     1      13.823  15.398  -2.147  0.00  0.00    +0.000 C 
BRANCH   5   8
ATOM      6  C4  UNL     1      12.822  17.640  -2.176  0.00  0.00    +0.000 C 
ATOM      7  O2  UNL     1      12.051  17.400  -1.252  0.00  0.00    +0.000 OA
ATOM      8  N2  UNL     1      13.635  16.695  -2.758  0.00  0.00    +0.000 N 
ATOM      9  H3  UNL     1      14.381  17.068  -3.341  0.00  0.00    +0.000 HD
BRANCH   6  14
ATOM     10  N1  UNL     1      12.057  19.561  -3.604  0.00  0.00    +0.000 NA
ATOM     11  C1  UNL     1      12.607  20.721  -3.882  0.00  0.00    +0.000 A 
ATOM     12  O1  UNL     1      13.814  20.949  -3.293  0.00  0.00    +0.000 OA
ATOM     13  C2  UNL     1      14.046  19.816  -2.574  0.00  0.00    +0.000 A 
ATOM     14  C3  UNL     1      12.981  18.964  -2.758  0.00  0.00    +0.000 A 
ENDBRANCH   6  14
ENDBRANCH   5   8
ENDBRANCH   1   5
BRANCH   3  15
ATOM     15  C7  UNL     1      15.070  13.707  -5.323  0.00  0.00    +0.000 C 
BRANCH  15  16
ATOM     16  S1  UNL     1      14.763  11.956  -5.651  0.00  0.00    +0.000 S 
ATOM     17  O4  UNL     1      15.038  11.661  -7.045  0.00  0.00    +0.000 OA
ATOM     18  O5  UNL     1      13.468  11.625  -5.081  0.00  0.00    +0.000 OA
BRANCH  16  19
ATOM     19  C8  UNL     1      16.009  11.146  -4.678  0.00  0.00    +0.000 A 
ATOM     20  C9  UNL     1      17.252  10.851  -5.243  0.00  0.00    +0.000 A 
ATOM     21  C10 UNL     1      18.222  10.217  -4.466  0.00  0.00    +0.000 A 
ATOM     22  C11 UNL     1      17.950   9.892  -3.136  0.00  0.00    +0.000 A 
ATOM     23  C12 UNL     1      16.711  10.205  -2.573  0.00  0.00    +0.000 A 
ATOM     24  C13 UNL     1      15.736  10.840  -3.341  0.00  0.00    +0.000 A 
ENDBRANCH  16  19
ENDBRANCH  15  16
ENDBRANCH   3  15
TORSDOF 6
ENDMDL
MODEL 3
REMARK VINA RESULT:    -5.564      6.006      8.517
REMARK INTER + INTRA:          -8.233
REMARK INTER:                  -7.683
REMARK INTRA:                  -0.550
REMARK UNBOUND:                -0.718
REMARK  Name = /home/anacleto/Desktop/manuscript_Mpro/naturecomm/supplementary_file_S2/6-chemical-library/molecular_docking/3D_ligand_structure/411.pdb
REMARK  6 active torsions:
REMARK  status: ('A' for Active; 'I' for Inactive)
REMARK    1  A    between atoms: C3_5  and  C4_6
REMARK    2  A    between atoms: N2_8  and  C5_9
REMARK    3  A    between atoms: C5_9  and  C6_10
REMARK    4  A    between atoms: N3_12  and  C7_13
REMARK    5  A    between atoms: C7_13  and  S1_14
REMARK    6  A    between atoms: S1_14  and  C8_17
REMARK                            x       y       z     vdW  Elec       q    Type
REMARK                         _______ _______ _______ _____ _____    ______ ____
ROOT
ATOM      1  C6  UNL     1      17.854  11.115  -1.690  0.00  0.00    +0.000 C 
ATOM      2  O3  UNL     1      18.721  10.981  -0.830  0.00  0.00    +0.000 OA
ATOM      3  N3  UNL     1      16.966  12.169  -1.692  0.00  0.00    +0.000 N 
ATOM      4  H6  UNL     1      16.141  12.109  -2.278  0.00  0.00    +0.000 HD
ENDROOT
BRANCH   1   5
ATOM      5  C5  UNL     1      17.644  10.111  -2.828  0.00  0.00    +0.000 C 
BRANCH   5   8
ATOM      6  C4  UNL     1      16.330  11.177  -4.608  0.00  0.00    +0.000 C 
ATOM      7  O2  UNL     1      17.254  11.894  -4.977  0.00  0.00    +0.000 OA
ATOM      8  N2  UNL     1      16.388  10.367  -3.497  0.00  0.00    +0.000 N 
ATOM      9  H3  UNL     1      15.656   9.662  -3.439  0.00  0.00    +0.000 HD
BRANCH   6  14
ATOM     10  N1  UNL     1      14.904  11.324  -6.672  0.00  0.00    +0.000 NA
ATOM     11  C1  UNL     1      13.618  11.135  -6.865  0.00  0.00    +0.000 A 
ATOM     12  O1  UNL     1      12.907  10.791  -5.756  0.00  0.00    +0.000 OA
ATOM     13  C2  UNL     1      13.841  10.761  -4.765  0.00  0.00    +0.000 A 
ATOM     14  C3  UNL     1      15.060  11.085  -5.313  0.00  0.00    +0.000 A 
ENDBRANCH   6  14
ENDBRANCH   5   8
ENDBRANCH   1   5
BRANCH   3  15
ATOM     15  C7  UNL     1      16.892  13.055  -0.532  0.00  0.00    +0.000 C 
BRANCH  15  16
ATOM     16  S1  UNL     1      16.914  14.824  -0.905  0.00  0.00    +0.000 S 
ATOM     17  O4  UNL     1      15.935  15.511  -0.083  0.00  0.00    +0.000 OA
ATOM     18  O5  UNL     1      16.876  14.965  -2.351  0.00  0.00    +0.000 OA
BRANCH  16  19
ATOM     19  C8  UNL     1      18.525  15.326  -0.351  0.00  0.00    +0.000 A 
ATOM     20  C9  UNL     1      18.843  16.684  -0.273  0.00  0.00    +0.000 A 
ATOM     21  C10 UNL     1      20.111  17.063   0.166  0.00  0.00    +0.000 A 
ATOM     22  C11 UNL     1      21.046  16.092   0.531  0.00  0.00    +0.000 A 
ATOM     23  C12 UNL     1      20.715  14.737   0.465  0.00  0.00    +0.000 A 
ATOM     24  C13 UNL     1      19.449  14.348   0.029  0.00  0.00    +0.000 A 
ENDBRANCH  16  19
ENDBRANCH  15  16
ENDBRANCH   3  15
TORSDOF 6
ENDMDL
MODEL 4
REMARK VINA RESULT:    -5.507      6.153      9.097
REMARK INTER + INTRA:          -8.157
REMARK INTER:                  -7.406
REMARK INTRA:                  -0.751
REMARK UNBOUND:                -0.718
REMARK  Name = /home/anacleto/Desktop/manuscript_Mpro/naturecomm/supplementary_file_S2/6-chemical-library/molecular_docking/3D_ligand_structure/411.pdb
REMARK  6 active torsions:
REMARK  status: ('A' for Active; 'I' for Inactive)
REMARK    1  A    between atoms: C3_5  and  C4_6
REMARK    2  A    between atoms: N2_8  and  C5_9
REMARK    3  A    between atoms: C5_9  and  C6_10
REMARK    4  A    between atoms: N3_12  and  C7_13
REMARK    5  A    between atoms: C7_13  and  S1_14
REMARK    6  A    between atoms: S1_14  and  C8_17
REMARK                            x       y       z     vdW  Elec       q    Type
REMARK                         _______ _______ _______ _____ _____    ______ ____
ROOT
ATOM      1  C6  UNL     1      15.133  11.857  -2.897  0.00  0.00    +0.000 C 
ATOM      2  O3  UNL     1      14.868  13.043  -2.720  0.00  0.00    +0.000 OA
ATOM      3  N3  UNL     1      15.836  11.107  -1.978  0.00  0.00    +0.000 N 
ATOM      4  H6  UNL     1      16.221  10.217  -2.270  0.00  0.00    +0.000 HD
ENDROOT
BRANCH   1   5
ATOM      5  C5  UNL     1      14.745  11.094  -4.167  0.00  0.00    +0.000 C 
BRANCH   5   8
ATOM      6  C4  UNL     1      16.820  11.208  -5.473  0.00  0.00    +0.000 C 
ATOM      7  O2  UNL     1      16.621  12.359  -5.848  0.00  0.00    +0.000 OA
ATOM      8  N2  UNL     1      15.909  10.470  -4.754  0.00  0.00    +0.000 N 
ATOM      9  H3  UNL     1      16.284   9.633  -4.313  0.00  0.00    +0.000 HD
BRANCH   6  14
ATOM     10  N1  UNL     1      18.418   9.974  -6.971  0.00  0.00    +0.000 NA
ATOM     11  C1  UNL     1      19.584   9.414  -6.739  0.00  0.00    +0.000 A 
ATOM     12  O1  UNL     1      20.031   9.512  -5.456  0.00  0.00    +0.000 OA
ATOM     13  C2  UNL     1      19.045  10.202  -4.817  0.00  0.00    +0.000 A 
ATOM     14  C3  UNL     1      18.058  10.488  -5.732  0.00  0.00    +0.000 A 
ENDBRANCH   6  14
ENDBRANCH   5   8
ENDBRANCH   1   5
BRANCH   3  15
ATOM     15  C7  UNL     1      16.481  11.770  -0.846  0.00  0.00    +0.000 C 
BRANCH  15  16
ATOM     16  S1  UNL     1      18.179  12.320  -1.137  0.00  0.00    +0.000 S 
ATOM     17  O4  UNL     1      18.388  12.538  -2.556  0.00  0.00    +0.000 OA
ATOM     18  O5  UNL     1      19.059  11.428  -0.402  0.00  0.00    +0.000 OA
BRANCH  16  19
ATOM     19  C8  UNL     1      18.223  13.907  -0.340  0.00  0.00    +0.000 A 
ATOM     20  C9  UNL     1      17.039  14.626  -0.154  0.00  0.00    +0.000 A 
ATOM     21  C10 UNL     1      17.089  15.870   0.475  0.00  0.00    +0.000 A 
ATOM     22  C11 UNL     1      18.310  16.381   0.921  0.00  0.00    +0.000 A 
ATOM     23  C12 UNL     1      19.486  15.649   0.746  0.00  0.00    +0.000 A 
ATOM     24  C13 UNL     1      19.446  14.404   0.120  0.00  0.00    +0.000 A 
ENDBRANCH  16  19
ENDBRANCH  15  16
ENDBRANCH   3  15
TORSDOF 6
ENDMDL
MODEL 5
REMARK VINA RESULT:    -5.482      6.646     10.897
REMARK INTER + INTRA:          -8.122
REMARK INTER:                  -7.501
REMARK INTRA:                  -0.622
REMARK UNBOUND:                -0.718
REMARK  Name = /home/anacleto/Desktop/manuscript_Mpro/naturecomm/supplementary_file_S2/6-chemical-library/molecular_docking/3D_ligand_structure/411.pdb
REMARK  6 active torsions:
REMARK  status: ('A' for Active; 'I' for Inactive)
REMARK    1  A    between atoms: C3_5  and  C4_6
REMARK    2  A    between atoms: N2_8  and  C5_9
REMARK    3  A    between atoms: C5_9  and  C6_10
REMARK    4  A    between atoms: N3_12  and  C7_13
REMARK    5  A    between atoms: C7_13  and  S1_14
REMARK    6  A    between atoms: S1_14  and  C8_17
REMARK                            x       y       z     vdW  Elec       q    Type
REMARK                         _______ _______ _______ _____ _____    ______ ____
ROOT
ATOM      1  C6  UNL     1      18.805  10.373  -4.852  0.00  0.00    +0.000 C 
ATOM      2  O3  UNL     1      19.365  11.370  -4.403  0.00  0.00    +0.000 OA
ATOM      3  N3  UNL     1      17.626   9.885  -4.332  0.00  0.00    +0.000 N 
ATOM      4  H6  UNL     1      17.335   8.947  -4.583  0.00  0.00    +0.000 HD
ENDROOT
BRANCH   1   5
ATOM      5  C5  UNL     1      19.371   9.547  -6.012  0.00  0.00    +0.000 C 
BRANCH   5   8
ATOM      6  C4  UNL     1      21.761   9.114  -5.654  0.00  0.00    +0.000 C 
ATOM      7  O2  UNL     1      22.123  10.082  -6.316  0.00  0.00    +0.000 OA
ATOM      8  N2  UNL     1      20.452   8.706  -5.549  0.00  0.00    +0.000 N 
ATOM      9  H3  UNL     1      20.264   8.048  -4.796  0.00  0.00    +0.000 HD
BRANCH   6  14
ATOM     10  N1  UNL     1      22.291   7.196  -4.119  0.00  0.00    +0.000 NA
ATOM     11  C1  UNL     1      23.424   6.770  -3.606  0.00  0.00    +0.000 A 
ATOM     12  O1  UNL     1      24.529   7.481  -3.963  0.00  0.00    +0.000 OA
ATOM     13  C2  UNL     1      24.041   8.454  -4.782  0.00  0.00    +0.000 A 
ATOM     14  C3  UNL     1      22.679   8.289  -4.882  0.00  0.00    +0.000 A 
ENDBRANCH   6  14
ENDBRANCH   5   8
ENDBRANCH   1   5
BRANCH   3  15
ATOM     15  C7  UNL     1      17.113  10.422  -3.073  0.00  0.00    +0.000 C 
BRANCH  15  16
ATOM     16  S1  UNL     1      16.032  11.863  -3.230  0.00  0.00    +0.000 S 
ATOM     17  O4  UNL     1      16.832  13.058  -3.429  0.00  0.00    +0.000 OA
ATOM     18  O5  UNL     1      15.070  11.807  -2.142  0.00  0.00    +0.000 OA
BRANCH  16  19
ATOM     19  C8  UNL     1      15.161  11.542  -4.744  0.00  0.00    +0.000 A 
ATOM     20  C9  UNL     1      14.033  10.718  -4.738  0.00  0.00    +0.000 A 
ATOM     21  C10 UNL     1      13.358  10.477  -5.934  0.00  0.00    +0.000 A 
ATOM     22  C11 UNL     1      13.805  11.063  -7.120  0.00  0.00    +0.000 A 
ATOM     23  C12 UNL     1      14.923  11.899  -7.116  0.00  0.00    +0.000 A 
ATOM     24  C13 UNL     1      15.603  12.147  -5.924  0.00  0.00    +0.000 A 
ENDBRANCH  16  19
ENDBRANCH  15  16
ENDBRANCH   3  15
TORSDOF 6
ENDMDL
MODEL 6
REMARK VINA RESULT:    -5.481      4.662      7.457
REMARK INTER + INTRA:          -8.120
REMARK INTER:                  -7.358
REMARK INTRA:                  -0.763
REMARK UNBOUND:                -0.718
REMARK  Name = /home/anacleto/Desktop/manuscript_Mpro/naturecomm/supplementary_file_S2/6-chemical-library/molecular_docking/3D_ligand_structure/411.pdb
REMARK  6 active torsions:
REMARK  status: ('A' for Active; 'I' for Inactive)
REMARK    1  A    between atoms: C3_5  and  C4_6
REMARK    2  A    between atoms: N2_8  and  C5_9
REMARK    3  A    between atoms: C5_9  and  C6_10
REMARK    4  A    between atoms: N3_12  and  C7_13
REMARK    5  A    between atoms: C7_13  and  S1_14
REMARK    6  A    between atoms: S1_14  and  C8_17
REMARK                            x       y       z     vdW  Elec       q    Type
REMARK                         _______ _______ _______ _____ _____    ______ ____
ROOT
ATOM      1  C6  UNL     1      15.318  15.600  -2.275  0.00  0.00    +0.000 C 
ATOM      2  O3  UNL     1      15.943  16.506  -2.821  0.00  0.00    +0.000 OA
ATOM      3  N3  UNL     1      15.817  14.897  -1.200  0.00  0.00    +0.000 N 
ATOM      4  H6  UNL     1      15.371  14.024  -0.940  0.00  0.00    +0.000 HD
ENDROOT
BRANCH   1   5
ATOM      5  C5  UNL     1      13.938  15.133  -2.747  0.00  0.00    +0.000 C 
BRANCH   5   8
ATOM      6  C4  UNL     1      14.453  13.050  -3.939  0.00  0.00    +0.000 C 
ATOM      7  O2  UNL     1      14.927  12.501  -2.950  0.00  0.00    +0.000 OA
ATOM      8  N2  UNL     1      14.057  14.367  -3.967  0.00  0.00    +0.000 N 
ATOM      9  H3  UNL     1      13.475  14.626  -4.761  0.00  0.00    +0.000 HD
BRANCH   6  14
ATOM     10  N1  UNL     1      13.292  11.362  -5.396  0.00  0.00    +0.000 NA
ATOM     11  C1  UNL     1      13.451  11.037  -6.660  0.00  0.00    +0.000 A 
ATOM     12  O1  UNL     1      14.414  11.735  -7.324  0.00  0.00    +0.000 OA
ATOM     13  C2  UNL     1      14.912  12.583  -6.381  0.00  0.00    +0.000 A 
ATOM     14  C3  UNL     1      14.235  12.363  -5.204  0.00  0.00    +0.000 A 
ENDBRANCH   6  14
ENDBRANCH   5   8
ENDBRANCH   1   5
BRANCH   3  15
ATOM     15  C7  UNL     1      17.216  15.067  -0.810  0.00  0.00    +0.000 C 
BRANCH  15  16
ATOM     16  S1  UNL     1      18.343  13.777  -1.388  0.00  0.00    +0.000 S 
ATOM     17  O4  UNL     1      18.294  13.694  -2.836  0.00  0.00    +0.000 OA
ATOM     18  O5  UNL     1      18.098  12.591  -0.584  0.00  0.00    +0.000 OA
BRANCH  16  19
ATOM     19  C8  UNL     1      19.939  14.416  -0.942  0.00  0.00    +0.000 A 
ATOM     20  C9  UNL     1      20.889  14.671  -1.935  0.00  0.00    +0.000 A 
ATOM     21  C10 UNL     1      22.137  15.176  -1.570  0.00  0.00    +0.000 A 
ATOM     22  C11 UNL     1      22.425  15.429  -0.228  0.00  0.00    +0.000 A 
ATOM     23  C12 UNL     1      21.465  15.186   0.757  0.00  0.00    +0.000 A 
ATOM     24  C13 UNL     1      20.214  14.684   0.402  0.00  0.00    +0.000 A 
ENDBRANCH  16  19
ENDBRANCH  15  16
ENDBRANCH   3  15
TORSDOF 6
ENDMDL
MODEL 7
REMARK VINA RESULT:    -5.464      4.189      7.634
REMARK INTER + INTRA:          -8.099
REMARK INTER:                  -7.586
REMARK INTRA:                  -0.512
REMARK UNBOUND:                -0.718
REMARK  Name = /home/anacleto/Desktop/manuscript_Mpro/naturecomm/supplementary_file_S2/6-chemical-library/molecular_docking/3D_ligand_structure/411.pdb
REMARK  6 active torsions:
REMARK  status: ('A' for Active; 'I' for Inactive)
REMARK    1  A    between atoms: C3_5  and  C4_6
REMARK    2  A    between atoms: N2_8  and  C5_9
REMARK    3  A    between atoms: C5_9  and  C6_10
REMARK    4  A    between atoms: N3_12  and  C7_13
REMARK    5  A    between atoms: C7_13  and  S1_14
REMARK    6  A    between atoms: S1_14  and  C8_17
REMARK                            x       y       z     vdW  Elec       q    Type
REMARK                         _______ _______ _______ _____ _____    ______ ____
ROOT
ATOM      1  C6  UNL     1      16.798  12.160  -1.269  0.00  0.00    +0.000 C 
ATOM      2  O3  UNL     1      17.916  12.131  -0.761  0.00  0.00    +0.000 OA
ATOM      3  N3  UNL     1      16.092  13.331  -1.444  0.00  0.00    +0.000 N 
ATOM      4  H6  UNL     1      15.101  13.275  -1.650  0.00  0.00    +0.000 HD
ENDROOT
BRANCH   1   5
ATOM      5  C5  UNL     1      16.055  10.902  -1.730  0.00  0.00    +0.000 C 
BRANCH   5   8
ATOM      6  C4  UNL     1      15.863  10.969  -4.177  0.00  0.00    +0.000 C 
ATOM      7  O2  UNL     1      17.057  10.759  -4.361  0.00  0.00    +0.000 OA
ATOM      8  N2  UNL     1      15.306  11.174  -2.935  0.00  0.00    +0.000 N 
ATOM      9  H3  UNL     1      14.291  11.104  -2.901  0.00  0.00    +0.000 HD
BRANCH   6  14
ATOM     10  N1  UNL     1      15.185  11.342  -6.568  0.00  0.00    +0.000 NA
ATOM     11  C1  UNL     1      14.021  11.257  -7.174  0.00  0.00    +0.000 A 
ATOM     12  O1  UNL     1      12.977  10.896  -6.378  0.00  0.00    +0.000 OA
ATOM     13  C2  UNL     1      13.540  10.740  -5.148  0.00  0.00    +0.000 A 
ATOM     14  C3  UNL     1      14.885  11.010  -5.253  0.00  0.00    +0.000 A 
ENDBRANCH   6  14
ENDBRANCH   5   8
ENDBRANCH   1   5
BRANCH   3  15
ATOM     15  C7  UNL     1      16.571  14.565  -0.824  0.00  0.00    +0.000 C 
BRANCH  15  16
ATOM     16  S1  UNL     1      16.540  16.028  -1.885  0.00  0.00    +0.000 S 
ATOM     17  O4  UNL     1      16.815  15.645  -3.258  0.00  0.00    +0.000 OA
ATOM     18  O5  UNL     1      17.348  17.051  -1.242  0.00  0.00    +0.000 OA
BRANCH  16  19
ATOM     19  C8  UNL     1      14.843  16.542  -1.802  0.00  0.00    +0.000 A 
ATOM     20  C9  UNL     1      13.901  15.736  -1.158  0.00  0.00    +0.000 A 
ATOM     21  C10 UNL     1      12.572  16.153  -1.099  0.00  0.00    +0.000 A 
ATOM     22  C11 UNL     1      12.194  17.370  -1.671  0.00  0.00    +0.000 A 
ATOM     23  C12 UNL     1      13.144  18.178  -2.299  0.00  0.00    +0.000 A 
ATOM     24  C13 UNL     1      14.475  17.770  -2.362  0.00  0.00    +0.000 A 
ENDBRANCH  16  19
ENDBRANCH  15  16
ENDBRANCH   3  15
TORSDOF 6
ENDMDL
MODEL 8
REMARK VINA RESULT:    -5.432      5.081      6.845
REMARK INTER + INTRA:          -8.055
REMARK INTER:                  -7.445
REMARK INTRA:                  -0.610
REMARK UNBOUND:                -0.718
REMARK  Name = /home/anacleto/Desktop/manuscript_Mpro/naturecomm/supplementary_file_S2/6-chemical-library/molecular_docking/3D_ligand_structure/411.pdb
REMARK  6 active torsions:
REMARK  status: ('A' for Active; 'I' for Inactive)
REMARK    1  A    between atoms: C3_5  and  C4_6
REMARK    2  A    between atoms: N2_8  and  C5_9
REMARK    3  A    between atoms: C5_9  and  C6_10
REMARK    4  A    between atoms: N3_12  and  C7_13
REMARK    5  A    between atoms: C7_13  and  S1_14
REMARK    6  A    between atoms: S1_14  and  C8_17
REMARK                            x       y       z     vdW  Elec       q    Type
REMARK                         _______ _______ _______ _____ _____    ______ ____
ROOT
ATOM      1  C6  UNL     1      15.585  14.441  -1.700  0.00  0.00    +0.000 C 
ATOM      2  O3  UNL     1      14.492  14.332  -2.251  0.00  0.00    +0.000 OA
ATOM      3  N3  UNL     1      16.575  13.489  -1.819  0.00  0.00    +0.000 N 
ATOM      4  H6  UNL     1      17.354  13.515  -1.171  0.00  0.00    +0.000 HD
ENDROOT
BRANCH   1   5
ATOM      5  C5  UNL     1      15.952  15.624  -0.799  0.00  0.00    +0.000 C 
BRANCH   5   8
ATOM      6  C4  UNL     1      18.003  16.128   0.453  0.00  0.00    +0.000 C 
ATOM      7  O2  UNL     1      17.401  16.547   1.437  0.00  0.00    +0.000 OA
ATOM      8  N2  UNL     1      17.388  15.771  -0.725  0.00  0.00    +0.000 N 
ATOM      9  H3  UNL     1      17.965  15.229  -1.365  0.00  0.00    +0.000 HD
BRANCH   6  14
ATOM     10  N1  UNL     1      20.083  14.732   0.653  0.00  0.00    +0.000 NA
ATOM     11  C1  UNL     1      21.357  15.031   0.530  0.00  0.00    +0.000 A 
ATOM     12  O1  UNL     1      21.622  16.335   0.236  0.00  0.00    +0.000 OA
ATOM     13  C2  UNL     1      20.390  16.912   0.168  0.00  0.00    +0.000 A 
ATOM     14  C3  UNL     1      19.447  15.943   0.421  0.00  0.00    +0.000 A 
ENDBRANCH   6  14
ENDBRANCH   5   8
ENDBRANCH   1   5
BRANCH   3  15
ATOM     15  C7  UNL     1      16.270  12.201  -2.437  0.00  0.00    +0.000 C 
BRANCH  15  16
ATOM     16  S1  UNL     1      16.964  11.950  -4.088  0.00  0.00    +0.000 S 
ATOM     17  O4  UNL     1      17.852  10.802  -4.078  0.00  0.00    +0.000 OA
ATOM     18  O5  UNL     1      17.448  13.237  -4.558  0.00  0.00    +0.000 OA
BRANCH  16  19
ATOM     19  C8  UNL     1      15.539  11.517  -5.056  0.00  0.00    +0.000 A 
ATOM     20  C9  UNL     1      14.402  11.002  -4.429  0.00  0.00    +0.000 A 
ATOM     21  C10 UNL     1      13.289  10.669  -5.202  0.00  0.00    +0.000 A 
ATOM     22  C11 UNL     1      13.316  10.859  -6.585  0.00  0.00    +0.000 A 
ATOM     23  C12 UNL     1      14.450  11.390  -7.202  0.00  0.00    +0.000 A 
ATOM     24  C13 UNL     1      15.566  11.728  -6.437  0.00  0.00    +0.000 A 
ENDBRANCH  16  19
ENDBRANCH  15  16
ENDBRANCH   3  15
TORSDOF 6
ENDMDL
MODEL 9
REMARK VINA RESULT:    -5.353      3.370      4.579
REMARK INTER + INTRA:          -7.948
REMARK INTER:                  -7.230
REMARK INTRA:                  -0.718
REMARK UNBOUND:                -0.718
REMARK  Name = /home/anacleto/Desktop/manuscript_Mpro/naturecomm/supplementary_file_S2/6-chemical-library/molecular_docking/3D_ligand_structure/411.pdb
REMARK  6 active torsions:
REMARK  status: ('A' for Active; 'I' for Inactive)
REMARK    1  A    between atoms: C3_5  and  C4_6
REMARK    2  A    between atoms: N2_8  and  C5_9
REMARK    3  A    between atoms: C5_9  and  C6_10
REMARK    4  A    between atoms: N3_12  and  C7_13
REMARK    5  A    between atoms: C7_13  and  S1_14
REMARK    6  A    between atoms: S1_14  and  C8_17
REMARK                            x       y       z     vdW  Elec       q    Type
REMARK                         _______ _______ _______ _____ _____    ______ ____
ROOT
ATOM      1  C6  UNL     1      18.042  14.430  -2.012  0.00  0.00    +0.000 C 
ATOM      2  O3  UNL     1      19.039  13.881  -1.550  0.00  0.00    +0.000 OA
ATOM      3  N3  UNL     1      17.204  13.810  -2.915  0.00  0.00    +0.000 N 
ATOM      4  H6  UNL     1      16.540  14.377  -3.431  0.00  0.00    +0.000 HD
ENDROOT
BRANCH   1   5
ATOM      5  C5  UNL     1      17.641  15.867  -1.664  0.00  0.00    +0.000 C 
BRANCH   5   8
ATOM      6  C4  UNL     1      15.401  16.786  -2.073  0.00  0.00    +0.000 C 
ATOM      7  O2  UNL     1      15.808  17.673  -2.816  0.00  0.00    +0.000 OA
ATOM      8  N2  UNL     1      16.227  15.937  -1.373  0.00  0.00    +0.000 N 
ATOM      9  H3  UNL     1      15.771  15.113  -0.986  0.00  0.00    +0.000 HD
BRANCH   6  14
ATOM     10  N1  UNL     1      13.038  17.490  -1.588  0.00  0.00    +0.000 NA
ATOM     11  C1  UNL     1      11.926  16.802  -1.458  0.00  0.00    +0.000 A 
ATOM     12  O1  UNL     1      12.053  15.455  -1.617  0.00  0.00    +0.000 OA
ATOM     13  C2  UNL     1      13.380  15.280  -1.871  0.00  0.00    +0.000 A 
ATOM     14  C3  UNL     1      13.988  16.514  -1.854  0.00  0.00    +0.000 A 
ENDBRANCH   6  14
ENDBRANCH   5   8
ENDBRANCH   1   5
BRANCH   3  15
ATOM     15  C7  UNL     1      17.605  12.542  -3.521  0.00  0.00    +0.000 C 
BRANCH  15  16
ATOM     16  S1  UNL     1      16.467  11.162  -3.254  0.00  0.00    +0.000 S 
ATOM     17  O4  UNL     1      15.594  11.456  -2.133  0.00  0.00    +0.000 OA
ATOM     18  O5  UNL     1      17.254   9.940  -3.260  0.00  0.00    +0.000 OA
BRANCH  16  19
ATOM     19  C8  UNL     1      15.473  11.178  -4.725  0.00  0.00    +0.000 A 
ATOM     20  C9  UNL     1      16.066  11.433  -5.964  0.00  0.00    +0.000 A 
ATOM     21  C10 UNL     1      15.272  11.440  -7.112  0.00  0.00    +0.000 A 
ATOM     22  C11 UNL     1      13.903  11.184  -7.017  0.00  0.00    +0.000 A 
ATOM     23  C12 UNL     1      13.320  10.913  -5.777  0.00  0.00    +0.000 A 
ATOM     24  C13 UNL     1      14.106  10.903  -4.625  0.00  0.00    +0.000 A 
ENDBRANCH  16  19
ENDBRANCH  15  16
ENDBRANCH   3  15
TORSDOF 6
ENDMDL
