MODEL 1
REMARK VINA RESULT:    -5.462      0.000      0.000
REMARK INTER + INTRA:          -6.375
REMARK INTER:                  -6.109
REMARK INTRA:                  -0.265
REMARK UNBOUND:                -0.274
REMARK  Name = /home/anacleto/Desktop/manuscript_Mpro/naturecomm/supplementary_file_S2/6-chemical-library/molecular_docking/3D_ligand_structure/712.pdb
REMARK  2 active torsions:
REMARK  status: ('A' for Active; 'I' for Inactive)
REMARK    1  A    between atoms: C4_7  and  C5_8
REMARK    2  A    between atoms: N3_10  and  C6_11
REMARK                            x       y       z     vdW  Elec       q    Type
REMARK                         _______ _______ _______ _____ _____    ______ ____
ROOT
ATOM      1  C5  UNL     1      17.476   3.823   9.769  0.00  0.00    +0.000 C 
ATOM      2  O2  UNL     1      17.722   3.880  10.969  0.00  0.00    +0.000 OA
ATOM      3  N3  UNL     1      18.069   4.549   8.756  0.00  0.00    +0.000 N 
ATOM      4  H4  UNL     1      17.707   4.338   7.830  0.00  0.00    +0.000 HD
ENDROOT
BRANCH   1  11
ATOM      5  N1  UNL     1      16.669   2.245   8.014  0.00  0.00    +0.000 NA
ATOM      6  C1  UNL     1      15.738   1.460   7.590  0.00  0.00    +0.000 A 
ATOM      7  N2  UNL     1      14.564   1.239   8.244  0.00  0.00    +0.000 N 
ATOM      8  C2  UNL     1      14.272   1.844   9.430  0.00  0.00    +0.000 A 
ATOM      9  O1  UNL     1      13.221   1.653  10.028  0.00  0.00    +0.000 OA
ATOM     10  C3  UNL     1      15.306   2.745   9.945  0.00  0.00    +0.000 A 
ATOM     11  C4  UNL     1      16.421   2.887   9.217  0.00  0.00    +0.000 A 
ATOM     12  H2  UNL     1      13.864   0.614   7.873  0.00  0.00    +0.000 HD
ENDBRANCH   1  11
BRANCH   3  13
ATOM     13  C6  UNL     1      19.085   5.516   8.853  0.00  0.00    +0.000 A 
ATOM     14  C7  UNL     1      20.397   5.051   9.015  0.00  0.00    +0.000 A 
ATOM     15  C8  UNL     1      21.462   5.949   9.119  0.00  0.00    +0.000 A 
ATOM     16  C9  UNL     1      21.225   7.320   9.063  0.00  0.00    +0.000 A 
ATOM     17  C10 UNL     1      19.923   7.789   8.902  0.00  0.00    +0.000 A 
ATOM     18  C11 UNL     1      18.857   6.891   8.797  0.00  0.00    +0.000 A 
ENDBRANCH   3  13
TORSDOF 2
ENDMDL
MODEL 2
REMARK VINA RESULT:    -5.349      2.220      6.469
REMARK INTER + INTRA:          -6.248
REMARK INTER:                  -5.976
REMARK INTRA:                  -0.272
REMARK UNBOUND:                -0.274
REMARK  Name = /home/anacleto/Desktop/manuscript_Mpro/naturecomm/supplementary_file_S2/6-chemical-library/molecular_docking/3D_ligand_structure/712.pdb
REMARK  2 active torsions:
REMARK  status: ('A' for Active; 'I' for Inactive)
REMARK    1  A    between atoms: C4_7  and  C5_8
REMARK    2  A    between atoms: N3_10  and  C6_11
REMARK                            x       y       z     vdW  Elec       q    Type
REMARK                         _______ _______ _______ _____ _____    ______ ____
ROOT
ATOM      1  C5  UNL     1      18.718   4.061   9.295  0.00  0.00    +0.000 C 
ATOM      2  O2  UNL     1      19.348   3.030   9.503  0.00  0.00    +0.000 OA
ATOM      3  N3  UNL     1      17.383   4.177   8.966  0.00  0.00    +0.000 N 
ATOM      4  H4  UNL     1      17.071   5.136   8.839  0.00  0.00    +0.000 HD
ENDROOT
BRANCH   1  11
ATOM      5  N1  UNL     1      19.020   6.389   8.451  0.00  0.00    +0.000 NA
ATOM      6  C1  UNL     1      19.608   7.531   8.569  0.00  0.00    +0.000 A 
ATOM      7  N2  UNL     1      20.528   7.824   9.529  0.00  0.00    +0.000 N 
ATOM      8  C2  UNL     1      20.911   6.912  10.466  0.00  0.00    +0.000 A 
ATOM      9  O1  UNL     1      21.737   7.162  11.334  0.00  0.00    +0.000 OA
ATOM     10  C3  UNL     1      20.265   5.600  10.365  0.00  0.00    +0.000 A 
ATOM     11  C4  UNL     1      19.374   5.425   9.380  0.00  0.00    +0.000 A 
ATOM     12  H2  UNL     1      20.962   8.734   9.582  0.00  0.00    +0.000 HD
ENDBRANCH   1  11
BRANCH   3  13
ATOM     13  C6  UNL     1      16.434   3.155   8.792  0.00  0.00    +0.000 A 
ATOM     14  C7  UNL     1      15.501   2.966   9.820  0.00  0.00    +0.000 A 
ATOM     15  C8  UNL     1      14.525   1.971   9.722  0.00  0.00    +0.000 A 
ATOM     16  C9  UNL     1      14.475   1.154   8.596  0.00  0.00    +0.000 A 
ATOM     17  C10 UNL     1      15.400   1.335   7.570  0.00  0.00    +0.000 A 
ATOM     18  C11 UNL     1      16.376   2.332   7.667  0.00  0.00    +0.000 A 
ENDBRANCH   3  13
TORSDOF 2
ENDMDL
MODEL 3
REMARK VINA RESULT:    -5.337     16.548     17.855
REMARK INTER + INTRA:          -6.235
REMARK INTER:                  -5.985
REMARK INTRA:                  -0.249
REMARK UNBOUND:                -0.274
REMARK  Name = /home/anacleto/Desktop/manuscript_Mpro/naturecomm/supplementary_file_S2/6-chemical-library/molecular_docking/3D_ligand_structure/712.pdb
REMARK  2 active torsions:
REMARK  status: ('A' for Active; 'I' for Inactive)
REMARK    1  A    between atoms: C4_7  and  C5_8
REMARK    2  A    between atoms: N3_10  and  C6_11
REMARK                            x       y       z     vdW  Elec       q    Type
REMARK                         _______ _______ _______ _____ _____    ______ ____
ROOT
ATOM      1  C5  UNL     1      14.375  14.560  -2.928  0.00  0.00    +0.000 C 
ATOM      2  O2  UNL     1      15.059  13.879  -2.173  0.00  0.00    +0.000 OA
ATOM      3  N3  UNL     1      14.206  14.393  -4.288  0.00  0.00    +0.000 N 
ATOM      4  H4  UNL     1      13.590  15.079  -4.715  0.00  0.00    +0.000 HD
ENDROOT
BRANCH   1  11
ATOM      5  N1  UNL     1      12.373  15.514  -1.785  0.00  0.00    +0.000 NA
ATOM      6  C1  UNL     1      11.737  16.560  -1.379  0.00  0.00    +0.000 A 
ATOM      7  N2  UNL     1      12.177  17.837  -1.545  0.00  0.00    +0.000 N 
ATOM      8  C2  UNL     1      13.354  18.121  -2.169  0.00  0.00    +0.000 A 
ATOM      9  O1  UNL     1      13.761  19.265  -2.325  0.00  0.00    +0.000 OA
ATOM     10  C3  UNL     1      14.108  16.958  -2.646  0.00  0.00    +0.000 A 
ATOM     11  C4  UNL     1      13.579  15.748  -2.427  0.00  0.00    +0.000 A 
ATOM     12  H2  UNL     1      11.644  18.626  -1.210  0.00  0.00    +0.000 HD
ENDBRANCH   1  11
BRANCH   3  13
ATOM     13  C6  UNL     1      14.770  13.414  -5.124  0.00  0.00    +0.000 A 
ATOM     14  C7  UNL     1      13.900  12.464  -5.674  0.00  0.00    +0.000 A 
ATOM     15  C8  UNL     1      14.383  11.459  -6.516  0.00  0.00    +0.000 A 
ATOM     16  C9  UNL     1      15.741  11.394  -6.815  0.00  0.00    +0.000 A 
ATOM     17  C10 UNL     1      16.613  12.335  -6.271  0.00  0.00    +0.000 A 
ATOM     18  C11 UNL     1      16.130  13.342  -5.429  0.00  0.00    +0.000 A 
ENDBRANCH   3  13
TORSDOF 2
ENDMDL
MODEL 4
REMARK VINA RESULT:    -5.263     16.430     17.680
REMARK INTER + INTRA:          -6.152
REMARK INTER:                  -5.878
REMARK INTRA:                  -0.273
REMARK UNBOUND:                -0.274
REMARK  Name = /home/anacleto/Desktop/manuscript_Mpro/naturecomm/supplementary_file_S2/6-chemical-library/molecular_docking/3D_ligand_structure/712.pdb
REMARK  2 active torsions:
REMARK  status: ('A' for Active; 'I' for Inactive)
REMARK    1  A    between atoms: C4_7  and  C5_8
REMARK    2  A    between atoms: N3_10  and  C6_11
REMARK                            x       y       z     vdW  Elec       q    Type
REMARK                         _______ _______ _______ _____ _____    ______ ____
ROOT
ATOM      1  C5  UNL     1      14.450  13.700  -3.354  0.00  0.00    +0.000 C 
ATOM      2  O2  UNL     1      14.968  12.764  -2.755  0.00  0.00    +0.000 OA
ATOM      3  N3  UNL     1      13.932  13.693  -4.633  0.00  0.00    +0.000 N 
ATOM      4  H4  UNL     1      13.550  14.587  -4.928  0.00  0.00    +0.000 HD
ENDROOT
BRANCH   1  11
ATOM      5  N1  UNL     1      15.390  15.933  -2.758  0.00  0.00    +0.000 NA
ATOM      6  C1  UNL     1      15.214  17.084  -2.204  0.00  0.00    +0.000 A 
ATOM      7  N2  UNL     1      14.056  17.478  -1.605  0.00  0.00    +0.000 N 
ATOM      8  C2  UNL     1      12.963  16.667  -1.541  0.00  0.00    +0.000 A 
ATOM      9  O1  UNL     1      11.917  17.009  -1.006  0.00  0.00    +0.000 OA
ATOM     10  C3  UNL     1      13.124  15.348  -2.160  0.00  0.00    +0.000 A 
ATOM     11  C4  UNL     1      14.307  15.069  -2.720  0.00  0.00    +0.000 A 
ATOM     12  H2  UNL     1      13.965  18.391  -1.184  0.00  0.00    +0.000 HD
ENDBRANCH   1  11
BRANCH   3  13
ATOM     13  C6  UNL     1      13.873  12.626  -5.546  0.00  0.00    +0.000 A 
ATOM     14  C7  UNL     1      14.932  12.504  -6.456  0.00  0.00    +0.000 A 
ATOM     15  C8  UNL     1      14.947  11.470  -7.396  0.00  0.00    +0.000 A 
ATOM     16  C9  UNL     1      13.903  10.550  -7.435  0.00  0.00    +0.000 A 
ATOM     17  C10 UNL     1      12.847  10.665  -6.534  0.00  0.00    +0.000 A 
ATOM     18  C11 UNL     1      12.832  11.699  -5.593  0.00  0.00    +0.000 A 
ENDBRANCH   3  13
TORSDOF 2
ENDMDL
MODEL 5
REMARK VINA RESULT:    -5.127     15.152     16.351
REMARK INTER + INTRA:          -6.001
REMARK INTER:                  -5.719
REMARK INTRA:                  -0.282
REMARK UNBOUND:                -0.274
REMARK  Name = /home/anacleto/Desktop/manuscript_Mpro/naturecomm/supplementary_file_S2/6-chemical-library/molecular_docking/3D_ligand_structure/712.pdb
REMARK  2 active torsions:
REMARK  status: ('A' for Active; 'I' for Inactive)
REMARK    1  A    between atoms: C4_7  and  C5_8
REMARK    2  A    between atoms: N3_10  and  C6_11
REMARK                            x       y       z     vdW  Elec       q    Type
REMARK                         _______ _______ _______ _____ _____    ______ ____
ROOT
ATOM      1  C5  UNL     1      14.933  13.440  -3.875  0.00  0.00    +0.000 C 
ATOM      2  O2  UNL     1      14.610  13.873  -4.975  0.00  0.00    +0.000 OA
ATOM      3  N3  UNL     1      14.663  13.996  -2.642  0.00  0.00    +0.000 N 
ATOM      4  H4  UNL     1      15.030  13.463  -1.858  0.00  0.00    +0.000 HD
ENDROOT
BRANCH   1  11
ATOM      5  N1  UNL     1      15.628  11.452  -2.537  0.00  0.00    +0.000 NA
ATOM      6  C1  UNL     1      16.320  10.367  -2.464  0.00  0.00    +0.000 A 
ATOM      7  N2  UNL     1      17.112   9.894  -3.466  0.00  0.00    +0.000 N 
ATOM      8  C2  UNL     1      17.240  10.546  -4.655  0.00  0.00    +0.000 A 
ATOM      9  O1  UNL     1      17.949  10.133  -5.563  0.00  0.00    +0.000 OA
ATOM     10  C3  UNL     1      16.468  11.786  -4.777  0.00  0.00    +0.000 A 
ATOM     11  C4  UNL     1      15.723  12.155  -3.727  0.00  0.00    +0.000 A 
ATOM     12  H2  UNL     1      17.636   9.038  -3.363  0.00  0.00    +0.000 HD
ENDBRANCH   1  11
BRANCH   3  13
ATOM     13  C6  UNL     1      13.960  15.178  -2.351  0.00  0.00    +0.000 A 
ATOM     14  C7  UNL     1      14.673  16.382  -2.431  0.00  0.00    +0.000 A 
ATOM     15  C8  UNL     1      14.046  17.601  -2.157  0.00  0.00    +0.000 A 
ATOM     16  C9  UNL     1      12.701  17.626  -1.800  0.00  0.00    +0.000 A 
ATOM     17  C10 UNL     1      11.985  16.433  -1.719  0.00  0.00    +0.000 A 
ATOM     18  C11 UNL     1      12.612  15.214  -1.994  0.00  0.00    +0.000 A 
ENDBRANCH   3  13
TORSDOF 2
ENDMDL
MODEL 6
REMARK VINA RESULT:    -5.034     15.276     16.823
REMARK INTER + INTRA:          -5.897
REMARK INTER:                  -5.575
REMARK INTRA:                  -0.321
REMARK UNBOUND:                -0.274
REMARK  Name = /home/anacleto/Desktop/manuscript_Mpro/naturecomm/supplementary_file_S2/6-chemical-library/molecular_docking/3D_ligand_structure/712.pdb
REMARK  2 active torsions:
REMARK  status: ('A' for Active; 'I' for Inactive)
REMARK    1  A    between atoms: C4_7  and  C5_8
REMARK    2  A    between atoms: N3_10  and  C6_11
REMARK                            x       y       z     vdW  Elec       q    Type
REMARK                         _______ _______ _______ _____ _____    ______ ____
ROOT
ATOM      1  C5  UNL     1      16.280  17.029  -2.100  0.00  0.00    +0.000 C 
ATOM      2  O2  UNL     1      17.153  17.383  -2.884  0.00  0.00    +0.000 OA
ATOM      3  N3  UNL     1      16.409  16.153  -1.041  0.00  0.00    +0.000 N 
ATOM      4  H4  UNL     1      15.547  16.004  -0.521  0.00  0.00    +0.000 HD
ENDROOT
BRANCH   1  11
ATOM      5  N1  UNL     1      14.656  18.844  -2.640  0.00  0.00    +0.000 NA
ATOM      6  C1  UNL     1      13.428  19.230  -2.712  0.00  0.00    +0.000 A 
ATOM      7  N2  UNL     1      12.358  18.450  -2.394  0.00  0.00    +0.000 N 
ATOM      8  C2  UNL     1      12.503  17.165  -1.963  0.00  0.00    +0.000 A 
ATOM      9  O1  UNL     1      11.551  16.453  -1.674  0.00  0.00    +0.000 OA
ATOM     10  C3  UNL     1      13.886  16.689  -1.867  0.00  0.00    +0.000 A 
ATOM     11  C4  UNL     1      14.859  17.544  -2.206  0.00  0.00    +0.000 A 
ATOM     12  H2  UNL     1      11.413  18.796  -2.467  0.00  0.00    +0.000 HD
ENDBRANCH   1  11
BRANCH   3  13
ATOM     13  C6  UNL     1      17.556  15.466  -0.610  0.00  0.00    +0.000 A 
ATOM     14  C7  UNL     1      18.438  16.157   0.231  0.00  0.00    +0.000 A 
ATOM     15  C8  UNL     1      19.601  15.542   0.703  0.00  0.00    +0.000 A 
ATOM     16  C9  UNL     1      19.893  14.231   0.336  0.00  0.00    +0.000 A 
ATOM     17  C10 UNL     1      19.021  13.537  -0.500  0.00  0.00    +0.000 A 
ATOM     18  C11 UNL     1      17.856  14.152  -0.971  0.00  0.00    +0.000 A 
ENDBRANCH   3  13
TORSDOF 2
ENDMDL
MODEL 7
REMARK VINA RESULT:    -5.006     14.739     16.404
REMARK INTER + INTRA:          -5.865
REMARK INTER:                  -5.530
REMARK INTRA:                  -0.336
REMARK UNBOUND:                -0.274
REMARK  Name = /home/anacleto/Desktop/manuscript_Mpro/naturecomm/supplementary_file_S2/6-chemical-library/molecular_docking/3D_ligand_structure/712.pdb
REMARK  2 active torsions:
REMARK  status: ('A' for Active; 'I' for Inactive)
REMARK    1  A    between atoms: C4_7  and  C5_8
REMARK    2  A    between atoms: N3_10  and  C6_11
REMARK                            x       y       z     vdW  Elec       q    Type
REMARK                         _______ _______ _______ _____ _____    ______ ____
ROOT
ATOM      1  C5  UNL     1      15.112  13.927  -2.710  0.00  0.00    +0.000 C 
ATOM      2  O2  UNL     1      14.024  14.479  -2.832  0.00  0.00    +0.000 OA
ATOM      3  N3  UNL     1      15.618  12.892  -3.470  0.00  0.00    +0.000 N 
ATOM      4  H4  UNL     1      16.546  12.588  -3.189  0.00  0.00    +0.000 HD
ENDROOT
BRANCH   1  11
ATOM      5  N1  UNL     1      15.833  15.483  -0.898  0.00  0.00    +0.000 NA
ATOM      6  C1  UNL     1      16.704  15.790   0.001  0.00  0.00    +0.000 A 
ATOM      7  N2  UNL     1      17.833  15.071   0.252  0.00  0.00    +0.000 N 
ATOM      8  C2  UNL     1      18.140  13.941  -0.445  0.00  0.00    +0.000 A 
ATOM      9  O1  UNL     1      19.152  13.286  -0.230  0.00  0.00    +0.000 OA
ATOM     10  C3  UNL     1      17.173  13.559  -1.478  0.00  0.00    +0.000 A 
ATOM     11  C4  UNL     1      16.098  14.341  -1.637  0.00  0.00    +0.000 A 
ATOM     12  H2  UNL     1      18.487  15.350   0.968  0.00  0.00    +0.000 HD
ENDBRANCH   1  11
BRANCH   3  13
ATOM     13  C6  UNL     1      15.017  12.230  -4.554  0.00  0.00    +0.000 A 
ATOM     14  C7  UNL     1      15.230  12.768  -5.830  0.00  0.00    +0.000 A 
ATOM     15  C8  UNL     1      14.668  12.167  -6.960  0.00  0.00    +0.000 A 
ATOM     16  C9  UNL     1      13.885  11.025  -6.823  0.00  0.00    +0.000 A 
ATOM     17  C10 UNL     1      13.668  10.484  -5.558  0.00  0.00    +0.000 A 
ATOM     18  C11 UNL     1      14.232  11.084  -4.427  0.00  0.00    +0.000 A 
ENDBRANCH   3  13
TORSDOF 2
ENDMDL
MODEL 8
REMARK VINA RESULT:    -5.001      2.159      6.359
REMARK INTER + INTRA:          -5.860
REMARK INTER:                  -5.545
REMARK INTRA:                  -0.315
REMARK UNBOUND:                -0.274
REMARK  Name = /home/anacleto/Desktop/manuscript_Mpro/naturecomm/supplementary_file_S2/6-chemical-library/molecular_docking/3D_ligand_structure/712.pdb
REMARK  2 active torsions:
REMARK  status: ('A' for Active; 'I' for Inactive)
REMARK    1  A    between atoms: C4_7  and  C5_8
REMARK    2  A    between atoms: N3_10  and  C6_11
REMARK                            x       y       z     vdW  Elec       q    Type
REMARK                         _______ _______ _______ _____ _____    ______ ____
ROOT
ATOM      1  C5  UNL     1      18.092   3.895  10.260  0.00  0.00    +0.000 C 
ATOM      2  O2  UNL     1      18.513   2.923  10.877  0.00  0.00    +0.000 OA
ATOM      3  N3  UNL     1      17.012   3.941   9.403  0.00  0.00    +0.000 N 
ATOM      4  H4  UNL     1      16.843   4.858   8.999  0.00  0.00    +0.000 HD
ENDROOT
BRANCH   1  11
ATOM      5  N1  UNL     1      19.117   5.713  11.627  0.00  0.00    +0.000 NA
ATOM      6  C1  UNL     1      19.673   6.876  11.664  0.00  0.00    +0.000 A 
ATOM      7  N2  UNL     1      19.913   7.647  10.567  0.00  0.00    +0.000 N 
ATOM      8  C2  UNL     1      19.574   7.242   9.311  0.00  0.00    +0.000 A 
ATOM      9  O1  UNL     1      19.783   7.926   8.318  0.00  0.00    +0.000 OA
ATOM     10  C3  UNL     1      18.937   5.925   9.227  0.00  0.00    +0.000 A 
ATOM     11  C4  UNL     1      18.752   5.254  10.371  0.00  0.00    +0.000 A 
ATOM     12  H2  UNL     1      20.353   8.552  10.646  0.00  0.00    +0.000 HD
ENDBRANCH   1  11
BRANCH   3  13
ATOM     13  C6  UNL     1      16.144   2.898   9.034  0.00  0.00    +0.000 A 
ATOM     14  C7  UNL     1      16.449   2.197   7.860  0.00  0.00    +0.000 A 
ATOM     15  C8  UNL     1      15.635   1.147   7.427  0.00  0.00    +0.000 A 
ATOM     16  C9  UNL     1      14.508   0.790   8.162  0.00  0.00    +0.000 A 
ATOM     17  C10 UNL     1      14.198   1.483   9.330  0.00  0.00    +0.000 A 
ATOM     18  C11 UNL     1      15.013   2.534   9.765  0.00  0.00    +0.000 A 
ENDBRANCH   3  13
TORSDOF 2
ENDMDL
MODEL 9
REMARK VINA RESULT:    -4.829     13.934     15.091
REMARK INTER + INTRA:          -5.667
REMARK INTER:                  -5.393
REMARK INTRA:                  -0.274
REMARK UNBOUND:                -0.274
REMARK  Name = /home/anacleto/Desktop/manuscript_Mpro/naturecomm/supplementary_file_S2/6-chemical-library/molecular_docking/3D_ligand_structure/712.pdb
REMARK  2 active torsions:
REMARK  status: ('A' for Active; 'I' for Inactive)
REMARK    1  A    between atoms: C4_7  and  C5_8
REMARK    2  A    between atoms: N3_10  and  C6_11
REMARK                            x       y       z     vdW  Elec       q    Type
REMARK                         _______ _______ _______ _____ _____    ______ ____
ROOT
ATOM      1  C5  UNL     1      15.688  14.352  -1.872  0.00  0.00    +0.000 C 
ATOM      2  O2  UNL     1      14.752  15.137  -1.972  0.00  0.00    +0.000 OA
ATOM      3  N3  UNL     1      16.938  14.600  -1.342  0.00  0.00    +0.000 N 
ATOM      4  H4  UNL     1      17.562  13.798  -1.362  0.00  0.00    +0.000 HD
ENDROOT
BRANCH   1  11
ATOM      5  N1  UNL     1      16.185  11.922  -1.602  0.00  0.00    +0.000 NA
ATOM      6  C1  UNL     1      16.061  10.721  -2.054  0.00  0.00    +0.000 A 
ATOM      7  N2  UNL     1      15.387  10.396  -3.192  0.00  0.00    +0.000 N 
ATOM      8  C2  UNL     1      14.774  11.337  -3.964  0.00  0.00    +0.000 A 
ATOM      9  O1  UNL     1      14.166  11.058  -4.988  0.00  0.00    +0.000 OA
ATOM     10  C3  UNL     1      14.893  12.716  -3.483  0.00  0.00    +0.000 A 
ATOM     11  C4  UNL     1      15.579  12.919  -2.351  0.00  0.00    +0.000 A 
ATOM     12  H2  UNL     1      15.316   9.439  -3.507  0.00  0.00    +0.000 HD
ENDBRANCH   1  11
BRANCH   3  13
ATOM     13  C6  UNL     1      17.434  15.797  -0.796  0.00  0.00    +0.000 A 
ATOM     14  C7  UNL     1      17.506  15.881   0.600  0.00  0.00    +0.000 A 
ATOM     15  C8  UNL     1      17.988  17.037   1.220  0.00  0.00    +0.000 A 
ATOM     16  C9  UNL     1      18.401  18.119   0.449  0.00  0.00    +0.000 A 
ATOM     17  C10 UNL     1      18.333  18.043  -0.940  0.00  0.00    +0.000 A 
ATOM     18  C11 UNL     1      17.851  16.886  -1.561  0.00  0.00    +0.000 A 
ENDBRANCH   3  13
TORSDOF 2
ENDMDL
