MODEL 1
REMARK VINA RESULT:    -3.689      0.000      0.000
REMARK INTER + INTRA:          -4.280
REMARK INTER:                  -4.103
REMARK INTRA:                  -0.177
REMARK UNBOUND:                -0.160
REMARK  Name = /home/anacleto/Desktop/manuscript_Mpro/naturecomm/supplementary_file_S2/6-chemical-library/molecular_docking/3D_ligand_structure/1163.pdb
REMARK  2 active torsions:
REMARK  status: ('A' for Active; 'I' for Inactive)
REMARK    1  A    between atoms: C3_5  and  C4_6
REMARK    2  A    between atoms: C4_6  and  N2_7
REMARK                            x       y       z     vdW  Elec       q    Type
REMARK                         _______ _______ _______ _____ _____    ______ ____
ROOT
ATOM      1  C4  UNL     1     -25.317  -3.630 -25.799  0.00  0.00    +0.000 C 
ENDROOT
BRANCH   1   2
ATOM      2  N2  UNL     1     -25.475  -4.636 -26.866  0.00  0.00    +0.000 NA
ATOM      3  C5  UNL     1     -26.690  -5.452 -26.646  0.00  0.00    +0.000 C 
ATOM      4  C6  UNL     1     -28.008  -4.714 -26.943  0.00  0.00    +0.000 C 
ATOM      5  O1  UNL     1     -28.023  -4.186 -28.273  0.00  0.00    +0.000 OA
ATOM      6  C7  UNL     1     -26.909  -3.307 -28.485  0.00  0.00    +0.000 C 
ATOM      7  C8  UNL     1     -25.576  -4.024 -28.214  0.00  0.00    +0.000 C 
ENDBRANCH   1   2
BRANCH   1  12
ATOM      8  N1  UNL     1     -23.002  -4.287 -25.151  0.00  0.00    +0.000 NA
ATOM      9  C1  UNL     1     -22.301  -4.696 -24.117  0.00  0.00    +0.000 A 
ATOM     10  S1  UNL     1     -23.158  -4.875 -22.643  0.00  0.00    +0.000 S 
ATOM     11  C2  UNL     1     -24.589  -4.369 -23.439  0.00  0.00    +0.000 A 
ATOM     12  C3  UNL     1     -24.327  -4.097 -24.771  0.00  0.00    +0.000 A 
ENDBRANCH   1  12
TORSDOF 2
ENDMDL
MODEL 2
REMARK VINA RESULT:    -3.669     14.766     15.874
REMARK INTER + INTRA:          -4.258
REMARK INTER:                  -4.087
REMARK INTRA:                  -0.171
REMARK UNBOUND:                -0.160
REMARK  Name = /home/anacleto/Desktop/manuscript_Mpro/naturecomm/supplementary_file_S2/6-chemical-library/molecular_docking/3D_ligand_structure/1163.pdb
REMARK  2 active torsions:
REMARK  status: ('A' for Active; 'I' for Inactive)
REMARK    1  A    between atoms: C3_5  and  C4_6
REMARK    2  A    between atoms: C4_6  and  N2_7
REMARK                            x       y       z     vdW  Elec       q    Type
REMARK                         _______ _______ _______ _____ _____    ______ ____
ROOT
ATOM      1  C4  UNL     1     -25.552   4.776 -38.870  0.00  0.00    +0.000 C 
ENDROOT
BRANCH   1   2
ATOM      2  N2  UNL     1     -25.385   3.311 -38.850  0.00  0.00    +0.000 NA
ATOM      3  C5  UNL     1     -26.340   2.684 -37.908  0.00  0.00    +0.000 C 
ATOM      4  C6  UNL     1     -27.795   2.660 -38.408  0.00  0.00    +0.000 C 
ATOM      5  O1  UNL     1     -27.898   2.023 -39.686  0.00  0.00    +0.000 OA
ATOM      6  C7  UNL     1     -27.058   2.674 -40.649  0.00  0.00    +0.000 C 
ATOM      7  C8  UNL     1     -25.592   2.697 -40.184  0.00  0.00    +0.000 C 
ENDBRANCH   1   2
BRANCH   1  12
ATOM      8  N1  UNL     1     -23.423   5.410 -37.739  0.00  0.00    +0.000 NA
ATOM      9  C1  UNL     1     -22.305   6.069 -37.949  0.00  0.00    +0.000 A 
ATOM     10  S1  UNL     1     -22.123   6.782 -39.498  0.00  0.00    +0.000 S 
ATOM     11  C2  UNL     1     -23.662   6.168 -39.936  0.00  0.00    +0.000 A 
ATOM     12  C3  UNL     1     -24.216   5.463 -38.882  0.00  0.00    +0.000 A 
ENDBRANCH   1  12
TORSDOF 2
ENDMDL
MODEL 3
REMARK VINA RESULT:    -3.531     15.004     16.683
REMARK INTER + INTRA:          -4.104
REMARK INTER:                  -3.950
REMARK INTRA:                  -0.155
REMARK UNBOUND:                -0.160
REMARK  Name = /home/anacleto/Desktop/manuscript_Mpro/naturecomm/supplementary_file_S2/6-chemical-library/molecular_docking/3D_ligand_structure/1163.pdb
REMARK  2 active torsions:
REMARK  status: ('A' for Active; 'I' for Inactive)
REMARK    1  A    between atoms: C3_5  and  C4_6
REMARK    2  A    between atoms: C4_6  and  N2_7
REMARK                            x       y       z     vdW  Elec       q    Type
REMARK                         _______ _______ _______ _____ _____    ______ ____
ROOT
ATOM      1  C4  UNL     1     -24.246   5.224 -39.200  0.00  0.00    +0.000 C 
ENDROOT
BRANCH   1   2
ATOM      2  N2  UNL     1     -23.844   6.050 -38.047  0.00  0.00    +0.000 NA
ATOM      3  C5  UNL     1     -22.398   5.897 -37.766  0.00  0.00    +0.000 C 
ATOM      4  C6  UNL     1     -21.480   6.601 -38.781  0.00  0.00    +0.000 C 
ATOM      5  O1  UNL     1     -21.798   7.992 -38.895  0.00  0.00    +0.000 OA
ATOM      6  C7  UNL     1     -23.171   8.172 -39.268  0.00  0.00    +0.000 C 
ATOM      7  C8  UNL     1     -24.114   7.494 -38.260  0.00  0.00    +0.000 C 
ENDBRANCH   1   2
BRANCH   1  12
ATOM      8  N1  UNL     1     -25.352   3.124 -38.437  0.00  0.00    +0.000 NA
ATOM      9  C1  UNL     1     -26.542   2.611 -38.219  0.00  0.00    +0.000 A 
ATOM     10  S1  UNL     1     -27.879   3.640 -38.521  0.00  0.00    +0.000 S 
ATOM     11  C2  UNL     1     -26.792   4.880 -38.985  0.00  0.00    +0.000 A 
ATOM     12  C3  UNL     1     -25.485   4.436 -38.883  0.00  0.00    +0.000 A 
ENDBRANCH   1  12
TORSDOF 2
ENDMDL
MODEL 4
REMARK VINA RESULT:    -3.456      2.601      2.902
REMARK INTER + INTRA:          -4.020
REMARK INTER:                  -3.866
REMARK INTRA:                  -0.155
REMARK UNBOUND:                -0.160
REMARK  Name = /home/anacleto/Desktop/manuscript_Mpro/naturecomm/supplementary_file_S2/6-chemical-library/molecular_docking/3D_ligand_structure/1163.pdb
REMARK  2 active torsions:
REMARK  status: ('A' for Active; 'I' for Inactive)
REMARK    1  A    between atoms: C3_5  and  C4_6
REMARK    2  A    between atoms: C4_6  and  N2_7
REMARK                            x       y       z     vdW  Elec       q    Type
REMARK                         _______ _______ _______ _____ _____    ______ ____
ROOT
ATOM      1  C4  UNL     1     -24.263  -4.070 -26.756  0.00  0.00    +0.000 C 
ENDROOT
BRANCH   1   2
ATOM      2  N2  UNL     1     -25.134  -4.679 -27.779  0.00  0.00    +0.000 NA
ATOM      3  C5  UNL     1     -25.864  -5.841 -27.225  0.00  0.00    +0.000 C 
ATOM      4  C6  UNL     1     -27.006  -5.470 -26.262  0.00  0.00    +0.000 C 
ATOM      5  O1  UNL     1     -27.936  -4.570 -26.877  0.00  0.00    +0.000 OA
ATOM      6  C7  UNL     1     -27.272  -3.384 -27.334  0.00  0.00    +0.000 C 
ATOM      7  C8  UNL     1     -26.136  -3.724 -28.314  0.00  0.00    +0.000 C 
ENDBRANCH   1   2
BRANCH   1  12
ATOM      8  N1  UNL     1     -21.952  -4.930 -26.393  0.00  0.00    +0.000 NA
ATOM      9  C1  UNL     1     -20.744  -4.880 -26.910  0.00  0.00    +0.000 A 
ATOM     10  S1  UNL     1     -20.564  -3.933 -28.327  0.00  0.00    +0.000 S 
ATOM     11  C2  UNL     1     -22.232  -3.549 -28.256  0.00  0.00    +0.000 A 
ATOM     12  C3  UNL     1     -22.820  -4.162 -27.163  0.00  0.00    +0.000 A 
ENDBRANCH   1  12
TORSDOF 2
ENDMDL
MODEL 5
REMARK VINA RESULT:    -3.435      3.331      5.053
REMARK INTER + INTRA:          -3.997
REMARK INTER:                  -3.834
REMARK INTRA:                  -0.162
REMARK UNBOUND:                -0.160
REMARK  Name = /home/anacleto/Desktop/manuscript_Mpro/naturecomm/supplementary_file_S2/6-chemical-library/molecular_docking/3D_ligand_structure/1163.pdb
REMARK  2 active torsions:
REMARK  status: ('A' for Active; 'I' for Inactive)
REMARK    1  A    between atoms: C3_5  and  C4_6
REMARK    2  A    between atoms: C4_6  and  N2_7
REMARK                            x       y       z     vdW  Elec       q    Type
REMARK                         _______ _______ _______ _____ _____    ______ ____
ROOT
ATOM      1  C4  UNL     1     -24.464  -4.868 -25.321  0.00  0.00    +0.000 C 
ENDROOT
BRANCH   1   2
ATOM      2  N2  UNL     1     -24.897  -4.100 -24.138  0.00  0.00    +0.000 NA
ATOM      3  C5  UNL     1     -25.208  -5.003 -23.007  0.00  0.00    +0.000 C 
ATOM      4  C6  UNL     1     -23.970  -5.624 -22.336  0.00  0.00    +0.000 C 
ATOM      5  O1  UNL     1     -23.051  -4.616 -21.901  0.00  0.00    +0.000 OA
ATOM      6  C7  UNL     1     -22.650  -3.785 -22.999  0.00  0.00    +0.000 C 
ATOM      7  C8  UNL     1     -23.867  -3.135 -23.679  0.00  0.00    +0.000 C 
ENDBRANCH   1   2
BRANCH   1  12
ATOM      8  N1  UNL     1     -24.353  -4.037 -27.668  0.00  0.00    +0.000 NA
ATOM      9  C1  UNL     1     -25.122  -3.607 -28.643  0.00  0.00    +0.000 A 
ATOM     10  S1  UNL     1     -26.804  -3.557 -28.317  0.00  0.00    +0.000 S 
ATOM     11  C2  UNL     1     -26.494  -4.156 -26.741  0.00  0.00    +0.000 A 
ATOM     12  C3  UNL     1     -25.136  -4.355 -26.562  0.00  0.00    +0.000 A 
ENDBRANCH   1  12
TORSDOF 2
ENDMDL
MODEL 6
REMARK VINA RESULT:    -3.384     17.614     18.779
REMARK INTER + INTRA:          -3.940
REMARK INTER:                  -3.776
REMARK INTRA:                  -0.164
REMARK UNBOUND:                -0.160
REMARK  Name = /home/anacleto/Desktop/manuscript_Mpro/naturecomm/supplementary_file_S2/6-chemical-library/molecular_docking/3D_ligand_structure/1163.pdb
REMARK  2 active torsions:
REMARK  status: ('A' for Active; 'I' for Inactive)
REMARK    1  A    between atoms: C3_5  and  C4_6
REMARK    2  A    between atoms: C4_6  and  N2_7
REMARK                            x       y       z     vdW  Elec       q    Type
REMARK                         _______ _______ _______ _____ _____    ______ ____
ROOT
ATOM      1  C4  UNL     1     -20.486   8.373 -37.933  0.00  0.00    +0.000 C 
ENDROOT
BRANCH   1   2
ATOM      2  N2  UNL     1     -21.335   7.984 -39.074  0.00  0.00    +0.000 NA
ATOM      3  C5  UNL     1     -21.595   6.526 -39.066  0.00  0.00    +0.000 C 
ATOM      4  C6  UNL     1     -22.586   6.068 -37.981  0.00  0.00    +0.000 C 
ATOM      5  O1  UNL     1     -23.829   6.773 -38.078  0.00  0.00    +0.000 OA
ATOM      6  C7  UNL     1     -23.620   8.188 -37.986  0.00  0.00    +0.000 C 
ATOM      7  C8  UNL     1     -22.646   8.679 -39.071  0.00  0.00    +0.000 C 
ENDBRANCH   1   2
BRANCH   1  12
ATOM      8  N1  UNL     1     -18.244   8.555 -39.005  0.00  0.00    +0.000 NA
ATOM      9  C1  UNL     1     -17.330   9.442 -39.332  0.00  0.00    +0.000 A 
ATOM     10  S1  UNL     1     -17.684  11.073 -38.944  0.00  0.00    +0.000 S 
ATOM     11  C2  UNL     1     -19.181  10.568 -38.282  0.00  0.00    +0.000 A 
ATOM     12  C3  UNL     1     -19.318   9.196 -38.395  0.00  0.00    +0.000 A 
ENDBRANCH   1  12
TORSDOF 2
ENDMDL
MODEL 7
REMARK VINA RESULT:    -3.328      2.716      3.435
REMARK INTER + INTRA:          -3.876
REMARK INTER:                  -3.679
REMARK INTRA:                  -0.197
REMARK UNBOUND:                -0.160
REMARK  Name = /home/anacleto/Desktop/manuscript_Mpro/naturecomm/supplementary_file_S2/6-chemical-library/molecular_docking/3D_ligand_structure/1163.pdb
REMARK  2 active torsions:
REMARK  status: ('A' for Active; 'I' for Inactive)
REMARK    1  A    between atoms: C3_5  and  C4_6
REMARK    2  A    between atoms: C4_6  and  N2_7
REMARK                            x       y       z     vdW  Elec       q    Type
REMARK                         _______ _______ _______ _____ _____    ______ ____
ROOT
ATOM      1  C4  UNL     1     -24.097  -4.751 -26.642  0.00  0.00    +0.000 C 
ENDROOT
BRANCH   1   2
ATOM      2  N2  UNL     1     -23.587  -3.789 -27.637  0.00  0.00    +0.000 NA
ATOM      3  C5  UNL     1     -22.132  -3.966 -27.845  0.00  0.00    +0.000 C 
ATOM      4  C6  UNL     1     -21.758  -5.223 -28.650  0.00  0.00    +0.000 C 
ATOM      5  O1  UNL     1     -22.427  -5.252 -29.915  0.00  0.00    +0.000 OA
ATOM      6  C7  UNL     1     -23.849  -5.184 -29.741  0.00  0.00    +0.000 C 
ATOM      7  C8  UNL     1     -24.255  -3.927 -28.955  0.00  0.00    +0.000 C 
ENDBRANCH   1   2
BRANCH   1  12
ATOM      8  N1  UNL     1     -24.325  -3.105 -24.784  0.00  0.00    +0.000 NA
ATOM      9  C1  UNL     1     -23.921  -2.883 -23.553  0.00  0.00    +0.000 A 
ATOM     10  S1  UNL     1     -22.877  -4.060 -22.873  0.00  0.00    +0.000 S 
ATOM     11  C2  UNL     1     -22.960  -4.947 -24.337  0.00  0.00    +0.000 A 
ATOM     12  C3  UNL     1     -23.773  -4.296 -25.248  0.00  0.00    +0.000 A 
ENDBRANCH   1  12
TORSDOF 2
ENDMDL
MODEL 8
REMARK VINA RESULT:    -3.286      1.985      2.797
REMARK INTER + INTRA:          -3.830
REMARK INTER:                  -3.650
REMARK INTRA:                  -0.180
REMARK UNBOUND:                -0.160
REMARK  Name = /home/anacleto/Desktop/manuscript_Mpro/naturecomm/supplementary_file_S2/6-chemical-library/molecular_docking/3D_ligand_structure/1163.pdb
REMARK  2 active torsions:
REMARK  status: ('A' for Active; 'I' for Inactive)
REMARK    1  A    between atoms: C3_5  and  C4_6
REMARK    2  A    between atoms: C4_6  and  N2_7
REMARK                            x       y       z     vdW  Elec       q    Type
REMARK                         _______ _______ _______ _____ _____    ______ ____
ROOT
ATOM      1  C4  UNL     1     -23.363  -4.819 -26.809  0.00  0.00    +0.000 C 
ENDROOT
BRANCH   1   2
ATOM      2  N2  UNL     1     -24.552  -4.333 -27.534  0.00  0.00    +0.000 NA
ATOM      3  C5  UNL     1     -24.188  -3.865 -28.890  0.00  0.00    +0.000 C 
ATOM      4  C6  UNL     1     -23.864  -4.996 -29.882  0.00  0.00    +0.000 C 
ATOM      5  O1  UNL     1     -24.941  -5.935 -29.975  0.00  0.00    +0.000 OA
ATOM      6  C7  UNL     1     -25.250  -6.484 -28.686  0.00  0.00    +0.000 C 
ATOM      7  C8  UNL     1     -25.597  -5.376 -27.678  0.00  0.00    +0.000 C 
ENDBRANCH   1   2
BRANCH   1  12
ATOM      8  N1  UNL     1     -24.225  -3.287 -25.042  0.00  0.00    +0.000 NA
ATOM      9  C1  UNL     1     -24.075  -3.001 -23.768  0.00  0.00    +0.000 A 
ATOM     10  S1  UNL     1     -22.922  -3.936 -22.911  0.00  0.00    +0.000 S 
ATOM     11  C2  UNL     1     -22.584  -4.800 -24.352  0.00  0.00    +0.000 A 
ATOM     12  C3  UNL     1     -23.366  -4.325 -25.391  0.00  0.00    +0.000 A 
ENDBRANCH   1  12
TORSDOF 2
ENDMDL
MODEL 9
REMARK VINA RESULT:    -3.216      2.702      4.022
REMARK INTER + INTRA:          -3.752
REMARK INTER:                  -3.592
REMARK INTRA:                  -0.160
REMARK UNBOUND:                -0.160
REMARK  Name = /home/anacleto/Desktop/manuscript_Mpro/naturecomm/supplementary_file_S2/6-chemical-library/molecular_docking/3D_ligand_structure/1163.pdb
REMARK  2 active torsions:
REMARK  status: ('A' for Active; 'I' for Inactive)
REMARK    1  A    between atoms: C3_5  and  C4_6
REMARK    2  A    between atoms: C4_6  and  N2_7
REMARK                            x       y       z     vdW  Elec       q    Type
REMARK                         _______ _______ _______ _____ _____    ______ ____
ROOT
ATOM      1  C4  UNL     1     -26.014  -5.632 -26.681  0.00  0.00    +0.000 C 
ENDROOT
BRANCH   1   2
ATOM      2  N2  UNL     1     -25.860  -4.169 -26.789  0.00  0.00    +0.000 NA
ATOM      3  C5  UNL     1     -24.629  -3.716 -26.104  0.00  0.00    +0.000 C 
ATOM      4  C6  UNL     1     -23.328  -4.056 -26.853  0.00  0.00    +0.000 C 
ATOM      5  O1  UNL     1     -23.346  -3.544 -28.190  0.00  0.00    +0.000 OA
ATOM      6  C7  UNL     1     -24.476  -4.049 -28.914  0.00  0.00    +0.000 C 
ATOM      7  C8  UNL     1     -25.793  -3.707 -28.198  0.00  0.00    +0.000 C 
ENDBRANCH   1   2
BRANCH   1  12
ATOM      8  N1  UNL     1     -28.353  -5.999 -25.904  0.00  0.00    +0.000 NA
ATOM      9  C1  UNL     1     -29.040  -6.327 -24.832  0.00  0.00    +0.000 A 
ATOM     10  S1  UNL     1     -28.130  -6.639 -23.413  0.00  0.00    +0.000 S 
ATOM     11  C2  UNL     1     -26.694  -6.311 -24.289  0.00  0.00    +0.000 A 
ATOM     12  C3  UNL     1     -26.995  -5.985 -25.600  0.00  0.00    +0.000 A 
ENDBRANCH   1  12
TORSDOF 2
ENDMDL
