MODEL 1
REMARK VINA RESULT:    -5.139      0.000      0.000
REMARK INTER + INTRA:          -6.807
REMARK INTER:                  -6.474
REMARK INTRA:                  -0.333
REMARK UNBOUND:                -0.467
REMARK  Name = /home/anacleto/Desktop/manuscript_Mpro/naturecomm/supplementary_file_S2/6-chemical-library/molecular_docking/3D_ligand_structure/692.pdb
REMARK  4 active torsions:
REMARK  status: ('A' for Active; 'I' for Inactive)
REMARK    1  A    between atoms: C5_5  and  N1_6
REMARK    2  A    between atoms: C6_7  and  C7_9
REMARK    3  A    between atoms: C7_9  and  N2_10
REMARK    4  A    between atoms: N2_10  and  C8_11
REMARK                            x       y       z     vdW  Elec       q    Type
REMARK                         _______ _______ _______ _____ _____    ______ ____
ROOT
ATOM      1  N1  UNL     1     -24.508   4.643 -38.627  0.00  0.00    +0.000 N 
ATOM      2  C6  UNL     1     -23.653   5.683 -38.929  0.00  0.00    +0.000 C 
ATOM      3  O1  UNL     1     -23.578   6.210 -40.036  0.00  0.00    +0.000 OA
ATOM      4  H10 UNL     1     -24.562   4.414 -37.635  0.00  0.00    +0.000 HD
ENDROOT
BRANCH   1   9
ATOM      5  C1  UNL     1     -26.921   4.676 -39.117  0.00  0.00    +0.000 C 
ATOM      6  C2  UNL     1     -27.337   3.721 -38.002  0.00  0.00    +0.000 C 
ATOM      7  C3  UNL     1     -26.609   2.406 -38.283  0.00  0.00    +0.000 C 
ATOM      8  C4  UNL     1     -25.698   2.668 -39.483  0.00  0.00    +0.000 C 
ATOM      9  C5  UNL     1     -25.538   4.184 -39.538  0.00  0.00    +0.000 C 
ENDBRANCH   1   9
BRANCH   2  10
ATOM     10  C7  UNL     1     -22.751   6.081 -37.753  0.00  0.00    +0.000 C 
BRANCH  10  11
ATOM     11  N2  UNL     1     -21.333   6.089 -38.189  0.00  0.00    +0.000 N 
ATOM     12  H13 UNL     1     -20.794   5.481 -37.573  0.00  0.00    +0.000 HD
BRANCH  11  13
ATOM     13  C8  UNL     1     -20.721   7.356 -38.257  0.00  0.00    +0.000 A 
ATOM     14  C9  UNL     1     -19.494   7.570 -38.895  0.00  0.00    +0.000 A 
ATOM     15  C10 UNL     1     -18.900   8.836 -38.910  0.00  0.00    +0.000 A 
ATOM     16  C11 UNL     1     -19.512   9.903 -38.260  0.00  0.00    +0.000 A 
ATOM     17  C12 UNL     1     -20.706   9.700 -37.576  0.00  0.00    +0.000 A 
ATOM     18  C13 UNL     1     -21.294   8.431 -37.560  0.00  0.00    +0.000 A 
ENDBRANCH  11  13
ENDBRANCH  10  11
ENDBRANCH   2  10
TORSDOF 4
ENDMDL
MODEL 2
REMARK VINA RESULT:    -4.839      1.200      7.166
REMARK INTER + INTRA:          -6.437
REMARK INTER:                  -6.129
REMARK INTRA:                  -0.308
REMARK UNBOUND:                -0.467
REMARK  Name = /home/anacleto/Desktop/manuscript_Mpro/naturecomm/supplementary_file_S2/6-chemical-library/molecular_docking/3D_ligand_structure/692.pdb
REMARK  4 active torsions:
REMARK  status: ('A' for Active; 'I' for Inactive)
REMARK    1  A    between atoms: C5_5  and  N1_6
REMARK    2  A    between atoms: C6_7  and  C7_9
REMARK    3  A    between atoms: C7_9  and  N2_10
REMARK    4  A    between atoms: N2_10  and  C8_11
REMARK                            x       y       z     vdW  Elec       q    Type
REMARK                         _______ _______ _______ _____ _____    ______ ____
ROOT
ATOM      1  N1  UNL     1     -21.917   7.223 -38.672  0.00  0.00    +0.000 N 
ATOM      2  C6  UNL     1     -22.720   6.148 -38.350  0.00  0.00    +0.000 C 
ATOM      3  O1  UNL     1     -22.603   5.488 -37.322  0.00  0.00    +0.000 OA
ATOM      4  H10 UNL     1     -22.229   7.758 -39.482  0.00  0.00    +0.000 HD
ENDROOT
BRANCH   1   9
ATOM      5  C1  UNL     1     -21.587   8.938 -36.936  0.00  0.00    +0.000 C 
ATOM      6  C2  UNL     1     -21.543  10.134 -37.881  0.00  0.00    +0.000 C 
ATOM      7  C3  UNL     1     -20.360   9.886 -38.818  0.00  0.00    +0.000 C 
ATOM      8  C4  UNL     1     -19.822   8.497 -38.470  0.00  0.00    +0.000 C 
ATOM      9  C5  UNL     1     -20.966   7.799 -37.741  0.00  0.00    +0.000 C 
ENDBRANCH   1   9
BRANCH   2  10
ATOM     10  C7  UNL     1     -23.744   5.814 -39.443  0.00  0.00    +0.000 C 
BRANCH  10  11
ATOM     11  N2  UNL     1     -25.118   6.009 -38.919  0.00  0.00    +0.000 N 
ATOM     12  H13 UNL     1     -25.063   6.468 -38.010  0.00  0.00    +0.000 HD
BRANCH  11  13
ATOM     13  C8  UNL     1     -25.903   4.844 -38.814  0.00  0.00    +0.000 A 
ATOM     14  C9  UNL     1     -27.302   4.871 -38.837  0.00  0.00    +0.000 A 
ATOM     15  C10 UNL     1     -28.049   3.697 -38.693  0.00  0.00    +0.000 A 
ATOM     16  C11 UNL     1     -27.405   2.480 -38.494  0.00  0.00    +0.000 A 
ATOM     17  C12 UNL     1     -26.017   2.439 -38.417  0.00  0.00    +0.000 A 
ATOM     18  C13 UNL     1     -25.275   3.615 -38.557  0.00  0.00    +0.000 A 
ENDBRANCH  11  13
ENDBRANCH  10  11
ENDBRANCH   2  10
TORSDOF 4
ENDMDL
MODEL 3
REMARK VINA RESULT:    -4.803     15.890     18.383
REMARK INTER + INTRA:          -6.393
REMARK INTER:                  -5.997
REMARK INTRA:                  -0.396
REMARK UNBOUND:                -0.467
REMARK  Name = /home/anacleto/Desktop/manuscript_Mpro/naturecomm/supplementary_file_S2/6-chemical-library/molecular_docking/3D_ligand_structure/692.pdb
REMARK  4 active torsions:
REMARK  status: ('A' for Active; 'I' for Inactive)
REMARK    1  A    between atoms: C5_5  and  N1_6
REMARK    2  A    between atoms: C6_7  and  C7_9
REMARK    3  A    between atoms: C7_9  and  N2_10
REMARK    4  A    between atoms: N2_10  and  C8_11
REMARK                            x       y       z     vdW  Elec       q    Type
REMARK                         _______ _______ _______ _____ _____    ______ ____
ROOT
ATOM      1  N1  UNL     1     -37.574  -2.565 -34.273  0.00  0.00    +0.000 N 
ATOM      2  C6  UNL     1     -38.696  -2.794 -33.504  0.00  0.00    +0.000 C 
ATOM      3  O1  UNL     1     -39.846  -2.640 -33.904  0.00  0.00    +0.000 OA
ATOM      4  H10 UNL     1     -36.699  -2.878 -33.852  0.00  0.00    +0.000 HD
ENDROOT
BRANCH   1   9
ATOM      5  C1  UNL     1     -36.369  -2.736 -36.414  0.00  0.00    +0.000 C 
ATOM      6  C2  UNL     1     -35.371  -1.616 -36.140  0.00  0.00    +0.000 C 
ATOM      7  C3  UNL     1     -36.204  -0.350 -35.934  0.00  0.00    +0.000 C 
ATOM      8  C4  UNL     1     -37.668  -0.792 -35.976  0.00  0.00    +0.000 C 
ATOM      9  C5  UNL     1     -37.641  -2.291 -35.696  0.00  0.00    +0.000 C 
ENDBRANCH   1   9
BRANCH   2  10
ATOM     10  C7  UNL     1     -38.363  -3.206 -32.063  0.00  0.00    +0.000 C 
BRANCH  10  11
ATOM     11  N2  UNL     1     -39.317  -2.565 -31.125  0.00  0.00    +0.000 N 
ATOM     12  H13 UNL     1     -40.138  -2.260 -31.646  0.00  0.00    +0.000 HD
BRANCH  11  13
ATOM     13  C8  UNL     1     -38.805  -1.488 -30.374  0.00  0.00    +0.000 A 
ATOM     14  C9  UNL     1     -39.421  -0.232 -30.339  0.00  0.00    +0.000 A 
ATOM     15  C10 UNL     1     -38.864   0.825 -29.612  0.00  0.00    +0.000 A 
ATOM     16  C11 UNL     1     -37.664   0.647 -28.930  0.00  0.00    +0.000 A 
ATOM     17  C12 UNL     1     -37.010  -0.578 -28.995  0.00  0.00    +0.000 A 
ATOM     18  C13 UNL     1     -37.568  -1.631 -29.727  0.00  0.00    +0.000 A 
ENDBRANCH  11  13
ENDBRANCH  10  11
ENDBRANCH   2  10
TORSDOF 4
ENDMDL
MODEL 4
REMARK VINA RESULT:    -4.566      2.333      3.716
REMARK INTER + INTRA:          -6.101
REMARK INTER:                  -5.773
REMARK INTRA:                  -0.328
REMARK UNBOUND:                -0.467
REMARK  Name = /home/anacleto/Desktop/manuscript_Mpro/naturecomm/supplementary_file_S2/6-chemical-library/molecular_docking/3D_ligand_structure/692.pdb
REMARK  4 active torsions:
REMARK  status: ('A' for Active; 'I' for Inactive)
REMARK    1  A    between atoms: C5_5  and  N1_6
REMARK    2  A    between atoms: C6_7  and  C7_9
REMARK    3  A    between atoms: C7_9  and  N2_10
REMARK    4  A    between atoms: N2_10  and  C8_11
REMARK                            x       y       z     vdW  Elec       q    Type
REMARK                         _______ _______ _______ _____ _____    ______ ____
ROOT
ATOM      1  N1  UNL     1     -27.346   4.850 -38.874  0.00  0.00    +0.000 N 
ATOM      2  C6  UNL     1     -26.333   3.956 -38.593  0.00  0.00    +0.000 C 
ATOM      3  O1  UNL     1     -26.499   2.899 -37.992  0.00  0.00    +0.000 OA
ATOM      4  H10 UNL     1     -27.081   5.606 -39.505  0.00  0.00    +0.000 HD
ENDROOT
BRANCH   1   9
ATOM      5  C1  UNL     1     -29.512   4.413 -39.961  0.00  0.00    +0.000 C 
ATOM      6  C2  UNL     1     -29.787   5.853 -40.384  0.00  0.00    +0.000 C 
ATOM      7  C3  UNL     1     -29.832   6.670 -39.092  0.00  0.00    +0.000 C 
ATOM      8  C4  UNL     1     -29.466   5.705 -37.963  0.00  0.00    +0.000 C 
ATOM      9  C5  UNL     1     -28.746   4.546 -38.647  0.00  0.00    +0.000 C 
ENDBRANCH   1   9
BRANCH   2  10
ATOM     10  C7  UNL     1     -24.954   4.446 -39.054  0.00  0.00    +0.000 C 
BRANCH  10  11
ATOM     11  N2  UNL     1     -24.144   4.845 -37.877  0.00  0.00    +0.000 N 
ATOM     12  H13 UNL     1     -24.754   4.911 -37.063  0.00  0.00    +0.000 HD
BRANCH  11  13
ATOM     13  C8  UNL     1     -23.409   6.038 -38.017  0.00  0.00    +0.000 A 
ATOM     14  C9  UNL     1     -24.001   7.251 -38.387  0.00  0.00    +0.000 A 
ATOM     15  C10 UNL     1     -23.233   8.408 -38.552  0.00  0.00    +0.000 A 
ATOM     16  C11 UNL     1     -21.853   8.361 -38.376  0.00  0.00    +0.000 A 
ATOM     17  C12 UNL     1     -21.240   7.155 -38.059  0.00  0.00    +0.000 A 
ATOM     18  C13 UNL     1     -22.011   5.999 -37.900  0.00  0.00    +0.000 A 
ENDBRANCH  11  13
ENDBRANCH  10  11
ENDBRANCH   2  10
TORSDOF 4
ENDMDL
MODEL 5
REMARK VINA RESULT:    -4.508      1.913      6.826
REMARK INTER + INTRA:          -6.029
REMARK INTER:                  -5.653
REMARK INTRA:                  -0.376
REMARK UNBOUND:                -0.467
REMARK  Name = /home/anacleto/Desktop/manuscript_Mpro/naturecomm/supplementary_file_S2/6-chemical-library/molecular_docking/3D_ligand_structure/692.pdb
REMARK  4 active torsions:
REMARK  status: ('A' for Active; 'I' for Inactive)
REMARK    1  A    between atoms: C5_5  and  N1_6
REMARK    2  A    between atoms: C6_7  and  C7_9
REMARK    3  A    between atoms: C7_9  and  N2_10
REMARK    4  A    between atoms: N2_10  and  C8_11
REMARK                            x       y       z     vdW  Elec       q    Type
REMARK                         _______ _______ _______ _____ _____    ______ ____
ROOT
ATOM      1  N1  UNL     1     -23.466   7.423 -38.641  0.00  0.00    +0.000 N 
ATOM      2  C6  UNL     1     -24.714   7.963 -38.407  0.00  0.00    +0.000 C 
ATOM      3  O1  UNL     1     -24.923   8.903 -37.646  0.00  0.00    +0.000 OA
ATOM      4  H10 UNL     1     -23.432   6.750 -39.406  0.00  0.00    +0.000 HD
ENDROOT
BRANCH   1   9
ATOM      5  C1  UNL     1     -21.651   9.004 -39.163  0.00  0.00    +0.000 C 
ATOM      6  C2  UNL     1     -20.926   8.110 -40.164  0.00  0.00    +0.000 C 
ATOM      7  C3  UNL     1     -20.524   6.853 -39.391  0.00  0.00    +0.000 C 
ATOM      8  C4  UNL     1     -21.131   6.998 -37.994  0.00  0.00    +0.000 C 
ATOM      9  C5  UNL     1     -22.244   8.030 -38.148  0.00  0.00    +0.000 C 
ENDBRANCH   1   9
BRANCH   2  10
ATOM     10  C7  UNL     1     -25.836   7.227 -39.152  0.00  0.00    +0.000 C 
BRANCH  10  11
ATOM     11  N2  UNL     1     -25.361   5.887 -39.578  0.00  0.00    +0.000 N 
ATOM     12  H13 UNL     1     -25.364   5.844 -40.597  0.00  0.00    +0.000 HD
BRANCH  11  13
ATOM     13  C8  UNL     1     -26.074   4.791 -39.055  0.00  0.00    +0.000 A 
ATOM     14  C9  UNL     1     -25.454   3.592 -38.687  0.00  0.00    +0.000 A 
ATOM     15  C10 UNL     1     -26.201   2.512 -38.206  0.00  0.00    +0.000 A 
ATOM     16  C11 UNL     1     -27.586   2.606 -38.113  0.00  0.00    +0.000 A 
ATOM     17  C12 UNL     1     -28.226   3.771 -38.522  0.00  0.00    +0.000 A 
ATOM     18  C13 UNL     1     -27.476   4.847 -39.007  0.00  0.00    +0.000 A 
ENDBRANCH  11  13
ENDBRANCH  10  11
ENDBRANCH   2  10
TORSDOF 4
ENDMDL
MODEL 6
REMARK VINA RESULT:    -4.437      1.556      2.110
REMARK INTER + INTRA:          -5.941
REMARK INTER:                  -5.623
REMARK INTRA:                  -0.318
REMARK UNBOUND:                -0.467
REMARK  Name = /home/anacleto/Desktop/manuscript_Mpro/naturecomm/supplementary_file_S2/6-chemical-library/molecular_docking/3D_ligand_structure/692.pdb
REMARK  4 active torsions:
REMARK  status: ('A' for Active; 'I' for Inactive)
REMARK    1  A    between atoms: C5_5  and  N1_6
REMARK    2  A    between atoms: C6_7  and  C7_9
REMARK    3  A    between atoms: C7_9  and  N2_10
REMARK    4  A    between atoms: N2_10  and  C8_11
REMARK                            x       y       z     vdW  Elec       q    Type
REMARK                         _______ _______ _______ _____ _____    ______ ____
ROOT
ATOM      1  N1  UNL     1     -25.773   5.595 -39.068  0.00  0.00    +0.000 N 
ATOM      2  C6  UNL     1     -25.736   6.913 -39.475  0.00  0.00    +0.000 C 
ATOM      3  O1  UNL     1     -26.332   7.344 -40.458  0.00  0.00    +0.000 OA
ATOM      4  H10 UNL     1     -25.351   5.422 -38.155  0.00  0.00    +0.000 HD
ENDROOT
BRANCH   1   9
ATOM      5  C1  UNL     1     -27.546   3.952 -38.599  0.00  0.00    +0.000 C 
ATOM      6  C2  UNL     1     -26.641   2.898 -37.967  0.00  0.00    +0.000 C 
ATOM      7  C3  UNL     1     -25.629   2.510 -39.047  0.00  0.00    +0.000 C 
ATOM      8  C4  UNL     1     -25.898   3.434 -40.236  0.00  0.00    +0.000 C 
ATOM      9  C5  UNL     1     -26.667   4.617 -39.656  0.00  0.00    +0.000 C 
ENDBRANCH   1   9
BRANCH   2  10
ATOM     10  C7  UNL     1     -24.819   7.785 -38.607  0.00  0.00    +0.000 C 
BRANCH  10  11
ATOM     11  N2  UNL     1     -23.738   6.952 -38.025  0.00  0.00    +0.000 N 
ATOM     12  H13 UNL     1     -23.984   6.716 -37.063  0.00  0.00    +0.000 HD
BRANCH  11  13
ATOM     13  C8  UNL     1     -22.447   7.514 -38.058  0.00  0.00    +0.000 A 
ATOM     14  C9  UNL     1     -22.161   8.780 -37.536  0.00  0.00    +0.000 A 
ATOM     15  C10 UNL     1     -20.874   9.321 -37.621  0.00  0.00    +0.000 A 
ATOM     16  C11 UNL     1     -19.859   8.613 -38.257  0.00  0.00    +0.000 A 
ATOM     17  C12 UNL     1     -20.136   7.376 -38.828  0.00  0.00    +0.000 A 
ATOM     18  C13 UNL     1     -21.425   6.840 -38.745  0.00  0.00    +0.000 A 
ENDBRANCH  11  13
ENDBRANCH  10  11
ENDBRANCH   2  10
TORSDOF 4
ENDMDL
MODEL 7
REMARK VINA RESULT:    -4.397      4.858      5.911
REMARK INTER + INTRA:          -5.892
REMARK INTER:                  -5.454
REMARK INTRA:                  -0.438
REMARK UNBOUND:                -0.467
REMARK  Name = /home/anacleto/Desktop/manuscript_Mpro/naturecomm/supplementary_file_S2/6-chemical-library/molecular_docking/3D_ligand_structure/692.pdb
REMARK  4 active torsions:
REMARK  status: ('A' for Active; 'I' for Inactive)
REMARK    1  A    between atoms: C5_5  and  N1_6
REMARK    2  A    between atoms: C6_7  and  C7_9
REMARK    3  A    between atoms: C7_9  and  N2_10
REMARK    4  A    between atoms: N2_10  and  C8_11
REMARK                            x       y       z     vdW  Elec       q    Type
REMARK                         _______ _______ _______ _____ _____    ______ ____
ROOT
ATOM      1  N1  UNL     1     -28.409   4.359 -38.412  0.00  0.00    +0.000 N 
ATOM      2  C6  UNL     1     -29.611   5.002 -38.623  0.00  0.00    +0.000 C 
ATOM      3  O1  UNL     1     -30.453   4.633 -39.436  0.00  0.00    +0.000 OA
ATOM      4  H10 UNL     1     -27.883   4.695 -37.606  0.00  0.00    +0.000 HD
ENDROOT
BRANCH   1   9
ATOM      5  C1  UNL     1     -27.246   2.216 -38.065  0.00  0.00    +0.000 C 
ATOM      6  C2  UNL     1     -25.830   2.758 -38.236  0.00  0.00    +0.000 C 
ATOM      7  C3  UNL     1     -25.769   3.338 -39.650  0.00  0.00    +0.000 C 
ATOM      8  C4  UNL     1     -27.184   3.224 -40.219  0.00  0.00    +0.000 C 
ATOM      9  C5  UNL     1     -28.093   3.073 -39.003  0.00  0.00    +0.000 C 
ENDBRANCH   1   9
BRANCH   2  10
ATOM     10  C7  UNL     1     -29.769   6.272 -37.777  0.00  0.00    +0.000 C 
BRANCH  10  11
ATOM     11  N2  UNL     1     -29.617   7.471 -38.639  0.00  0.00    +0.000 N 
ATOM     12  H13 UNL     1     -29.670   7.184 -39.616  0.00  0.00    +0.000 HD
BRANCH  11  13
ATOM     13  C8  UNL     1     -28.447   8.228 -38.431  0.00  0.00    +0.000 A 
ATOM     14  C9  UNL     1     -27.201   7.849 -38.941  0.00  0.00    +0.000 A 
ATOM     15  C10 UNL     1     -26.054   8.608 -38.683  0.00  0.00    +0.000 A 
ATOM     16  C11 UNL     1     -26.134   9.744 -37.884  0.00  0.00    +0.000 A 
ATOM     17  C12 UNL     1     -27.354  10.109 -37.325  0.00  0.00    +0.000 A 
ATOM     18  C13 UNL     1     -28.497   9.345 -37.582  0.00  0.00    +0.000 A 
ENDBRANCH  11  13
ENDBRANCH  10  11
ENDBRANCH   2  10
TORSDOF 4
ENDMDL
MODEL 8
REMARK VINA RESULT:    -4.304      2.478      3.551
REMARK INTER + INTRA:          -5.778
REMARK INTER:                  -5.405
REMARK INTRA:                  -0.373
REMARK UNBOUND:                -0.467
REMARK  Name = /home/anacleto/Desktop/manuscript_Mpro/naturecomm/supplementary_file_S2/6-chemical-library/molecular_docking/3D_ligand_structure/692.pdb
REMARK  4 active torsions:
REMARK  status: ('A' for Active; 'I' for Inactive)
REMARK    1  A    between atoms: C5_5  and  N1_6
REMARK    2  A    between atoms: C6_7  and  C7_9
REMARK    3  A    between atoms: C7_9  and  N2_10
REMARK    4  A    between atoms: N2_10  and  C8_11
REMARK                            x       y       z     vdW  Elec       q    Type
REMARK                         _______ _______ _______ _____ _____    ______ ____
ROOT
ATOM      1  N1  UNL     1     -27.261   5.441 -39.089  0.00  0.00    +0.000 N 
ATOM      2  C6  UNL     1     -27.310   6.816 -38.972  0.00  0.00    +0.000 C 
ATOM      3  O1  UNL     1     -28.269   7.432 -38.519  0.00  0.00    +0.000 OA
ATOM      4  H10 UNL     1     -26.346   5.069 -39.343  0.00  0.00    +0.000 HD
ENDROOT
BRANCH   1   9
ATOM      5  C1  UNL     1     -27.688   3.208 -38.144  0.00  0.00    +0.000 C 
ATOM      6  C2  UNL     1     -27.632   2.448 -39.465  0.00  0.00    +0.000 C 
ATOM      7  C3  UNL     1     -28.743   3.036 -40.336  0.00  0.00    +0.000 C 
ATOM      8  C4  UNL     1     -29.336   4.201 -39.543  0.00  0.00    +0.000 C 
ATOM      9  C5  UNL     1     -28.269   4.569 -38.517  0.00  0.00    +0.000 C 
ENDBRANCH   1   9
BRANCH   2  10
ATOM     10  C7  UNL     1     -26.060   7.510 -39.529  0.00  0.00    +0.000 C 
BRANCH  10  11
ATOM     11  N2  UNL     1     -25.354   8.224 -38.436  0.00  0.00    +0.000 N 
ATOM     12  H13 UNL     1     -25.366   9.225 -38.634  0.00  0.00    +0.000 HD
BRANCH  11  13
ATOM     13  C8  UNL     1     -24.032   7.807 -38.188  0.00  0.00    +0.000 A 
ATOM     14  C9  UNL     1     -22.985   8.708 -37.961  0.00  0.00    +0.000 A 
ATOM     15  C10 UNL     1     -21.677   8.258 -37.754  0.00  0.00    +0.000 A 
ATOM     16  C11 UNL     1     -21.392   6.897 -37.800  0.00  0.00    +0.000 A 
ATOM     17  C12 UNL     1     -22.408   5.989 -38.076  0.00  0.00    +0.000 A 
ATOM     18  C13 UNL     1     -23.713   6.444 -38.286  0.00  0.00    +0.000 A 
ENDBRANCH  11  13
ENDBRANCH  10  11
ENDBRANCH   2  10
TORSDOF 4
ENDMDL
MODEL 9
REMARK VINA RESULT:    -4.125     14.432     15.475
REMARK INTER + INTRA:          -5.556
REMARK INTER:                  -5.089
REMARK INTRA:                  -0.467
REMARK UNBOUND:                -0.467
REMARK  Name = /home/anacleto/Desktop/manuscript_Mpro/naturecomm/supplementary_file_S2/6-chemical-library/molecular_docking/3D_ligand_structure/692.pdb
REMARK  4 active torsions:
REMARK  status: ('A' for Active; 'I' for Inactive)
REMARK    1  A    between atoms: C5_5  and  N1_6
REMARK    2  A    between atoms: C6_7  and  C7_9
REMARK    3  A    between atoms: C7_9  and  N2_10
REMARK    4  A    between atoms: N2_10  and  C8_11
REMARK                            x       y       z     vdW  Elec       q    Type
REMARK                         _______ _______ _______ _____ _____    ______ ____
ROOT
ATOM      1  N1  UNL     1     -25.559  -4.577 -28.608  0.00  0.00    +0.000 N 
ATOM      2  C6  UNL     1     -24.447  -4.149 -29.306  0.00  0.00    +0.000 C 
ATOM      3  O1  UNL     1     -24.037  -2.993 -29.299  0.00  0.00    +0.000 OA
ATOM      4  H10 UNL     1     -25.686  -5.589 -28.594  0.00  0.00    +0.000 HD
ENDROOT
BRANCH   1   9
ATOM      5  C1  UNL     1     -25.746  -3.977 -26.228  0.00  0.00    +0.000 C 
ATOM      6  C2  UNL     1     -26.453  -5.253 -25.783  0.00  0.00    +0.000 C 
ATOM      7  C3  UNL     1     -27.763  -5.304 -26.571  0.00  0.00    +0.000 C 
ATOM      8  C4  UNL     1     -27.726  -4.120 -27.539  0.00  0.00    +0.000 C 
ATOM      9  C5  UNL     1     -26.253  -3.741 -27.648  0.00  0.00    +0.000 C 
ENDBRANCH   1   9
BRANCH   2  10
ATOM     10  C7  UNL     1     -23.803  -5.258 -30.149  0.00  0.00    +0.000 C 
BRANCH  10  11
ATOM     11  N2  UNL     1     -23.056  -6.189 -29.267  0.00  0.00    +0.000 N 
ATOM     12  H13 UNL     1     -23.679  -6.517 -28.529  0.00  0.00    +0.000 HD
BRANCH  11  13
ATOM     13  C8  UNL     1     -21.876  -5.676 -28.696  0.00  0.00    +0.000 A 
ATOM     14  C9  UNL     1     -21.759  -5.389 -27.332  0.00  0.00    +0.000 A 
ATOM     15  C10 UNL     1     -20.583  -4.845 -26.806  0.00  0.00    +0.000 A 
ATOM     16  C11 UNL     1     -19.513  -4.552 -27.647  0.00  0.00    +0.000 A 
ATOM     17  C12 UNL     1     -19.627  -4.782 -29.013  0.00  0.00    +0.000 A 
ATOM     18  C13 UNL     1     -20.807  -5.322 -29.535  0.00  0.00    +0.000 A 
ENDBRANCH  11  13
ENDBRANCH  10  11
ENDBRANCH   2  10
TORSDOF 4
ENDMDL
