MODEL 1
REMARK VINA RESULT:    -5.177      0.000      0.000
REMARK INTER + INTRA:          -5.604
REMARK INTER:                  -5.539
REMARK INTRA:                  -0.066
REMARK UNBOUND:                -0.125
REMARK  Name = /home/anacleto/Desktop/manuscript_Mpro/naturecomm/supplementary_file_S2/6-chemical-library/molecular_docking/3D_ligand_structure/903.pdb
REMARK  1 active torsions:
REMARK  status: ('A' for Active; 'I' for Inactive)
REMARK    1  A    between atoms: C2_5  and  C4_8
REMARK                            x       y       z     vdW  Elec       q    Type
REMARK                         _______ _______ _______ _____ _____    ______ ____
ROOT
ATOM      1  N1  UNL     1      19.830   8.277  13.297  0.00  0.00    +0.000 N 
ATOM      2  C1  UNL     1      21.132   7.951  13.145  0.00  0.00    +0.000 C 
ATOM      3  O1  UNL     1      22.042   8.242  13.899  0.00  0.00    +0.000 OA
ATOM      4  N2  UNL     1      21.262   7.195  12.007  0.00  0.00    +0.000 N 
ATOM      5  C2  UNL     1      19.986   6.888  11.395  0.00  0.00    +0.000 C 
ATOM      6  C3  UNL     1      19.067   7.659  12.357  0.00  0.00    +0.000 C 
ATOM      7  O2  UNL     1      17.846   7.705  12.315  0.00  0.00    +0.000 OA
ATOM      8  H1  UNL     1      19.468   8.795  14.079  0.00  0.00    +0.000 HD
ATOM      9  H2  UNL     1      22.143   6.746  11.794  0.00  0.00    +0.000 HD
ENDROOT
BRANCH   5  10
ATOM     10  C4  UNL     1      19.889   7.389   9.945  0.00  0.00    +0.000 C 
ATOM     11  C5  UNL     1      18.819   6.676   9.099  0.00  0.00    +0.000 C 
ATOM     12  C6  UNL     1      18.760   5.151   9.158  0.00  0.00    +0.000 C 
ATOM     13  C7  UNL     1      20.065   4.370   9.025  0.00  0.00    +0.000 C 
ATOM     14  C8  UNL     1      21.173   5.040   8.224  0.00  0.00    +0.000 C 
ATOM     15  C9  UNL     1      21.951   6.077   9.030  0.00  0.00    +0.000 C 
ATOM     16  C10 UNL     1      21.240   7.414   9.204  0.00  0.00    +0.000 C 
ENDBRANCH   5  10
TORSDOF 1
ENDMDL
MODEL 2
REMARK VINA RESULT:    -4.785      3.738      5.424
REMARK INTER + INTRA:          -5.190
REMARK INTER:                  -5.057
REMARK INTRA:                  -0.133
REMARK UNBOUND:                -0.125
REMARK  Name = /home/anacleto/Desktop/manuscript_Mpro/naturecomm/supplementary_file_S2/6-chemical-library/molecular_docking/3D_ligand_structure/903.pdb
REMARK  1 active torsions:
REMARK  status: ('A' for Active; 'I' for Inactive)
REMARK    1  A    between atoms: C2_5  and  C4_8
REMARK                            x       y       z     vdW  Elec       q    Type
REMARK                         _______ _______ _______ _____ _____    ______ ____
ROOT
ATOM      1  N1  UNL     1      17.301   2.096   9.287  0.00  0.00    +0.000 N 
ATOM      2  C1  UNL     1      16.775   2.890   8.330  0.00  0.00    +0.000 C 
ATOM      3  O1  UNL     1      15.907   2.583   7.533  0.00  0.00    +0.000 OA
ATOM      4  N2  UNL     1      17.360   4.129   8.421  0.00  0.00    +0.000 N 
ATOM      5  C2  UNL     1      18.250   4.241   9.557  0.00  0.00    +0.000 C 
ATOM      6  C3  UNL     1      18.133   2.805  10.096  0.00  0.00    +0.000 C 
ATOM      7  O2  UNL     1      18.674   2.359  11.097  0.00  0.00    +0.000 OA
ATOM      8  H1  UNL     1      17.009   1.149   9.456  0.00  0.00    +0.000 HD
ATOM      9  H2  UNL     1      17.003   4.899   7.871  0.00  0.00    +0.000 HD
ENDROOT
BRANCH   5  10
ATOM     10  C4  UNL     1      19.685   4.611   9.149  0.00  0.00    +0.000 C 
ATOM     11  C5  UNL     1      20.605   4.975  10.328  0.00  0.00    +0.000 C 
ATOM     12  C6  UNL     1      20.067   5.941  11.383  0.00  0.00    +0.000 C 
ATOM     13  C7  UNL     1      19.377   7.218  10.910  0.00  0.00    +0.000 C 
ATOM     14  C8  UNL     1      19.821   7.765   9.560  0.00  0.00    +0.000 C 
ATOM     15  C9  UNL     1      19.165   7.051   8.381  0.00  0.00    +0.000 C 
ATOM     16  C10 UNL     1      19.761   5.688   8.048  0.00  0.00    +0.000 C 
ENDBRANCH   5  10
TORSDOF 1
ENDMDL
MODEL 3
REMARK VINA RESULT:    -4.659     16.332     17.496
REMARK INTER + INTRA:          -5.056
REMARK INTER:                  -4.949
REMARK INTRA:                  -0.107
REMARK UNBOUND:                -0.125
REMARK  Name = /home/anacleto/Desktop/manuscript_Mpro/naturecomm/supplementary_file_S2/6-chemical-library/molecular_docking/3D_ligand_structure/903.pdb
REMARK  1 active torsions:
REMARK  status: ('A' for Active; 'I' for Inactive)
REMARK    1  A    between atoms: C2_5  and  C4_8
REMARK                            x       y       z     vdW  Elec       q    Type
REMARK                         _______ _______ _______ _____ _____    ______ ____
ROOT
ATOM      1  N1  UNL     1      15.429  14.575  -2.314  0.00  0.00    +0.000 N 
ATOM      2  C1  UNL     1      14.174  14.726  -2.787  0.00  0.00    +0.000 C 
ATOM      3  O1  UNL     1      13.317  15.468  -2.341  0.00  0.00    +0.000 OA
ATOM      4  N2  UNL     1      14.024  13.923  -3.890  0.00  0.00    +0.000 N 
ATOM      5  C2  UNL     1      15.258  13.267  -4.271  0.00  0.00    +0.000 C 
ATOM      6  C3  UNL     1      16.164  13.786  -3.142  0.00  0.00    +0.000 C 
ATOM      7  O2  UNL     1      17.356  13.556  -3.004  0.00  0.00    +0.000 OA
ATOM      8  H1  UNL     1      15.801  15.088  -1.533  0.00  0.00    +0.000 HD
ATOM      9  H2  UNL     1      13.193  13.996  -4.462  0.00  0.00    +0.000 HD
ENDROOT
BRANCH   5  10
ATOM     10  C4  UNL     1      15.133  11.735  -4.281  0.00  0.00    +0.000 C 
ATOM     11  C5  UNL     1      16.261  11.013  -5.040  0.00  0.00    +0.000 C 
ATOM     12  C6  UNL     1      16.647  11.542  -6.420  0.00  0.00    +0.000 C 
ATOM     13  C7  UNL     1      15.531  11.851  -7.415  0.00  0.00    +0.000 C 
ATOM     14  C8  UNL     1      14.247  11.047  -7.260  0.00  0.00    +0.000 C 
ATOM     15  C9  UNL     1      13.332  11.587  -6.164  0.00  0.00    +0.000 C 
ATOM     16  C10 UNL     1      13.754  11.225  -4.745  0.00  0.00    +0.000 C 
ENDBRANCH   5  10
TORSDOF 1
ENDMDL
MODEL 4
REMARK VINA RESULT:    -4.622      2.056      2.665
REMARK INTER + INTRA:          -5.018
REMARK INTER:                  -4.894
REMARK INTRA:                  -0.124
REMARK UNBOUND:                -0.125
REMARK  Name = /home/anacleto/Desktop/manuscript_Mpro/naturecomm/supplementary_file_S2/6-chemical-library/molecular_docking/3D_ligand_structure/903.pdb
REMARK  1 active torsions:
REMARK  status: ('A' for Active; 'I' for Inactive)
REMARK    1  A    between atoms: C2_5  and  C4_8
REMARK                            x       y       z     vdW  Elec       q    Type
REMARK                         _______ _______ _______ _____ _____    ______ ____
ROOT
ATOM      1  N1  UNL     1      22.840   6.576  13.416  0.00  0.00    +0.000 N 
ATOM      2  C1  UNL     1      22.749   7.808  12.871  0.00  0.00    +0.000 C 
ATOM      3  O1  UNL     1      23.258   8.828  13.300  0.00  0.00    +0.000 OA
ATOM      4  N2  UNL     1      22.010   7.720  11.717  0.00  0.00    +0.000 N 
ATOM      5  C2  UNL     1      21.662   6.355  11.383  0.00  0.00    +0.000 C 
ATOM      6  C3  UNL     1      22.286   5.645  12.596  0.00  0.00    +0.000 C 
ATOM      7  O2  UNL     1      22.309   4.440  12.799  0.00  0.00    +0.000 OA
ATOM      8  H1  UNL     1      23.366   6.366  14.247  0.00  0.00    +0.000 HD
ATOM      9  H2  UNL     1      21.941   8.517  11.098  0.00  0.00    +0.000 HD
ENDROOT
BRANCH   5  10
ATOM     10  C4  UNL     1      20.144   6.141  11.280  0.00  0.00    +0.000 C 
ATOM     11  C5  UNL     1      19.735   4.807  10.628  0.00  0.00    +0.000 C 
ATOM     12  C6  UNL     1      20.437   4.399   9.334  0.00  0.00    +0.000 C 
ATOM     13  C7  UNL     1      20.579   5.441   8.227  0.00  0.00    +0.000 C 
ATOM     14  C8  UNL     1      19.512   6.528   8.184  0.00  0.00    +0.000 C 
ATOM     15  C9  UNL     1      19.762   7.652   9.186  0.00  0.00    +0.000 C 
ATOM     16  C10 UNL     1      19.392   7.317  10.626  0.00  0.00    +0.000 C 
ENDBRANCH   5  10
TORSDOF 1
ENDMDL
MODEL 5
REMARK VINA RESULT:    -4.609     15.336     16.618
REMARK INTER + INTRA:          -5.003
REMARK INTER:                  -4.895
REMARK INTRA:                  -0.108
REMARK UNBOUND:                -0.125
REMARK  Name = /home/anacleto/Desktop/manuscript_Mpro/naturecomm/supplementary_file_S2/6-chemical-library/molecular_docking/3D_ligand_structure/903.pdb
REMARK  1 active torsions:
REMARK  status: ('A' for Active; 'I' for Inactive)
REMARK    1  A    between atoms: C2_5  and  C4_8
REMARK                            x       y       z     vdW  Elec       q    Type
REMARK                         _______ _______ _______ _____ _____    ______ ____
ROOT
ATOM      1  N1  UNL     1      13.516  12.450  -5.407  0.00  0.00    +0.000 N 
ATOM      2  C1  UNL     1      13.838  11.150  -5.575  0.00  0.00    +0.000 C 
ATOM      3  O1  UNL     1      13.294  10.362  -6.328  0.00  0.00    +0.000 OA
ATOM      4  N2  UNL     1      14.916  10.861  -4.776  0.00  0.00    +0.000 N 
ATOM      5  C2  UNL     1      15.439  12.032  -4.104  0.00  0.00    +0.000 C 
ATOM      6  C3  UNL     1      14.425  13.071  -4.609  0.00  0.00    +0.000 C 
ATOM      7  O2  UNL     1      14.428  14.268  -4.363  0.00  0.00    +0.000 OA
ATOM      8  H1  UNL     1      12.784  12.919  -5.913  0.00  0.00    +0.000 HD
ATOM      9  H2  UNL     1      15.385   9.968  -4.861  0.00  0.00    +0.000 HD
ENDROOT
BRANCH   5  10
ATOM     10  C4  UNL     1      15.434  11.886  -2.574  0.00  0.00    +0.000 C 
ATOM     11  C5  UNL     1      16.009  13.099  -1.820  0.00  0.00    +0.000 C 
ATOM     12  C6  UNL     1      17.332  13.684  -2.312  0.00  0.00    +0.000 C 
ATOM     13  C7  UNL     1      18.482  12.726  -2.612  0.00  0.00    +0.000 C 
ATOM     14  C8  UNL     1      18.493  11.421  -1.828  0.00  0.00    +0.000 C 
ATOM     15  C9  UNL     1      17.550  10.368  -2.404  0.00  0.00    +0.000 C 
ATOM     16  C10 UNL     1      16.078  10.579  -2.071  0.00  0.00    +0.000 C 
ENDBRANCH   5  10
TORSDOF 1
ENDMDL
MODEL 6
REMARK VINA RESULT:    -4.596     18.268     19.474
REMARK INTER + INTRA:          -4.990
REMARK INTER:                  -4.859
REMARK INTRA:                  -0.130
REMARK UNBOUND:                -0.125
REMARK  Name = /home/anacleto/Desktop/manuscript_Mpro/naturecomm/supplementary_file_S2/6-chemical-library/molecular_docking/3D_ligand_structure/903.pdb
REMARK  1 active torsions:
REMARK  status: ('A' for Active; 'I' for Inactive)
REMARK    1  A    between atoms: C2_5  and  C4_8
REMARK                            x       y       z     vdW  Elec       q    Type
REMARK                         _______ _______ _______ _____ _____    ______ ____
ROOT
ATOM      1  N1  UNL     1      12.970  11.022  -6.196  0.00  0.00    +0.000 N 
ATOM      2  C1  UNL     1      13.372  10.465  -7.359  0.00  0.00    +0.000 C 
ATOM      3  O1  UNL     1      12.776   9.617  -7.998  0.00  0.00    +0.000 OA
ATOM      4  N2  UNL     1      14.560  11.042  -7.730  0.00  0.00    +0.000 N 
ATOM      5  C2  UNL     1      14.952  12.124  -6.850  0.00  0.00    +0.000 C 
ATOM      6  C3  UNL     1      13.795  12.042  -5.841  0.00  0.00    +0.000 C 
ATOM      7  O2  UNL     1      13.615  12.778  -4.882  0.00  0.00    +0.000 OA
ATOM      8  H1  UNL     1      12.105  10.798  -5.735  0.00  0.00    +0.000 HD
ATOM      9  H2  UNL     1      14.955  10.849  -8.642  0.00  0.00    +0.000 HD
ENDROOT
BRANCH   5  10
ATOM     10  C4  UNL     1      16.327  11.891  -6.204  0.00  0.00    +0.000 C 
ATOM     11  C5  UNL     1      16.907  13.124  -5.488  0.00  0.00    +0.000 C 
ATOM     12  C6  UNL     1      16.864  14.463  -6.222  0.00  0.00    +0.000 C 
ATOM     13  C7  UNL     1      17.320  14.505  -7.678  0.00  0.00    +0.000 C 
ATOM     14  C8  UNL     1      18.350  13.463  -8.093  0.00  0.00    +0.000 C 
ATOM     15  C9  UNL     1      17.734  12.099  -8.393  0.00  0.00    +0.000 C 
ATOM     16  C10 UNL     1      17.370  11.279  -7.161  0.00  0.00    +0.000 C 
ENDBRANCH   5  10
TORSDOF 1
ENDMDL
MODEL 7
REMARK VINA RESULT:    -4.559     15.595     16.683
REMARK INTER + INTRA:          -4.950
REMARK INTER:                  -4.957
REMARK INTRA:                   0.007
REMARK UNBOUND:                -0.125
REMARK  Name = /home/anacleto/Desktop/manuscript_Mpro/naturecomm/supplementary_file_S2/6-chemical-library/molecular_docking/3D_ligand_structure/903.pdb
REMARK  1 active torsions:
REMARK  status: ('A' for Active; 'I' for Inactive)
REMARK    1  A    between atoms: C2_5  and  C4_8
REMARK                            x       y       z     vdW  Elec       q    Type
REMARK                         _______ _______ _______ _____ _____    ______ ____
ROOT
ATOM      1  N1  UNL     1      17.204  10.615  -2.044  0.00  0.00    +0.000 N 
ATOM      2  C1  UNL     1      17.749  10.007  -3.120  0.00  0.00    +0.000 C 
ATOM      3  O1  UNL     1      18.748   9.311  -3.127  0.00  0.00    +0.000 OA
ATOM      4  N2  UNL     1      16.966  10.274  -4.215  0.00  0.00    +0.000 N 
ATOM      5  C2  UNL     1      15.764  11.007  -3.873  0.00  0.00    +0.000 C 
ATOM      6  C3  UNL     1      16.010  11.181  -2.366  0.00  0.00    +0.000 C 
ATOM      7  O2  UNL     1      15.259  11.718  -1.565  0.00  0.00    +0.000 OA
ATOM      8  H1  UNL     1      17.568  10.539  -1.111  0.00  0.00    +0.000 HD
ATOM      9  H2  UNL     1      17.139   9.798  -5.091  0.00  0.00    +0.000 HD
ENDROOT
BRANCH   5  10
ATOM     10  C4  UNL     1      15.656  12.345  -4.621  0.00  0.00    +0.000 C 
ATOM     11  C5  UNL     1      14.212  12.834  -4.840  0.00  0.00    +0.000 C 
ATOM     12  C6  UNL     1      13.190  11.828  -5.364  0.00  0.00    +0.000 C 
ATOM     13  C7  UNL     1      13.578  10.954  -6.554  0.00  0.00    +0.000 C 
ATOM     14  C8  UNL     1      14.604  11.539  -7.514  0.00  0.00    +0.000 C 
ATOM     15  C9  UNL     1      16.041  11.391  -7.019  0.00  0.00    +0.000 C 
ATOM     16  C10 UNL     1      16.450  12.388  -5.941  0.00  0.00    +0.000 C 
ENDBRANCH   5  10
TORSDOF 1
ENDMDL
MODEL 8
REMARK VINA RESULT:    -4.355     15.110     16.210
REMARK INTER + INTRA:          -4.734
REMARK INTER:                  -4.609
REMARK INTRA:                  -0.125
REMARK UNBOUND:                -0.125
REMARK  Name = /home/anacleto/Desktop/manuscript_Mpro/naturecomm/supplementary_file_S2/6-chemical-library/molecular_docking/3D_ligand_structure/903.pdb
REMARK  1 active torsions:
REMARK  status: ('A' for Active; 'I' for Inactive)
REMARK    1  A    between atoms: C2_5  and  C4_8
REMARK                            x       y       z     vdW  Elec       q    Type
REMARK                         _______ _______ _______ _____ _____    ______ ____
ROOT
ATOM      1  N1  UNL     1      13.064  15.620  -2.790  0.00  0.00    +0.000 N 
ATOM      2  C1  UNL     1      13.046  16.286  -1.615  0.00  0.00    +0.000 C 
ATOM      3  O1  UNL     1      12.110  16.914  -1.155  0.00  0.00    +0.000 OA
ATOM      4  N2  UNL     1      14.258  16.110  -0.996  0.00  0.00    +0.000 N 
ATOM      5  C2  UNL     1      15.121  15.195  -1.714  0.00  0.00    +0.000 C 
ATOM      6  C3  UNL     1      14.211  14.903  -2.918  0.00  0.00    +0.000 C 
ATOM      7  O2  UNL     1      14.452  14.138  -3.841  0.00  0.00    +0.000 OA
ATOM      8  H1  UNL     1      12.278  15.560  -3.414  0.00  0.00    +0.000 HD
ATOM      9  H2  UNL     1      14.392  16.426  -0.044  0.00  0.00    +0.000 HD
ENDROOT
BRANCH   5  10
ATOM     10  C4  UNL     1      16.459  15.837  -2.116  0.00  0.00    +0.000 C 
ATOM     11  C5  UNL     1      17.444  14.871  -2.799  0.00  0.00    +0.000 C 
ATOM     12  C6  UNL     1      17.662  13.501  -2.160  0.00  0.00    +0.000 C 
ATOM     13  C7  UNL     1      17.904  13.435  -0.654  0.00  0.00    +0.000 C 
ATOM     14  C8  UNL     1      18.546  14.662  -0.020  0.00  0.00    +0.000 C 
ATOM     15  C9  UNL     1      17.549  15.785   0.255  0.00  0.00    +0.000 C 
ATOM     16  C10 UNL     1      17.153  16.600  -0.970  0.00  0.00    +0.000 C 
ENDBRANCH   5  10
TORSDOF 1
ENDMDL
MODEL 9
REMARK VINA RESULT:    -4.344     16.123     17.312
REMARK INTER + INTRA:          -4.723
REMARK INTER:                  -4.595
REMARK INTRA:                  -0.128
REMARK UNBOUND:                -0.125
REMARK  Name = /home/anacleto/Desktop/manuscript_Mpro/naturecomm/supplementary_file_S2/6-chemical-library/molecular_docking/3D_ligand_structure/903.pdb
REMARK  1 active torsions:
REMARK  status: ('A' for Active; 'I' for Inactive)
REMARK    1  A    between atoms: C2_5  and  C4_8
REMARK                            x       y       z     vdW  Elec       q    Type
REMARK                         _______ _______ _______ _____ _____    ______ ____
ROOT
ATOM      1  N1  UNL     1      14.216  10.579  -3.929  0.00  0.00    +0.000 N 
ATOM      2  C1  UNL     1      13.939  10.998  -5.183  0.00  0.00    +0.000 C 
ATOM      3  O1  UNL     1      12.843  11.014  -5.713  0.00  0.00    +0.000 OA
ATOM      4  N2  UNL     1      15.102  11.442  -5.761  0.00  0.00    +0.000 N 
ATOM      5  C2  UNL     1      16.218  11.437  -4.838  0.00  0.00    +0.000 C 
ATOM      6  C3  UNL     1      15.510  10.844  -3.609  0.00  0.00    +0.000 C 
ATOM      7  O2  UNL     1      16.006  10.653  -2.508  0.00  0.00    +0.000 OA
ATOM      8  H1  UNL     1      13.524  10.244  -3.282  0.00  0.00    +0.000 HD
ATOM      9  H2  UNL     1      15.075  11.916  -6.654  0.00  0.00    +0.000 HD
ENDROOT
BRANCH   5  10
ATOM     10  C4  UNL     1      17.388  10.570  -5.331  0.00  0.00    +0.000 C 
ATOM     11  C5  UNL     1      18.634  10.614  -4.428  0.00  0.00    +0.000 C 
ATOM     12  C6  UNL     1      19.125  11.981  -3.954  0.00  0.00    +0.000 C 
ATOM     13  C7  UNL     1      19.246  13.103  -4.981  0.00  0.00    +0.000 C 
ATOM     14  C8  UNL     1      19.513  12.676  -6.418  0.00  0.00    +0.000 C 
ATOM     15  C9  UNL     1      18.252  12.227  -7.153  0.00  0.00    +0.000 C 
ATOM     16  C10 UNL     1      17.775  10.823  -6.802  0.00  0.00    +0.000 C 
ENDBRANCH   5  10
TORSDOF 1
ENDMDL
