MODEL 1
REMARK VINA RESULT:    -4.888      0.000      0.000
REMARK INTER + INTRA:          -6.660
REMARK INTER:                  -6.342
REMARK INTRA:                  -0.318
REMARK UNBOUND:                -0.343
REMARK  Name = /home/anacleto/Desktop/manuscript_Mpro/naturecomm/supplementary_file_S2/6-chemical-library/molecular_docking/3D_ligand_structure/642.pdb
REMARK  5 active torsions:
REMARK  status: ('A' for Active; 'I' for Inactive)
REMARK    1  A    between atoms: C4_5  and  C5_6
REMARK    2  A    between atoms: C5_6  and  O2_7
REMARK    3  A    between atoms: O2_7  and  P1_8
REMARK    4  A    between atoms: P1_8  and  O4_10
REMARK    5  A    between atoms: O4_10  and  C6_11
REMARK                            x       y       z     vdW  Elec       q    Type
REMARK                         _______ _______ _______ _____ _____    ______ ____
ROOT
ATOM      1  P1  UNL     1      15.956  12.843  -2.194  0.00  0.00    +0.000 P 
ATOM      2  O3  UNL     1      17.094  12.779  -1.210  0.00  0.00    +0.000 OA
ATOM      3  H10 UNL     1      14.687  12.283  -1.941  0.00  0.00    +0.000 HD
ENDROOT
BRANCH   1   4
ATOM      4  O2  UNL     1      15.616  14.379  -2.594  0.00  0.00    +0.000 OA
BRANCH   4   5
ATOM      5  C5  UNL     1      14.248  14.693  -2.817  0.00  0.00    +0.000 C 
BRANCH   5  10
ATOM      6  O1  UNL     1      13.994  17.057  -2.279  0.00  0.00    +0.000 OA
ATOM      7  C1  UNL     1      12.847  17.853  -1.944  0.00  0.00    +0.000 C 
ATOM      8  C2  UNL     1      11.991  17.023  -1.010  0.00  0.00    +0.000 C 
ATOM      9  C3  UNL     1      12.294  15.620  -1.472  0.00  0.00    +0.000 C 
ATOM     10  C4  UNL     1      13.777  15.720  -1.795  0.00  0.00    +0.000 C 
ENDBRANCH   5  10
ENDBRANCH   4   5
ENDBRANCH   1   4
BRANCH   1  11
ATOM     11  O4  UNL     1      16.356  12.248  -3.647  0.00  0.00    +0.000 OA
BRANCH  11  12
ATOM     12  C6  UNL     1      15.429  11.853  -4.568  0.00  0.00    +0.000 A 
ATOM     13  C7  UNL     1      15.542  12.421  -5.838  0.00  0.00    +0.000 A 
ATOM     14  C8  UNL     1      14.632  12.082  -6.840  0.00  0.00    +0.000 A 
ATOM     15  C9  UNL     1      13.614  11.169  -6.575  0.00  0.00    +0.000 A 
ATOM     16  C10 UNL     1      13.510  10.590  -5.310  0.00  0.00    +0.000 A 
ATOM     17  C11 UNL     1      14.419  10.930  -4.304  0.00  0.00    +0.000 A 
ENDBRANCH  11  12
ENDBRANCH   1  11
TORSDOF 5
ENDMDL
MODEL 2
REMARK VINA RESULT:    -4.845     15.336     17.101
REMARK INTER + INTRA:          -6.604
REMARK INTER:                  -6.253
REMARK INTRA:                  -0.351
REMARK UNBOUND:                -0.343
REMARK  Name = /home/anacleto/Desktop/manuscript_Mpro/naturecomm/supplementary_file_S2/6-chemical-library/molecular_docking/3D_ligand_structure/642.pdb
REMARK  5 active torsions:
REMARK  status: ('A' for Active; 'I' for Inactive)
REMARK    1  A    between atoms: C4_5  and  C5_6
REMARK    2  A    between atoms: C5_6  and  O2_7
REMARK    3  A    between atoms: O2_7  and  P1_8
REMARK    4  A    between atoms: P1_8  and  O4_10
REMARK    5  A    between atoms: O4_10  and  C6_11
REMARK                            x       y       z     vdW  Elec       q    Type
REMARK                         _______ _______ _______ _____ _____    ______ ____
ROOT
ATOM      1  P1  UNL     1      17.695   3.521   9.579  0.00  0.00    +0.000 P 
ATOM      2  O3  UNL     1      17.578   4.060  10.980  0.00  0.00    +0.000 OA
ATOM      3  H10 UNL     1      18.487   2.401   9.248  0.00  0.00    +0.000 HD
ENDROOT
BRANCH   1   4
ATOM      4  O2  UNL     1      16.237   3.139   8.977  0.00  0.00    +0.000 OA
BRANCH   4   5
ATOM      5  C5  UNL     1      16.215   2.526   7.696  0.00  0.00    +0.000 C 
BRANCH   5  10
ATOM      6  O1  UNL     1      15.941   0.241   8.501  0.00  0.00    +0.000 OA
ATOM      7  C1  UNL     1      14.929  -0.385   9.304  0.00  0.00    +0.000 C 
ATOM      8  C2  UNL     1      13.595   0.149   8.827  0.00  0.00    +0.000 C 
ATOM      9  C3  UNL     1      13.963   1.533   8.356  0.00  0.00    +0.000 C 
ATOM     10  C4  UNL     1      15.327   1.287   7.729  0.00  0.00    +0.000 C 
ENDBRANCH   5  10
ENDBRANCH   4   5
ENDBRANCH   1   4
BRANCH   1  11
ATOM     11  O4  UNL     1      18.161   4.649   8.514  0.00  0.00    +0.000 OA
BRANCH  11  12
ATOM     12  C6  UNL     1      19.200   5.504   8.746  0.00  0.00    +0.000 A 
ATOM     13  C7  UNL     1      18.904   6.866   8.673  0.00  0.00    +0.000 A 
ATOM     14  C8  UNL     1      19.906   7.813   8.887  0.00  0.00    +0.000 A 
ATOM     15  C9  UNL     1      21.203   7.399   9.182  0.00  0.00    +0.000 A 
ATOM     16  C10 UNL     1      21.495   6.037   9.269  0.00  0.00    +0.000 A 
ATOM     17  C11 UNL     1      20.494   5.087   9.053  0.00  0.00    +0.000 A 
ENDBRANCH  11  12
ENDBRANCH   1  11
TORSDOF 5
ENDMDL
MODEL 3
REMARK VINA RESULT:    -4.775     16.306     17.465
REMARK INTER + INTRA:          -6.513
REMARK INTER:                  -5.394
REMARK INTRA:                  -1.120
REMARK UNBOUND:                -0.343
REMARK  Name = /home/anacleto/Desktop/manuscript_Mpro/naturecomm/supplementary_file_S2/6-chemical-library/molecular_docking/3D_ligand_structure/642.pdb
REMARK  5 active torsions:
REMARK  status: ('A' for Active; 'I' for Inactive)
REMARK    1  A    between atoms: C4_5  and  C5_6
REMARK    2  A    between atoms: C5_6  and  O2_7
REMARK    3  A    between atoms: O2_7  and  P1_8
REMARK    4  A    between atoms: P1_8  and  O4_10
REMARK    5  A    between atoms: O4_10  and  C6_11
REMARK                            x       y       z     vdW  Elec       q    Type
REMARK                         _______ _______ _______ _____ _____    ______ ____
ROOT
ATOM      1  P1  UNL     1      22.710   4.257  10.684  0.00  0.00    +0.000 P 
ATOM      2  O3  UNL     1      24.124   3.951  11.100  0.00  0.00    +0.000 OA
ATOM      3  H10 UNL     1      21.809   3.271  10.230  0.00  0.00    +0.000 HD
ENDROOT
BRANCH   1   4
ATOM      4  O2  UNL     1      21.894   4.985  11.883  0.00  0.00    +0.000 OA
BRANCH   4   5
ATOM      5  C5  UNL     1      20.700   4.351  12.321  0.00  0.00    +0.000 C 
BRANCH   5  10
ATOM      6  O1  UNL     1      20.413   6.599  13.219  0.00  0.00    +0.000 OA
ATOM      7  C1  UNL     1      19.633   7.722  12.779  0.00  0.00    +0.000 C 
ATOM      8  C2  UNL     1      18.294   7.179  12.327  0.00  0.00    +0.000 C 
ATOM      9  C3  UNL     1      18.664   5.803  11.836  0.00  0.00    +0.000 C 
ATOM     10  C4  UNL     1      19.722   5.393  12.850  0.00  0.00    +0.000 C 
ENDBRANCH   5  10
ENDBRANCH   4   5
ENDBRANCH   1   4
BRANCH   1  11
ATOM     11  O4  UNL     1      22.631   5.404   9.543  0.00  0.00    +0.000 OA
BRANCH  11  12
ATOM     12  C6  UNL     1      21.462   6.008   9.177  0.00  0.00    +0.000 A 
ATOM     13  C7  UNL     1      20.485   5.175   8.629  0.00  0.00    +0.000 A 
ATOM     14  C8  UNL     1      19.261   5.705   8.219  0.00  0.00    +0.000 A 
ATOM     15  C9  UNL     1      19.010   7.068   8.364  0.00  0.00    +0.000 A 
ATOM     16  C10 UNL     1      19.982   7.898   8.926  0.00  0.00    +0.000 A 
ATOM     17  C11 UNL     1      21.208   7.369   9.336  0.00  0.00    +0.000 A 
ENDBRANCH  11  12
ENDBRANCH   1  11
TORSDOF 5
ENDMDL
MODEL 4
REMARK VINA RESULT:    -4.727      3.269      6.077
REMARK INTER + INTRA:          -6.452
REMARK INTER:                  -6.095
REMARK INTRA:                  -0.357
REMARK UNBOUND:                -0.343
REMARK  Name = /home/anacleto/Desktop/manuscript_Mpro/naturecomm/supplementary_file_S2/6-chemical-library/molecular_docking/3D_ligand_structure/642.pdb
REMARK  5 active torsions:
REMARK  status: ('A' for Active; 'I' for Inactive)
REMARK    1  A    between atoms: C4_5  and  C5_6
REMARK    2  A    between atoms: C5_6  and  O2_7
REMARK    3  A    between atoms: O2_7  and  P1_8
REMARK    4  A    between atoms: P1_8  and  O4_10
REMARK    5  A    between atoms: O4_10  and  C6_11
REMARK                            x       y       z     vdW  Elec       q    Type
REMARK                         _______ _______ _______ _____ _____    ______ ____
ROOT
ATOM      1  P1  UNL     1      16.516  11.447  -2.776  0.00  0.00    +0.000 P 
ATOM      2  O3  UNL     1      16.962  10.009  -2.786  0.00  0.00    +0.000 OA
ATOM      3  H10 UNL     1      17.169  12.462  -3.506  0.00  0.00    +0.000 HD
ENDROOT
BRANCH   1   4
ATOM      4  O2  UNL     1      14.969  11.582  -3.249  0.00  0.00    +0.000 OA
BRANCH   4   5
ATOM      5  C5  UNL     1      14.617  12.764  -3.955  0.00  0.00    +0.000 C 
BRANCH   5  10
ATOM      6  O1  UNL     1      14.728  12.554  -6.381  0.00  0.00    +0.000 OA
ATOM      7  C1  UNL     1      14.503  11.445  -7.266  0.00  0.00    +0.000 C 
ATOM      8  C2  UNL     1      13.289  10.704  -6.746  0.00  0.00    +0.000 C 
ATOM      9  C3  UNL     1      13.377  10.963  -5.263  0.00  0.00    +0.000 C 
ATOM     10  C4  UNL     1      13.873  12.401  -5.235  0.00  0.00    +0.000 C 
ENDBRANCH   5  10
ENDBRANCH   4   5
ENDBRANCH   1   4
BRANCH   1  11
ATOM     11  O4  UNL     1      16.414  12.057  -1.278  0.00  0.00    +0.000 OA
BRANCH  11  12
ATOM     12  C6  UNL     1      17.261  13.019  -0.810  0.00  0.00    +0.000 A 
ATOM     13  C7  UNL     1      18.605  12.657  -0.704  0.00  0.00    +0.000 A 
ATOM     14  C8  UNL     1      19.543  13.573  -0.227  0.00  0.00    +0.000 A 
ATOM     15  C9  UNL     1      19.138  14.856   0.138  0.00  0.00    +0.000 A 
ATOM     16  C10 UNL     1      17.797  15.222   0.018  0.00  0.00    +0.000 A 
ATOM     17  C11 UNL     1      16.857  14.305  -0.458  0.00  0.00    +0.000 A 
ENDBRANCH  11  12
ENDBRANCH   1  11
TORSDOF 5
ENDMDL
MODEL 5
REMARK VINA RESULT:    -4.718      3.169      4.914
REMARK INTER + INTRA:          -6.440
REMARK INTER:                  -6.034
REMARK INTRA:                  -0.406
REMARK UNBOUND:                -0.343
REMARK  Name = /home/anacleto/Desktop/manuscript_Mpro/naturecomm/supplementary_file_S2/6-chemical-library/molecular_docking/3D_ligand_structure/642.pdb
REMARK  5 active torsions:
REMARK  status: ('A' for Active; 'I' for Inactive)
REMARK    1  A    between atoms: C4_5  and  C5_6
REMARK    2  A    between atoms: C5_6  and  O2_7
REMARK    3  A    between atoms: O2_7  and  P1_8
REMARK    4  A    between atoms: P1_8  and  O4_10
REMARK    5  A    between atoms: O4_10  and  C6_11
REMARK                            x       y       z     vdW  Elec       q    Type
REMARK                         _______ _______ _______ _____ _____    ______ ____
ROOT
ATOM      1  P1  UNL     1      16.029  12.705  -2.391  0.00  0.00    +0.000 P 
ATOM      2  O3  UNL     1      15.835  11.288  -2.862  0.00  0.00    +0.000 OA
ATOM      3  H10 UNL     1      16.859  13.631  -3.056  0.00  0.00    +0.000 HD
ENDROOT
BRANCH   1   4
ATOM      4  O2  UNL     1      14.608  13.483  -2.285  0.00  0.00    +0.000 OA
BRANCH   4   5
ATOM      5  C5  UNL     1      14.554  14.791  -2.837  0.00  0.00    +0.000 C 
BRANCH   5  10
ATOM      6  O1  UNL     1      14.120  17.114  -2.237  0.00  0.00    +0.000 OA
ATOM      7  C1  UNL     1      12.903  17.845  -2.023  0.00  0.00    +0.000 C 
ATOM      8  C2  UNL     1      11.974  16.937  -1.246  0.00  0.00    +0.000 C 
ATOM      9  C3  UNL     1      12.399  15.571  -1.723  0.00  0.00    +0.000 C 
ATOM     10  C4  UNL     1      13.906  15.748  -1.843  0.00  0.00    +0.000 C 
ENDBRANCH   5  10
ENDBRANCH   4   5
ENDBRANCH   1   4
BRANCH   1  11
ATOM     11  O4  UNL     1      16.519  12.787  -0.849  0.00  0.00    +0.000 OA
BRANCH  11  12
ATOM     12  C6  UNL     1      17.468  13.669  -0.419  0.00  0.00    +0.000 A 
ATOM     13  C7  UNL     1      17.005  14.923  -0.018  0.00  0.00    +0.000 A 
ATOM     14  C8  UNL     1      17.904  15.892   0.429  0.00  0.00    +0.000 A 
ATOM     15  C9  UNL     1      19.267  15.604   0.483  0.00  0.00    +0.000 A 
ATOM     16  C10 UNL     1      19.727  14.345   0.095  0.00  0.00    +0.000 A 
ATOM     17  C11 UNL     1      18.828  13.375  -0.354  0.00  0.00    +0.000 A 
ENDBRANCH  11  12
ENDBRANCH   1  11
TORSDOF 5
ENDMDL
MODEL 6
REMARK VINA RESULT:    -4.622      3.260      4.001
REMARK INTER + INTRA:          -6.316
REMARK INTER:                  -5.923
REMARK INTRA:                  -0.393
REMARK UNBOUND:                -0.343
REMARK  Name = /home/anacleto/Desktop/manuscript_Mpro/naturecomm/supplementary_file_S2/6-chemical-library/molecular_docking/3D_ligand_structure/642.pdb
REMARK  5 active torsions:
REMARK  status: ('A' for Active; 'I' for Inactive)
REMARK    1  A    between atoms: C4_5  and  C5_6
REMARK    2  A    between atoms: C5_6  and  O2_7
REMARK    3  A    between atoms: O2_7  and  P1_8
REMARK    4  A    between atoms: P1_8  and  O4_10
REMARK    5  A    between atoms: O4_10  and  C6_11
REMARK                            x       y       z     vdW  Elec       q    Type
REMARK                         _______ _______ _______ _____ _____    ______ ____
ROOT
ATOM      1  P1  UNL     1      16.087  10.975  -2.181  0.00  0.00    +0.000 P 
ATOM      2  O3  UNL     1      17.031  10.249  -3.103  0.00  0.00    +0.000 OA
ATOM      3  H10 UNL     1      15.305  10.320  -1.207  0.00  0.00    +0.000 HD
ENDROOT
BRANCH   1   4
ATOM      4  O2  UNL     1      16.867  12.116  -1.330  0.00  0.00    +0.000 OA
BRANCH   4   5
ATOM      5  C5  UNL     1      17.052  13.373  -1.966  0.00  0.00    +0.000 C 
BRANCH   5  10
ATOM      6  O1  UNL     1      18.088  15.287  -0.866  0.00  0.00    +0.000 OA
ATOM      7  C1  UNL     1      18.908  15.399   0.307  0.00  0.00    +0.000 C 
ATOM      8  C2  UNL     1      19.882  14.240   0.277  0.00  0.00    +0.000 C 
ATOM      9  C3  UNL     1      19.088  13.182  -0.446  0.00  0.00    +0.000 C 
ATOM     10  C4  UNL     1      18.348  14.014  -1.483  0.00  0.00    +0.000 C 
ENDBRANCH   5  10
ENDBRANCH   4   5
ENDBRANCH   1   4
BRANCH   1  11
ATOM     11  O4  UNL     1      15.018  11.891  -2.981  0.00  0.00    +0.000 OA
BRANCH  11  12
ATOM     12  C6  UNL     1      14.708  11.693  -4.296  0.00  0.00    +0.000 A 
ATOM     13  C7  UNL     1      15.357  12.524  -5.212  0.00  0.00    +0.000 A 
ATOM     14  C8  UNL     1      15.096  12.399  -6.577  0.00  0.00    +0.000 A 
ATOM     15  C9  UNL     1      14.193  11.438  -7.027  0.00  0.00    +0.000 A 
ATOM     16  C10 UNL     1      13.556  10.599  -6.112  0.00  0.00    +0.000 A 
ATOM     17  C11 UNL     1      13.814  10.724  -4.745  0.00  0.00    +0.000 A 
ENDBRANCH  11  12
ENDBRANCH   1  11
TORSDOF 5
ENDMDL
MODEL 7
REMARK VINA RESULT:    -4.599      1.617      2.601
REMARK INTER + INTRA:          -6.287
REMARK INTER:                  -5.813
REMARK INTRA:                  -0.474
REMARK UNBOUND:                -0.343
REMARK  Name = /home/anacleto/Desktop/manuscript_Mpro/naturecomm/supplementary_file_S2/6-chemical-library/molecular_docking/3D_ligand_structure/642.pdb
REMARK  5 active torsions:
REMARK  status: ('A' for Active; 'I' for Inactive)
REMARK    1  A    between atoms: C4_5  and  C5_6
REMARK    2  A    between atoms: C5_6  and  O2_7
REMARK    3  A    between atoms: O2_7  and  P1_8
REMARK    4  A    between atoms: P1_8  and  O4_10
REMARK    5  A    between atoms: O4_10  and  C6_11
REMARK                            x       y       z     vdW  Elec       q    Type
REMARK                         _______ _______ _______ _____ _____    ______ ____
ROOT
ATOM      1  P1  UNL     1      16.959  11.026  -2.894  0.00  0.00    +0.000 P 
ATOM      2  O3  UNL     1      17.963   9.907  -2.816  0.00  0.00    +0.000 OA
ATOM      3  H10 UNL     1      15.635  10.908  -2.422  0.00  0.00    +0.000 HD
ENDROOT
BRANCH   1   4
ATOM      4  O2  UNL     1      17.507  12.355  -2.140  0.00  0.00    +0.000 OA
BRANCH   4   5
ATOM      5  C5  UNL     1      16.613  12.994  -1.240  0.00  0.00    +0.000 C 
BRANCH   5  10
ATOM      6  O1  UNL     1      14.689  13.944  -2.398  0.00  0.00    +0.000 OA
ATOM      7  C1  UNL     1      13.840  15.063  -2.101  0.00  0.00    +0.000 C 
ATOM      8  C2  UNL     1      14.736  16.178  -1.604  0.00  0.00    +0.000 C 
ATOM      9  C3  UNL     1      15.857  15.410  -0.951  0.00  0.00    +0.000 C 
ATOM     10  C4  UNL     1      16.007  14.229  -1.898  0.00  0.00    +0.000 C 
ENDBRANCH   5  10
ENDBRANCH   4   5
ENDBRANCH   1   4
BRANCH   1  11
ATOM     11  O4  UNL     1      16.781  11.600  -4.398  0.00  0.00    +0.000 OA
BRANCH  11  12
ATOM     12  C6  UNL     1      15.660  11.385  -5.147  0.00  0.00    +0.000 A 
ATOM     13  C7  UNL     1      14.528  10.960  -4.449  0.00  0.00    +0.000 A 
ATOM     14  C8  UNL     1      13.338  10.707  -5.133  0.00  0.00    +0.000 A 
ATOM     15  C9  UNL     1      13.277  10.886  -6.513  0.00  0.00    +0.000 A 
ATOM     16  C10 UNL     1      14.405  11.325  -7.208  0.00  0.00    +0.000 A 
ATOM     17  C11 UNL     1      15.598  11.577  -6.525  0.00  0.00    +0.000 A 
ENDBRANCH  11  12
ENDBRANCH   1  11
TORSDOF 5
ENDMDL
MODEL 8
REMARK VINA RESULT:    -4.494      3.243      4.204
REMARK INTER + INTRA:          -6.151
REMARK INTER:                  -5.908
REMARK INTRA:                  -0.243
REMARK UNBOUND:                -0.343
REMARK  Name = /home/anacleto/Desktop/manuscript_Mpro/naturecomm/supplementary_file_S2/6-chemical-library/molecular_docking/3D_ligand_structure/642.pdb
REMARK  5 active torsions:
REMARK  status: ('A' for Active; 'I' for Inactive)
REMARK    1  A    between atoms: C4_5  and  C5_6
REMARK    2  A    between atoms: C5_6  and  O2_7
REMARK    3  A    between atoms: O2_7  and  P1_8
REMARK    4  A    between atoms: P1_8  and  O4_10
REMARK    5  A    between atoms: O4_10  and  C6_11
REMARK                            x       y       z     vdW  Elec       q    Type
REMARK                         _______ _______ _______ _____ _____    ______ ____
ROOT
ATOM      1  P1  UNL     1      15.600  13.658  -2.837  0.00  0.00    +0.000 P 
ATOM      2  O3  UNL     1      14.268  14.296  -2.545  0.00  0.00    +0.000 OA
ATOM      3  H10 UNL     1      16.558  14.235  -3.697  0.00  0.00    +0.000 HD
ENDROOT
BRANCH   1   4
ATOM      4  O2  UNL     1      16.434  13.396  -1.469  0.00  0.00    +0.000 OA
BRANCH   4   5
ATOM      5  C5  UNL     1      16.636  14.516  -0.619  0.00  0.00    +0.000 C 
BRANCH   5  10
ATOM      6  O1  UNL     1      18.338  16.026   0.257  0.00  0.00    +0.000 OA
ATOM      7  C1  UNL     1      19.556  15.793   0.979  0.00  0.00    +0.000 C 
ATOM      8  C2  UNL     1      20.222  14.590   0.344  0.00  0.00    +0.000 C 
ATOM      9  C3  UNL     1      19.036  13.801  -0.150  0.00  0.00    +0.000 C 
ATOM     10  C4  UNL     1      18.108  14.911  -0.622  0.00  0.00    +0.000 C 
ENDBRANCH   5  10
ENDBRANCH   4   5
ENDBRANCH   1   4
BRANCH   1  11
ATOM     11  O4  UNL     1      15.457  12.140  -3.384  0.00  0.00    +0.000 OA
BRANCH  11  12
ATOM     12  C6  UNL     1      14.969  11.841  -4.623  0.00  0.00    +0.000 A 
ATOM     13  C7  UNL     1      14.009  10.829  -4.678  0.00  0.00    +0.000 A 
ATOM     14  C8  UNL     1      13.460  10.450  -5.904  0.00  0.00    +0.000 A 
ATOM     15  C9  UNL     1      13.866  11.088  -7.075  0.00  0.00    +0.000 A 
ATOM     16  C10 UNL     1      14.815  12.109  -7.017  0.00  0.00    +0.000 A 
ATOM     17  C11 UNL     1      15.367  12.489  -5.791  0.00  0.00    +0.000 A 
ENDBRANCH  11  12
ENDBRANCH   1  11
TORSDOF 5
ENDMDL
MODEL 9
REMARK VINA RESULT:    -4.318     15.639     16.868
REMARK INTER + INTRA:          -5.924
REMARK INTER:                  -5.581
REMARK INTRA:                  -0.343
REMARK UNBOUND:                -0.343
REMARK  Name = /home/anacleto/Desktop/manuscript_Mpro/naturecomm/supplementary_file_S2/6-chemical-library/molecular_docking/3D_ligand_structure/642.pdb
REMARK  5 active torsions:
REMARK  status: ('A' for Active; 'I' for Inactive)
REMARK    1  A    between atoms: C4_5  and  C5_6
REMARK    2  A    between atoms: C5_6  and  O2_7
REMARK    3  A    between atoms: O2_7  and  P1_8
REMARK    4  A    between atoms: P1_8  and  O4_10
REMARK    5  A    between atoms: O4_10  and  C6_11
REMARK                            x       y       z     vdW  Elec       q    Type
REMARK                         _______ _______ _______ _____ _____    ______ ____
ROOT
ATOM      1  P1  UNL     1      17.523   3.446  11.024  0.00  0.00    +0.000 P 
ATOM      2  O3  UNL     1      18.083   2.049  11.060  0.00  0.00    +0.000 OA
ATOM      3  H10 UNL     1      16.939   4.072  12.145  0.00  0.00    +0.000 HD
ENDROOT
BRANCH   1   4
ATOM      4  O2  UNL     1      18.649   4.513  10.543  0.00  0.00    +0.000 OA
BRANCH   4   5
ATOM      5  C5  UNL     1      18.926   5.590  11.427  0.00  0.00    +0.000 C 
BRANCH   5  10
ATOM      6  O1  UNL     1      20.771   6.961  10.613  0.00  0.00    +0.000 OA
ATOM      7  C1  UNL     1      21.174   7.351   9.292  0.00  0.00    +0.000 C 
ATOM      8  C2  UNL     1      19.912   7.692   8.528  0.00  0.00    +0.000 C 
ATOM      9  C3  UNL     1      18.900   6.780   9.174  0.00  0.00    +0.000 C 
ATOM     10  C4  UNL     1      19.340   6.822  10.630  0.00  0.00    +0.000 C 
ENDBRANCH   5  10
ENDBRANCH   4   5
ENDBRANCH   1   4
BRANCH   1  11
ATOM     11  O4  UNL     1      16.420   3.644   9.854  0.00  0.00    +0.000 OA
BRANCH  11  12
ATOM     12  C6  UNL     1      15.740   2.603   9.292  0.00  0.00    +0.000 A 
ATOM     13  C7  UNL     1      16.289   2.069   8.125  0.00  0.00    +0.000 A 
ATOM     14  C8  UNL     1      15.658   1.007   7.476  0.00  0.00    +0.000 A 
ATOM     15  C9  UNL     1      14.481   0.473   7.998  0.00  0.00    +0.000 A 
ATOM     16  C10 UNL     1      13.940   0.999   9.172  0.00  0.00    +0.000 A 
ATOM     17  C11 UNL     1      14.570   2.063   9.822  0.00  0.00    +0.000 A 
ENDBRANCH  11  12
ENDBRANCH   1  11
TORSDOF 5
ENDMDL
