MODEL 1
REMARK VINA RESULT:    -4.211      0.000      0.000
REMARK INTER + INTRA:          -5.157
REMARK INTER:                  -4.900
REMARK INTRA:                  -0.257
REMARK UNBOUND:                -0.207
REMARK  Name = /home/anacleto/Desktop/manuscript_Mpro/naturecomm/supplementary_file_S2/6-chemical-library/molecular_docking/3D_ligand_structure/1007.pdb
REMARK  3 active torsions:
REMARK  status: ('A' for Active; 'I' for Inactive)
REMARK    1  A    between atoms: C4_5  and  C5_6
REMARK    2  A    between atoms: C5_6  and  S1_8
REMARK    3  A    between atoms: S1_8  and  C6_9
REMARK                            x       y       z     vdW  Elec       q    Type
REMARK                         _______ _______ _______ _____ _____    ______ ____
ROOT
ATOM      1  C5  UNL     1      15.193  13.625  -5.039  0.00  0.00    +0.000 C 
ATOM      2  O2  UNL     1      16.217  14.194  -5.407  0.00  0.00    +0.000 OA
ENDROOT
BRANCH   1   7
ATOM      3  O1  UNL     1      13.340  12.042  -5.346  0.00  0.00    +0.000 OA
ATOM      4  C1  UNL     1      12.971  11.088  -6.238  0.00  0.00    +0.000 A 
ATOM      5  C2  UNL     1      13.893  10.993  -7.252  0.00  0.00    +0.000 A 
ATOM      6  C3  UNL     1      14.895  11.950  -6.960  0.00  0.00    +0.000 A 
ATOM      7  C4  UNL     1      14.528  12.575  -5.781  0.00  0.00    +0.000 A 
ENDBRANCH   1   7
BRANCH   1   8
ATOM      8  S1  UNL     1      14.396  14.114  -3.550  0.00  0.00    +0.000 S 
BRANCH   8   9
ATOM      9  C6  UNL     1      15.341  13.109  -2.485  0.00  0.00    +0.000 A 
ATOM     10  N1  UNL     1      15.142  11.815  -2.348  0.00  0.00    +0.000 NA
ATOM     11  N2  UNL     1      16.007  11.246  -1.433  0.00  0.00    +0.000 NA
ATOM     12  C7  UNL     1      16.816  12.140  -0.908  0.00  0.00    +0.000 A 
ATOM     13  S2  UNL     1      16.585  13.738  -1.482  0.00  0.00    +0.000 S 
ENDBRANCH   8   9
ENDBRANCH   1   8
TORSDOF 3
ENDMDL
MODEL 2
REMARK VINA RESULT:    -3.973      2.485      2.829
REMARK INTER + INTRA:          -4.877
REMARK INTER:                  -4.602
REMARK INTRA:                  -0.274
REMARK UNBOUND:                -0.207
REMARK  Name = /home/anacleto/Desktop/manuscript_Mpro/naturecomm/supplementary_file_S2/6-chemical-library/molecular_docking/3D_ligand_structure/1007.pdb
REMARK  3 active torsions:
REMARK  status: ('A' for Active; 'I' for Inactive)
REMARK    1  A    between atoms: C4_5  and  C5_6
REMARK    2  A    between atoms: C5_6  and  S1_8
REMARK    3  A    between atoms: S1_8  and  C6_9
REMARK                            x       y       z     vdW  Elec       q    Type
REMARK                         _______ _______ _______ _____ _____    ______ ____
ROOT
ATOM      1  C5  UNL     1      15.629  12.005  -2.858  0.00  0.00    +0.000 C 
ATOM      2  O2  UNL     1      15.519  11.392  -1.800  0.00  0.00    +0.000 OA
ENDROOT
BRANCH   1   7
ATOM      3  O1  UNL     1      14.238  10.616  -4.330  0.00  0.00    +0.000 OA
ATOM      4  C1  UNL     1      13.456  10.784  -5.426  0.00  0.00    +0.000 A 
ATOM      5  C2  UNL     1      13.439  12.104  -5.808  0.00  0.00    +0.000 A 
ATOM      6  C3  UNL     1      14.266  12.789  -4.887  0.00  0.00    +0.000 A 
ATOM      7  C4  UNL     1      14.746  11.845  -3.994  0.00  0.00    +0.000 A 
ENDBRANCH   1   7
BRANCH   1   8
ATOM      8  S1  UNL     1      16.965  13.123  -3.097  0.00  0.00    +0.000 S 
BRANCH   8   9
ATOM      9  C6  UNL     1      16.565  14.190  -1.779  0.00  0.00    +0.000 A 
ATOM     10  N1  UNL     1      15.490  14.951  -1.766  0.00  0.00    +0.000 NA
ATOM     11  N2  UNL     1      15.405  15.718  -0.621  0.00  0.00    +0.000 NA
ATOM     12  C7  UNL     1      16.428  15.513   0.179  0.00  0.00    +0.000 A 
ATOM     13  S2  UNL     1      17.572  14.376  -0.401  0.00  0.00    +0.000 S 
ENDBRANCH   8   9
ENDBRANCH   1   8
TORSDOF 3
ENDMDL
MODEL 3
REMARK VINA RESULT:    -3.945      2.836      4.588
REMARK INTER + INTRA:          -4.843
REMARK INTER:                  -4.507
REMARK INTRA:                  -0.336
REMARK UNBOUND:                -0.207
REMARK  Name = /home/anacleto/Desktop/manuscript_Mpro/naturecomm/supplementary_file_S2/6-chemical-library/molecular_docking/3D_ligand_structure/1007.pdb
REMARK  3 active torsions:
REMARK  status: ('A' for Active; 'I' for Inactive)
REMARK    1  A    between atoms: C4_5  and  C5_6
REMARK    2  A    between atoms: C5_6  and  S1_8
REMARK    3  A    between atoms: S1_8  and  C6_9
REMARK                            x       y       z     vdW  Elec       q    Type
REMARK                         _______ _______ _______ _____ _____    ______ ____
ROOT
ATOM      1  C5  UNL     1      15.479  13.123  -3.320  0.00  0.00    +0.000 C 
ATOM      2  O2  UNL     1      14.887  13.534  -2.326  0.00  0.00    +0.000 OA
ENDROOT
BRANCH   1   7
ATOM      3  O1  UNL     1      17.639  12.090  -3.868  0.00  0.00    +0.000 OA
ATOM      4  C1  UNL     1      18.239  10.880  -3.728  0.00  0.00    +0.000 A 
ATOM      5  C2  UNL     1      17.397   9.995  -3.100  0.00  0.00    +0.000 A 
ATOM      6  C3  UNL     1      16.203  10.708  -2.839  0.00  0.00    +0.000 A 
ATOM      7  C4  UNL     1      16.382  11.992  -3.326  0.00  0.00    +0.000 A 
ENDBRANCH   1   7
BRANCH   1   8
ATOM      8  S1  UNL     1      15.310  13.957  -4.858  0.00  0.00    +0.000 S 
BRANCH   8   9
ATOM      9  C6  UNL     1      14.485  12.667  -5.690  0.00  0.00    +0.000 A 
ATOM     10  N1  UNL     1      13.303  12.213  -5.327  0.00  0.00    +0.000 NA
ATOM     11  N2  UNL     1      12.869  11.178  -6.132  0.00  0.00    +0.000 NA
ATOM     12  C7  UNL     1      13.750  10.886  -7.064  0.00  0.00    +0.000 A 
ATOM     13  S2  UNL     1      15.171  11.842  -7.030  0.00  0.00    +0.000 S 
ENDBRANCH   8   9
ENDBRANCH   1   8
TORSDOF 3
ENDMDL
MODEL 4
REMARK VINA RESULT:    -3.938      3.953      5.063
REMARK INTER + INTRA:          -4.835
REMARK INTER:                  -4.604
REMARK INTRA:                  -0.232
REMARK UNBOUND:                -0.207
REMARK  Name = /home/anacleto/Desktop/manuscript_Mpro/naturecomm/supplementary_file_S2/6-chemical-library/molecular_docking/3D_ligand_structure/1007.pdb
REMARK  3 active torsions:
REMARK  status: ('A' for Active; 'I' for Inactive)
REMARK    1  A    between atoms: C4_5  and  C5_6
REMARK    2  A    between atoms: C5_6  and  S1_8
REMARK    3  A    between atoms: S1_8  and  C6_9
REMARK                            x       y       z     vdW  Elec       q    Type
REMARK                         _______ _______ _______ _____ _____    ______ ____
ROOT
ATOM      1  C5  UNL     1      15.454  15.779  -0.996  0.00  0.00    +0.000 C 
ATOM      2  O2  UNL     1      15.913  15.624   0.132  0.00  0.00    +0.000 OA
ENDROOT
BRANCH   1   7
ATOM      3  O1  UNL     1      14.032  17.465  -2.078  0.00  0.00    +0.000 OA
ATOM      4  C1  UNL     1      12.710  17.765  -2.154  0.00  0.00    +0.000 A 
ATOM      5  C2  UNL     1      11.969  16.867  -1.425  0.00  0.00    +0.000 A 
ATOM      6  C3  UNL     1      12.897  15.958  -0.863  0.00  0.00    +0.000 A 
ATOM      7  C4  UNL     1      14.156  16.355  -1.280  0.00  0.00    +0.000 A 
ENDBRANCH   1   7
BRANCH   1   8
ATOM      8  S1  UNL     1      16.355  15.229  -2.402  0.00  0.00    +0.000 S 
BRANCH   8   9
ATOM      9  C6  UNL     1      16.118  13.524  -2.130  0.00  0.00    +0.000 A 
ATOM     10  N1  UNL     1      15.059  12.865  -2.553  0.00  0.00    +0.000 NA
ATOM     11  N2  UNL     1      15.096  11.530  -2.197  0.00  0.00    +0.000 NA
ATOM     12  C7  UNL     1      16.179  11.240  -1.510  0.00  0.00    +0.000 A 
ATOM     13  S2  UNL     1      17.231  12.566  -1.239  0.00  0.00    +0.000 S 
ENDBRANCH   8   9
ENDBRANCH   1   8
TORSDOF 3
ENDMDL
MODEL 5
REMARK VINA RESULT:    -3.921      2.247      2.506
REMARK INTER + INTRA:          -4.815
REMARK INTER:                  -4.574
REMARK INTRA:                  -0.241
REMARK UNBOUND:                -0.207
REMARK  Name = /home/anacleto/Desktop/manuscript_Mpro/naturecomm/supplementary_file_S2/6-chemical-library/molecular_docking/3D_ligand_structure/1007.pdb
REMARK  3 active torsions:
REMARK  status: ('A' for Active; 'I' for Inactive)
REMARK    1  A    between atoms: C4_5  and  C5_6
REMARK    2  A    between atoms: C5_6  and  S1_8
REMARK    3  A    between atoms: S1_8  and  C6_9
REMARK                            x       y       z     vdW  Elec       q    Type
REMARK                         _______ _______ _______ _____ _____    ______ ____
ROOT
ATOM      1  C5  UNL     1      15.491  11.268  -3.231  0.00  0.00    +0.000 C 
ATOM      2  O2  UNL     1      16.083  10.339  -2.689  0.00  0.00    +0.000 OA
ENDROOT
BRANCH   1   7
ATOM      3  O1  UNL     1      13.703  10.603  -4.779  0.00  0.00    +0.000 OA
ATOM      4  C1  UNL     1      13.433  10.705  -6.105  0.00  0.00    +0.000 A 
ATOM      5  C2  UNL     1      14.443  11.373  -6.753  0.00  0.00    +0.000 A 
ATOM      6  C3  UNL     1      15.396  11.700  -5.759  0.00  0.00    +0.000 A 
ATOM      7  C4  UNL     1      14.914  11.209  -4.558  0.00  0.00    +0.000 A 
ENDBRANCH   1   7
BRANCH   1   8
ATOM      8  S1  UNL     1      15.354  12.822  -2.421  0.00  0.00    +0.000 S 
BRANCH   8   9
ATOM      9  C6  UNL     1      17.021  12.930  -1.924  0.00  0.00    +0.000 A 
ATOM     10  N1  UNL     1      17.403  12.892  -0.664  0.00  0.00    +0.000 NA
ATOM     11  N2  UNL     1      18.773  13.014  -0.528  0.00  0.00    +0.000 NA
ATOM     12  C7  UNL     1      19.366  13.151  -1.694  0.00  0.00    +0.000 A 
ATOM     13  S2  UNL     1      18.307  13.147  -3.041  0.00  0.00    +0.000 S 
ENDBRANCH   8   9
ENDBRANCH   1   8
TORSDOF 3
ENDMDL
MODEL 6
REMARK VINA RESULT:    -3.798     15.628     16.587
REMARK INTER + INTRA:          -4.671
REMARK INTER:                  -4.388
REMARK INTRA:                  -0.283
REMARK UNBOUND:                -0.207
REMARK  Name = /home/anacleto/Desktop/manuscript_Mpro/naturecomm/supplementary_file_S2/6-chemical-library/molecular_docking/3D_ligand_structure/1007.pdb
REMARK  3 active torsions:
REMARK  status: ('A' for Active; 'I' for Inactive)
REMARK    1  A    between atoms: C4_5  and  C5_6
REMARK    2  A    between atoms: C5_6  and  S1_8
REMARK    3  A    between atoms: S1_8  and  C6_9
REMARK                            x       y       z     vdW  Elec       q    Type
REMARK                         _______ _______ _______ _____ _____    ______ ____
ROOT
ATOM      1  C5  UNL     1      19.683   4.197   9.528  0.00  0.00    +0.000 C 
ATOM      2  O2  UNL     1      20.420   3.287   9.159  0.00  0.00    +0.000 OA
ENDROOT
BRANCH   1   7
ATOM      3  O1  UNL     1      21.092   6.209   9.527  0.00  0.00    +0.000 OA
ATOM      4  C1  UNL     1      20.992   7.506   9.139  0.00  0.00    +0.000 A 
ATOM      5  C2  UNL     1      19.756   7.751   8.591  0.00  0.00    +0.000 A 
ATOM      6  C3  UNL     1      19.053   6.524   8.648  0.00  0.00    +0.000 A 
ATOM      7  C4  UNL     1      19.900   5.598   9.232  0.00  0.00    +0.000 A 
ENDBRANCH   1   7
BRANCH   1   8
ATOM      8  S1  UNL     1      18.288   3.851  10.540  0.00  0.00    +0.000 S 
BRANCH   8   9
ATOM      9  C6  UNL     1      17.423   2.903   9.361  0.00  0.00    +0.000 A 
ATOM     10  N1  UNL     1      16.911   3.412   8.259  0.00  0.00    +0.000 NA
ATOM     11  N2  UNL     1      16.260   2.462   7.496  0.00  0.00    +0.000 NA
ATOM     12  C7  UNL     1      16.298   1.275   8.062  0.00  0.00    +0.000 A 
ATOM     13  S2  UNL     1      17.124   1.224   9.563  0.00  0.00    +0.000 S 
ENDBRANCH   8   9
ENDBRANCH   1   8
TORSDOF 3
ENDMDL
MODEL 7
REMARK VINA RESULT:    -3.789      2.477      2.480
REMARK INTER + INTRA:          -4.660
REMARK INTER:                  -4.349
REMARK INTRA:                  -0.311
REMARK UNBOUND:                -0.207
REMARK  Name = /home/anacleto/Desktop/manuscript_Mpro/naturecomm/supplementary_file_S2/6-chemical-library/molecular_docking/3D_ligand_structure/1007.pdb
REMARK  3 active torsions:
REMARK  status: ('A' for Active; 'I' for Inactive)
REMARK    1  A    between atoms: C4_5  and  C5_6
REMARK    2  A    between atoms: C5_6  and  S1_8
REMARK    3  A    between atoms: S1_8  and  C6_9
REMARK                            x       y       z     vdW  Elec       q    Type
REMARK                         _______ _______ _______ _____ _____    ______ ____
ROOT
ATOM      1  C5  UNL     1      14.627  13.131  -3.975  0.00  0.00    +0.000 C 
ATOM      2  O2  UNL     1      14.374  14.331  -3.905  0.00  0.00    +0.000 OA
ENDROOT
BRANCH   1   7
ATOM      3  O1  UNL     1      13.538  11.194  -5.021  0.00  0.00    +0.000 OA
ATOM      4  C1  UNL     1      13.462  10.627  -6.251  0.00  0.00    +0.000 A 
ATOM      5  C2  UNL     1      14.199  11.347  -7.160  0.00  0.00    +0.000 A 
ATOM      6  C3  UNL     1      14.764  12.425  -6.438  0.00  0.00    +0.000 A 
ATOM      7  C4  UNL     1      14.342  12.300  -5.126  0.00  0.00    +0.000 A 
ENDBRANCH   1   7
BRANCH   1   8
ATOM      8  S1  UNL     1      15.324  12.292  -2.596  0.00  0.00    +0.000 S 
BRANCH   8   9
ATOM      9  C6  UNL     1      16.862  11.942  -3.340  0.00  0.00    +0.000 A 
ATOM     10  N1  UNL     1      17.642  12.869  -3.855  0.00  0.00    +0.000 NA
ATOM     11  N2  UNL     1      18.796  12.339  -4.400  0.00  0.00    +0.000 NA
ATOM     12  C7  UNL     1      18.832  11.029  -4.281  0.00  0.00    +0.000 A 
ATOM     13  S2  UNL     1      17.467  10.344  -3.505  0.00  0.00    +0.000 S 
ENDBRANCH   8   9
ENDBRANCH   1   8
TORSDOF 3
ENDMDL
MODEL 8
REMARK VINA RESULT:    -3.746      2.030      2.446
REMARK INTER + INTRA:          -4.610
REMARK INTER:                  -4.359
REMARK INTRA:                  -0.251
REMARK UNBOUND:                -0.207
REMARK  Name = /home/anacleto/Desktop/manuscript_Mpro/naturecomm/supplementary_file_S2/6-chemical-library/molecular_docking/3D_ligand_structure/1007.pdb
REMARK  3 active torsions:
REMARK  status: ('A' for Active; 'I' for Inactive)
REMARK    1  A    between atoms: C4_5  and  C5_6
REMARK    2  A    between atoms: C5_6  and  S1_8
REMARK    3  A    between atoms: S1_8  and  C6_9
REMARK                            x       y       z     vdW  Elec       q    Type
REMARK                         _______ _______ _______ _____ _____    ______ ____
ROOT
ATOM      1  C5  UNL     1      16.083  12.502  -4.240  0.00  0.00    +0.000 C 
ATOM      2  O2  UNL     1      16.986  13.241  -4.621  0.00  0.00    +0.000 OA
ENDROOT
BRANCH   1   7
ATOM      3  O1  UNL     1      14.243  10.924  -4.639  0.00  0.00    +0.000 OA
ATOM      4  C1  UNL     1      13.489  10.503  -5.686  0.00  0.00    +0.000 A 
ATOM      5  C2  UNL     1      13.862  11.150  -6.839  0.00  0.00    +0.000 A 
ATOM      6  C3  UNL     1      14.915  12.023  -6.475  0.00  0.00    +0.000 A 
ATOM      7  C4  UNL     1      15.128  11.857  -5.117  0.00  0.00    +0.000 A 
ENDBRANCH   1   7
BRANCH   1   8
ATOM      8  S1  UNL     1      15.838  12.215  -2.523  0.00  0.00    +0.000 S 
BRANCH   8   9
ATOM      9  C6  UNL     1      15.507  13.872  -2.095  0.00  0.00    +0.000 A 
ATOM     10  N1  UNL     1      16.200  14.538  -1.195  0.00  0.00    +0.000 NA
ATOM     11  N2  UNL     1      15.732  15.827  -1.022  0.00  0.00    +0.000 NA
ATOM     12  C7  UNL     1      14.696  16.075  -1.792  0.00  0.00    +0.000 A 
ATOM     13  S2  UNL     1      14.209  14.763  -2.781  0.00  0.00    +0.000 S 
ENDBRANCH   8   9
ENDBRANCH   1   8
TORSDOF 3
ENDMDL
MODEL 9
REMARK VINA RESULT:    -3.718      2.840      5.543
REMARK INTER + INTRA:          -4.577
REMARK INTER:                  -4.370
REMARK INTRA:                  -0.207
REMARK UNBOUND:                -0.207
REMARK  Name = /home/anacleto/Desktop/manuscript_Mpro/naturecomm/supplementary_file_S2/6-chemical-library/molecular_docking/3D_ligand_structure/1007.pdb
REMARK  3 active torsions:
REMARK  status: ('A' for Active; 'I' for Inactive)
REMARK    1  A    between atoms: C4_5  and  C5_6
REMARK    2  A    between atoms: C5_6  and  S1_8
REMARK    3  A    between atoms: S1_8  and  C6_9
REMARK                            x       y       z     vdW  Elec       q    Type
REMARK                         _______ _______ _______ _____ _____    ______ ____
ROOT
ATOM      1  C5  UNL     1      16.012  12.562  -2.006  0.00  0.00    +0.000 C 
ATOM      2  O2  UNL     1      15.070  13.282  -2.323  0.00  0.00    +0.000 OA
ENDROOT
BRANCH   1   7
ATOM      3  O1  UNL     1      17.220  14.217  -0.652  0.00  0.00    +0.000 OA
ATOM      4  C1  UNL     1      18.464  14.376  -0.133  0.00  0.00    +0.000 A 
ATOM      5  C2  UNL     1      19.261  13.304  -0.455  0.00  0.00    +0.000 A 
ATOM      6  C3  UNL     1      18.453  12.433  -1.223  0.00  0.00    +0.000 A 
ATOM      7  C4  UNL     1      17.206  13.025  -1.329  0.00  0.00    +0.000 A 
ENDBRANCH   1   7
BRANCH   1   8
ATOM      8  S1  UNL     1      16.001  10.855  -2.426  0.00  0.00    +0.000 S 
BRANCH   8   9
ATOM      9  C6  UNL     1      15.305  11.050  -4.012  0.00  0.00    +0.000 A 
ATOM     10  N1  UNL     1      14.050  10.766  -4.290  0.00  0.00    +0.000 NA
ATOM     11  N2  UNL     1      13.744  10.988  -5.619  0.00  0.00    +0.000 NA
ATOM     12  C7  UNL     1      14.788  11.420  -6.292  0.00  0.00    +0.000 A 
ATOM     13  S2  UNL     1      16.220  11.585  -5.364  0.00  0.00    +0.000 S 
ENDBRANCH   8   9
ENDBRANCH   1   8
TORSDOF 3
ENDMDL
