MODEL 1
REMARK VINA RESULT:    -5.195      0.000      0.000
REMARK INTER + INTRA:          -6.437
REMARK INTER:                  -6.113
REMARK INTRA:                  -0.324
REMARK UNBOUND:                -0.331
REMARK  Name = /home/anacleto/Desktop/manuscript_Mpro/naturecomm/supplementary_file_S2/6-chemical-library/molecular_docking/3D_ligand_structure/677.pdb
REMARK  3 active torsions:
REMARK  status: ('A' for Active; 'I' for Inactive)
REMARK    1  A    between atoms: C5_6  and  N1_7
REMARK    2  A    between atoms: C6_8  and  C7_10
REMARK    3  A    between atoms: C7_10  and  C8_11
REMARK                            x       y       z     vdW  Elec       q    Type
REMARK                         _______ _______ _______ _____ _____    ______ ____
ROOT
ATOM      1  N1  UNL     1      14.983  11.230  -3.403  0.00  0.00    +0.000 N 
ATOM      2  C6  UNL     1      16.056  10.735  -2.692  0.00  0.00    +0.000 C 
ATOM      3  O2  UNL     1      16.916  10.010  -3.187  0.00  0.00    +0.000 OA
ATOM      4  H10 UNL     1      14.352  11.876  -2.943  0.00  0.00    +0.000 HD
ENDROOT
BRANCH   1  10
ATOM      5  C1  UNL     1      15.498  12.069  -5.663  0.00  0.00    +0.000 C 
ATOM      6  C2  UNL     1      14.828  12.253  -7.021  0.00  0.00    +0.000 C 
ATOM      7  O1  UNL     1      14.307  11.013  -7.483  0.00  0.00    +0.000 OA
ATOM      8  C3  UNL     1      13.203  10.551  -6.701  0.00  0.00    +0.000 C 
ATOM      9  C4  UNL     1      13.342  10.865  -5.213  0.00  0.00    +0.000 C 
ATOM     10  C5  UNL     1      14.816  10.977  -4.828  0.00  0.00    +0.000 C 
ENDBRANCH   1  10
BRANCH   2  11
ATOM     11  C7  UNL     1      16.076  11.108  -1.219  0.00  0.00    +0.000 C 
BRANCH  11  12
ATOM     12  C8  UNL     1      17.070  12.186  -0.882  0.00  0.00    +0.000 A 
ATOM     13  C9  UNL     1      18.436  11.910  -0.775  0.00  0.00    +0.000 A 
ATOM     14  C10 UNL     1      19.327  12.938  -0.484  0.00  0.00    +0.000 A 
ATOM     15  C11 UNL     1      18.820  14.214  -0.310  0.00  0.00    +0.000 A 
ATOM     16  N2  UNL     1      17.508  14.520  -0.402  0.00  0.00    +0.000 NA
ATOM     17  C12 UNL     1      16.664  13.501  -0.675  0.00  0.00    +0.000 A 
ENDBRANCH  11  12
ENDBRANCH   2  11
TORSDOF 3
ENDMDL
MODEL 2
REMARK VINA RESULT:    -4.998     13.994     15.823
REMARK INTER + INTRA:          -6.206
REMARK INTER:                  -6.148
REMARK INTRA:                  -0.057
REMARK UNBOUND:                -0.331
REMARK  Name = /home/anacleto/Desktop/manuscript_Mpro/naturecomm/supplementary_file_S2/6-chemical-library/molecular_docking/3D_ligand_structure/677.pdb
REMARK  3 active torsions:
REMARK  status: ('A' for Active; 'I' for Inactive)
REMARK    1  A    between atoms: C5_6  and  N1_7
REMARK    2  A    between atoms: C6_8  and  C7_10
REMARK    3  A    between atoms: C7_10  and  C8_11
REMARK                            x       y       z     vdW  Elec       q    Type
REMARK                         _______ _______ _______ _____ _____    ______ ____
ROOT
ATOM      1  N1  UNL     1      18.047   4.781   8.417  0.00  0.00    +0.000 N 
ATOM      2  C6  UNL     1      17.686   3.510   8.815  0.00  0.00    +0.000 C 
ATOM      3  O2  UNL     1      18.257   2.898   9.715  0.00  0.00    +0.000 OA
ATOM      4  H10 UNL     1      17.487   5.247   7.714  0.00  0.00    +0.000 HD
ENDROOT
BRANCH   1  10
ATOM      5  C1  UNL     1      18.882   7.040   8.945  0.00  0.00    +0.000 C 
ATOM      6  C2  UNL     1      20.192   7.820   8.990  0.00  0.00    +0.000 C 
ATOM      7  O1  UNL     1      21.126   7.160   9.835  0.00  0.00    +0.000 OA
ATOM      8  C3  UNL     1      21.575   5.914   9.296  0.00  0.00    +0.000 C 
ATOM      9  C4  UNL     1      20.486   5.151   8.546  0.00  0.00    +0.000 C 
ATOM     10  C5  UNL     1      19.107   5.528   9.082  0.00  0.00    +0.000 C 
ENDBRANCH   1  10
BRANCH   2  11
ATOM     11  C7  UNL     1      16.553   2.886   8.017  0.00  0.00    +0.000 C 
BRANCH  11  12
ATOM     12  C8  UNL     1      15.371   2.487   8.858  0.00  0.00    +0.000 A 
ATOM     13  C9  UNL     1      14.414   1.583   8.386  0.00  0.00    +0.000 A 
ATOM     14  C10 UNL     1      13.347   1.222   9.202  0.00  0.00    +0.000 A 
ATOM     15  C11 UNL     1      13.272   1.777  10.467  0.00  0.00    +0.000 A 
ATOM     16  N2  UNL     1      14.174   2.655  10.957  0.00  0.00    +0.000 NA
ATOM     17  C12 UNL     1      15.194   2.996  10.140  0.00  0.00    +0.000 A 
ENDBRANCH  11  12
ENDBRANCH   2  11
TORSDOF 3
ENDMDL
MODEL 3
REMARK VINA RESULT:    -4.962     14.062     16.120
REMARK INTER + INTRA:          -6.163
REMARK INTER:                  -5.859
REMARK INTRA:                  -0.304
REMARK UNBOUND:                -0.331
REMARK  Name = /home/anacleto/Desktop/manuscript_Mpro/naturecomm/supplementary_file_S2/6-chemical-library/molecular_docking/3D_ligand_structure/677.pdb
REMARK  3 active torsions:
REMARK  status: ('A' for Active; 'I' for Inactive)
REMARK    1  A    between atoms: C5_6  and  N1_7
REMARK    2  A    between atoms: C6_8  and  C7_10
REMARK    3  A    between atoms: C7_10  and  C8_11
REMARK                            x       y       z     vdW  Elec       q    Type
REMARK                         _______ _______ _______ _____ _____    ______ ____
ROOT
ATOM      1  N1  UNL     1      17.943   4.581   8.310  0.00  0.00    +0.000 N 
ATOM      2  C6  UNL     1      17.065   3.614   8.753  0.00  0.00    +0.000 C 
ATOM      3  O2  UNL     1      17.016   3.232   9.920  0.00  0.00    +0.000 OA
ATOM      4  H10 UNL     1      17.879   4.892   7.348  0.00  0.00    +0.000 HD
ENDROOT
BRANCH   1  10
ATOM      5  C1  UNL     1      18.987   6.754   8.826  0.00  0.00    +0.000 C 
ATOM      6  C2  UNL     1      20.336   7.332   9.242  0.00  0.00    +0.000 C 
ATOM      7  O1  UNL     1      20.789   6.709  10.437  0.00  0.00    +0.000 OA
ATOM      8  C3  UNL     1      21.134   5.334  10.247  0.00  0.00    +0.000 C 
ATOM      9  C4  UNL     1      20.225   4.613   9.255  0.00  0.00    +0.000 C 
ATOM     10  C5  UNL     1      18.850   5.276   9.214  0.00  0.00    +0.000 C 
ENDBRANCH   1  10
BRANCH   2  11
ATOM     11  C7  UNL     1      16.186   3.004   7.673  0.00  0.00    +0.000 C 
BRANCH  11  12
ATOM     12  C8  UNL     1      15.776   1.585   7.960  0.00  0.00    +0.000 A 
ATOM     13  C9  UNL     1      14.471   1.269   8.351  0.00  0.00    +0.000 A 
ATOM     14  C10 UNL     1      14.124  -0.058   8.586  0.00  0.00    +0.000 A 
ATOM     15  C11 UNL     1      15.097  -1.028   8.419  0.00  0.00    +0.000 A 
ATOM     16  N2  UNL     1      16.367  -0.763   8.046  0.00  0.00    +0.000 NA
ATOM     17  C12 UNL     1      16.679   0.534   7.835  0.00  0.00    +0.000 A 
ENDBRANCH  11  12
ENDBRANCH   2  11
TORSDOF 3
ENDMDL
MODEL 4
REMARK VINA RESULT:    -4.792      3.346      4.190
REMARK INTER + INTRA:          -5.963
REMARK INTER:                  -5.526
REMARK INTRA:                  -0.437
REMARK UNBOUND:                -0.331
REMARK  Name = /home/anacleto/Desktop/manuscript_Mpro/naturecomm/supplementary_file_S2/6-chemical-library/molecular_docking/3D_ligand_structure/677.pdb
REMARK  3 active torsions:
REMARK  status: ('A' for Active; 'I' for Inactive)
REMARK    1  A    between atoms: C5_6  and  N1_7
REMARK    2  A    between atoms: C6_8  and  C7_10
REMARK    3  A    between atoms: C7_10  and  C8_11
REMARK                            x       y       z     vdW  Elec       q    Type
REMARK                         _______ _______ _______ _____ _____    ______ ____
ROOT
ATOM      1  N1  UNL     1      15.211  13.759  -3.913  0.00  0.00    +0.000 N 
ATOM      2  C6  UNL     1      15.243  13.497  -2.559  0.00  0.00    +0.000 C 
ATOM      3  O2  UNL     1      15.064  12.378  -2.085  0.00  0.00    +0.000 OA
ATOM      4  H10 UNL     1      15.434  14.694  -4.233  0.00  0.00    +0.000 HD
ENDROOT
BRANCH   1  10
ATOM      5  C1  UNL     1      15.829  12.991  -6.173  0.00  0.00    +0.000 C 
ATOM      6  C2  UNL     1      15.191  12.367  -7.410  0.00  0.00    +0.000 C 
ATOM      7  O1  UNL     1      14.530  11.158  -7.063  0.00  0.00    +0.000 OA
ATOM      8  C3  UNL     1      13.376  11.372  -6.246  0.00  0.00    +0.000 C 
ATOM      9  C4  UNL     1      13.545  12.515  -5.248  0.00  0.00    +0.000 C 
ATOM     10  C5  UNL     1      15.021  12.704  -4.901  0.00  0.00    +0.000 C 
ENDBRANCH   1  10
BRANCH   2  11
ATOM     11  C7  UNL     1      15.463  14.715  -1.677  0.00  0.00    +0.000 C 
BRANCH  11  12
ATOM     12  C8  UNL     1      14.395  15.765  -1.819  0.00  0.00    +0.000 A 
ATOM     13  C9  UNL     1      13.055  15.483  -1.538  0.00  0.00    +0.000 A 
ATOM     14  C10 UNL     1      12.100  16.487  -1.661  0.00  0.00    +0.000 A 
ATOM     15  C11 UNL     1      12.517  17.744  -2.061  0.00  0.00    +0.000 A 
ATOM     16  N2  UNL     1      13.801  18.054  -2.345  0.00  0.00    +0.000 NA
ATOM     17  C12 UNL     1      14.706  17.058  -2.228  0.00  0.00    +0.000 A 
ENDBRANCH  11  12
ENDBRANCH   2  11
TORSDOF 3
ENDMDL
MODEL 5
REMARK VINA RESULT:    -4.674      4.288      6.591
REMARK INTER + INTRA:          -5.825
REMARK INTER:                  -5.442
REMARK INTRA:                  -0.382
REMARK UNBOUND:                -0.331
REMARK  Name = /home/anacleto/Desktop/manuscript_Mpro/naturecomm/supplementary_file_S2/6-chemical-library/molecular_docking/3D_ligand_structure/677.pdb
REMARK  3 active torsions:
REMARK  status: ('A' for Active; 'I' for Inactive)
REMARK    1  A    between atoms: C5_6  and  N1_7
REMARK    2  A    between atoms: C6_8  and  C7_10
REMARK    3  A    between atoms: C7_10  and  C8_11
REMARK                            x       y       z     vdW  Elec       q    Type
REMARK                         _______ _______ _______ _____ _____    ______ ____
ROOT
ATOM      1  N1  UNL     1      17.915  10.922  -8.172  0.00  0.00    +0.000 N 
ATOM      2  C6  UNL     1      17.763  12.000  -7.325  0.00  0.00    +0.000 C 
ATOM      3  O2  UNL     1      18.644  12.387  -6.561  0.00  0.00    +0.000 OA
ATOM      4  H10 UNL     1      17.169  10.703  -8.820  0.00  0.00    +0.000 HD
ENDROOT
BRANCH   1  10
ATOM      5  C1  UNL     1      19.367   9.623  -9.684  0.00  0.00    +0.000 C 
ATOM      6  C2  UNL     1      20.223   8.360  -9.682  0.00  0.00    +0.000 C 
ATOM      7  O1  UNL     1      21.184   8.422  -8.637  0.00  0.00    +0.000 OA
ATOM      8  C3  UNL     1      20.594   8.346  -7.337  0.00  0.00    +0.000 C 
ATOM      9  C4  UNL     1      19.249   9.063  -7.240  0.00  0.00    +0.000 C 
ATOM     10  C5  UNL     1      19.170  10.187  -8.271  0.00  0.00    +0.000 C 
ENDBRANCH   1  10
BRANCH   2  11
ATOM     11  C7  UNL     1      16.391  12.653  -7.361  0.00  0.00    +0.000 C 
BRANCH  11  12
ATOM     12  C8  UNL     1      15.342  11.898  -6.589  0.00  0.00    +0.000 A 
ATOM     13  C9  UNL     1      14.265  11.284  -7.234  0.00  0.00    +0.000 A 
ATOM     14  C10 UNL     1      13.327  10.577  -6.488  0.00  0.00    +0.000 A 
ATOM     15  C11 UNL     1      13.500  10.506  -5.117  0.00  0.00    +0.000 A 
ATOM     16  N2  UNL     1      14.525  11.088  -4.458  0.00  0.00    +0.000 NA
ATOM     17  C12 UNL     1      15.414  11.777  -5.205  0.00  0.00    +0.000 A 
ENDBRANCH  11  12
ENDBRANCH   2  11
TORSDOF 3
ENDMDL
MODEL 6
REMARK VINA RESULT:    -4.599     14.380     15.501
REMARK INTER + INTRA:          -5.737
REMARK INTER:                  -5.409
REMARK INTRA:                  -0.328
REMARK UNBOUND:                -0.331
REMARK  Name = /home/anacleto/Desktop/manuscript_Mpro/naturecomm/supplementary_file_S2/6-chemical-library/molecular_docking/3D_ligand_structure/677.pdb
REMARK  3 active torsions:
REMARK  status: ('A' for Active; 'I' for Inactive)
REMARK    1  A    between atoms: C5_6  and  N1_7
REMARK    2  A    between atoms: C6_8  and  C7_10
REMARK    3  A    between atoms: C7_10  and  C8_11
REMARK                            x       y       z     vdW  Elec       q    Type
REMARK                         _______ _______ _______ _____ _____    ______ ____
ROOT
ATOM      1  N1  UNL     1      17.664   4.319   8.831  0.00  0.00    +0.000 N 
ATOM      2  C6  UNL     1      18.993   4.610   9.055  0.00  0.00    +0.000 C 
ATOM      3  O2  UNL     1      19.843   3.750   9.277  0.00  0.00    +0.000 OA
ATOM      4  H10 UNL     1      17.035   5.075   8.589  0.00  0.00    +0.000 HD
ENDROOT
BRANCH   1  10
ATOM      5  C1  UNL     1      16.090   2.794   7.701  0.00  0.00    +0.000 C 
ATOM      6  C2  UNL     1      15.106   1.676   8.032  0.00  0.00    +0.000 C 
ATOM      7  O1  UNL     1      15.764   0.640   8.747  0.00  0.00    +0.000 OA
ATOM      8  C3  UNL     1      16.164   1.041  10.060  0.00  0.00    +0.000 C 
ATOM      9  C4  UNL     1      16.628   2.493  10.134  0.00  0.00    +0.000 C 
ATOM     10  C5  UNL     1      17.169   2.949   8.780  0.00  0.00    +0.000 C 
ENDBRANCH   1  10
BRANCH   2  11
ATOM     11  C7  UNL     1      19.333   6.091   9.063  0.00  0.00    +0.000 C 
BRANCH  11  12
ATOM     12  C8  UNL     1      19.752   6.608  10.412  0.00  0.00    +0.000 A 
ATOM     13  C9  UNL     1      18.819   7.125  11.316  0.00  0.00    +0.000 A 
ATOM     14  C10 UNL     1      19.243   7.573  12.563  0.00  0.00    +0.000 A 
ATOM     15  C11 UNL     1      20.591   7.487  12.867  0.00  0.00    +0.000 A 
ATOM     16  N2  UNL     1      21.522   6.996  12.021  0.00  0.00    +0.000 NA
ATOM     17  C12 UNL     1      21.084   6.578  10.813  0.00  0.00    +0.000 A 
ENDBRANCH  11  12
ENDBRANCH   2  11
TORSDOF 3
ENDMDL
MODEL 7
REMARK VINA RESULT:    -4.581      2.340      6.287
REMARK INTER + INTRA:          -5.715
REMARK INTER:                  -5.346
REMARK INTRA:                  -0.369
REMARK UNBOUND:                -0.331
REMARK  Name = /home/anacleto/Desktop/manuscript_Mpro/naturecomm/supplementary_file_S2/6-chemical-library/molecular_docking/3D_ligand_structure/677.pdb
REMARK  3 active torsions:
REMARK  status: ('A' for Active; 'I' for Inactive)
REMARK    1  A    between atoms: C5_6  and  N1_7
REMARK    2  A    between atoms: C6_8  and  C7_10
REMARK    3  A    between atoms: C7_10  and  C8_11
REMARK                            x       y       z     vdW  Elec       q    Type
REMARK                         _______ _______ _______ _____ _____    ______ ____
ROOT
ATOM      1  N1  UNL     1      16.532  13.052  -3.081  0.00  0.00    +0.000 N 
ATOM      2  C6  UNL     1      16.775  11.695  -3.119  0.00  0.00    +0.000 C 
ATOM      3  O2  UNL     1      16.945  11.013  -2.112  0.00  0.00    +0.000 OA
ATOM      4  H10 UNL     1      16.336  13.535  -3.950  0.00  0.00    +0.000 HD
ENDROOT
BRANCH   1  10
ATOM      5  C1  UNL     1      15.175  14.708  -1.858  0.00  0.00    +0.000 C 
ATOM      6  C2  UNL     1      15.351  15.917  -0.945  0.00  0.00    +0.000 C 
ATOM      7  O1  UNL     1      16.138  15.568   0.185  0.00  0.00    +0.000 OA
ATOM      8  C3  UNL     1      17.499  15.287  -0.153  0.00  0.00    +0.000 C 
ATOM      9  C4  UNL     1      17.655  14.578  -1.496  0.00  0.00    +0.000 C 
ATOM     10  C5  UNL     1      16.396  13.779  -1.826  0.00  0.00    +0.000 C 
ENDBRANCH   1  10
BRANCH   2  11
ATOM     11  C7  UNL     1      16.875  11.101  -4.515  0.00  0.00    +0.000 C 
BRANCH  11  12
ATOM     12  C8  UNL     1      15.563  11.066  -5.251  0.00  0.00    +0.000 A 
ATOM     13  C9  UNL     1      15.485  11.366  -6.614  0.00  0.00    +0.000 A 
ATOM     14  C10 UNL     1      14.257  11.301  -7.265  0.00  0.00    +0.000 A 
ATOM     15  C11 UNL     1      13.143  10.937  -6.528  0.00  0.00    +0.000 A 
ATOM     16  N2  UNL     1      13.178  10.644  -5.210  0.00  0.00    +0.000 NA
ATOM     17  C12 UNL     1      14.381  10.724  -4.601  0.00  0.00    +0.000 A 
ENDBRANCH  11  12
ENDBRANCH   2  11
TORSDOF 3
ENDMDL
MODEL 8
REMARK VINA RESULT:    -4.542      2.407      6.567
REMARK INTER + INTRA:          -5.670
REMARK INTER:                  -5.333
REMARK INTRA:                  -0.337
REMARK UNBOUND:                -0.331
REMARK  Name = /home/anacleto/Desktop/manuscript_Mpro/naturecomm/supplementary_file_S2/6-chemical-library/molecular_docking/3D_ligand_structure/677.pdb
REMARK  3 active torsions:
REMARK  status: ('A' for Active; 'I' for Inactive)
REMARK    1  A    between atoms: C5_6  and  N1_7
REMARK    2  A    between atoms: C6_8  and  C7_10
REMARK    3  A    between atoms: C7_10  and  C8_11
REMARK                            x       y       z     vdW  Elec       q    Type
REMARK                         _______ _______ _______ _____ _____    ______ ____
ROOT
ATOM      1  N1  UNL     1      17.522  12.447  -2.341  0.00  0.00    +0.000 N 
ATOM      2  C6  UNL     1      17.657  12.323  -3.708  0.00  0.00    +0.000 C 
ATOM      3  O2  UNL     1      18.107  13.213  -4.425  0.00  0.00    +0.000 OA
ATOM      4  H10 UNL     1      17.206  11.645  -1.809  0.00  0.00    +0.000 HD
ENDROOT
BRANCH   1  10
ATOM      5  C1  UNL     1      19.355  13.423  -1.012  0.00  0.00    +0.000 C 
ATOM      6  C2  UNL     1      19.568  14.275   0.235  0.00  0.00    +0.000 C 
ATOM      7  O1  UNL     1      18.856  15.500   0.119  0.00  0.00    +0.000 OA
ATOM      8  C3  UNL     1      17.438  15.321   0.156  0.00  0.00    +0.000 C 
ATOM      9  C4  UNL     1      16.970  14.046  -0.541  0.00  0.00    +0.000 C 
ATOM     10  C5  UNL     1      17.965  13.636  -1.625  0.00  0.00    +0.000 C 
ENDBRANCH   1  10
BRANCH   2  11
ATOM     11  C7  UNL     1      17.153  11.010  -4.285  0.00  0.00    +0.000 C 
BRANCH  11  12
ATOM     12  C8  UNL     1      15.862  11.141  -5.046  0.00  0.00    +0.000 A 
ATOM     13  C9  UNL     1      15.849  11.454  -6.409  0.00  0.00    +0.000 A 
ATOM     14  C10 UNL     1      14.635  11.545  -7.083  0.00  0.00    +0.000 A 
ATOM     15  C11 UNL     1      13.471  11.319  -6.371  0.00  0.00    +0.000 A 
ATOM     16  N2  UNL     1      13.442  11.018  -5.055  0.00  0.00    +0.000 NA
ATOM     17  C12 UNL     1      14.634  10.946  -4.422  0.00  0.00    +0.000 A 
ENDBRANCH  11  12
ENDBRANCH   2  11
TORSDOF 3
ENDMDL
MODEL 9
REMARK VINA RESULT:    -4.500     13.942     15.466
REMARK INTER + INTRA:          -5.620
REMARK INTER:                  -5.289
REMARK INTRA:                  -0.331
REMARK UNBOUND:                -0.331
REMARK  Name = /home/anacleto/Desktop/manuscript_Mpro/naturecomm/supplementary_file_S2/6-chemical-library/molecular_docking/3D_ligand_structure/677.pdb
REMARK  3 active torsions:
REMARK  status: ('A' for Active; 'I' for Inactive)
REMARK    1  A    between atoms: C5_6  and  N1_7
REMARK    2  A    between atoms: C6_8  and  C7_10
REMARK    3  A    between atoms: C7_10  and  C8_11
REMARK                            x       y       z     vdW  Elec       q    Type
REMARK                         _______ _______ _______ _____ _____    ______ ____
ROOT
ATOM      1  N1  UNL     1      17.441   2.424   8.955  0.00  0.00    +0.000 N 
ATOM      2  C6  UNL     1      18.163   3.268   9.773  0.00  0.00    +0.000 C 
ATOM      3  O2  UNL     1      17.706   3.765  10.800  0.00  0.00    +0.000 OA
ATOM      4  H10 UNL     1      17.907   2.001   8.161  0.00  0.00    +0.000 HD
ENDROOT
BRANCH   1  10
ATOM      5  C1  UNL     1      16.095   0.724  10.128  0.00  0.00    +0.000 C 
ATOM      6  C2  UNL     1      14.829  -0.104   9.930  0.00  0.00    +0.000 C 
ATOM      7  O1  UNL     1      13.722   0.749   9.670  0.00  0.00    +0.000 OA
ATOM      8  C3  UNL     1      13.813   1.404   8.403  0.00  0.00    +0.000 C 
ATOM      9  C4  UNL     1      15.240   1.796   8.025  0.00  0.00    +0.000 C 
ATOM     10  C5  UNL     1      16.084   2.003   9.281  0.00  0.00    +0.000 C 
ENDBRANCH   1  10
BRANCH   2  11
ATOM     11  C7  UNL     1      19.565   3.591   9.283  0.00  0.00    +0.000 C 
BRANCH  11  12
ATOM     12  C8  UNL     1      19.842   5.066   9.176  0.00  0.00    +0.000 A 
ATOM     13  C9  UNL     1      19.042   5.903   8.393  0.00  0.00    +0.000 A 
ATOM     14  C10 UNL     1      19.317   7.265   8.337  0.00  0.00    +0.000 A 
ATOM     15  C11 UNL     1      20.387   7.748   9.070  0.00  0.00    +0.000 A 
ATOM     16  N2  UNL     1      21.184   6.973   9.836  0.00  0.00    +0.000 NA
ATOM     17  C12 UNL     1      20.901   5.652   9.863  0.00  0.00    +0.000 A 
ENDBRANCH  11  12
ENDBRANCH   2  11
TORSDOF 3
ENDMDL
