MODEL 1
REMARK VINA RESULT:    -5.089      0.000      0.000
REMARK INTER + INTRA:          -6.346
REMARK INTER:                  -6.041
REMARK INTRA:                  -0.305
REMARK UNBOUND:                -0.365
REMARK  Name = /home/anacleto/Desktop/manuscript_Mpro/naturecomm/supplementary_file_S2/6-chemical-library/molecular_docking/3D_ligand_structure/853.pdb
REMARK  3 active torsions:
REMARK  status: ('A' for Active; 'I' for Inactive)
REMARK    1  A    between atoms: C5_7  and  C6_8
REMARK    2  A    between atoms: C6_8  and  N2_9
REMARK    3  A    between atoms: N2_9  and  C7_10
REMARK                            x       y       z     vdW  Elec       q    Type
REMARK                         _______ _______ _______ _____ _____    ______ ____
ROOT
ATOM      1  C6  UNL     1     -23.997   5.420 -39.291  0.00  0.00    +0.000 C 
ENDROOT
BRANCH   1   8
ATOM      2  C1  UNL     1     -23.958   7.723 -38.298  0.00  0.00    +0.000 A 
ATOM      3  N1  UNL     1     -23.292   8.760 -37.696  0.00  0.00    +0.000 N 
ATOM      4  C2  UNL     1     -21.959   8.732 -37.365  0.00  0.00    +0.000 A 
ATOM      5  O1  UNL     1     -21.384   9.669 -36.825  0.00  0.00    +0.000 OA
ATOM      6  C3  UNL     1     -21.238   7.481 -37.710  0.00  0.00    +0.000 A 
ATOM      7  C4  UNL     1     -21.899   6.473 -38.300  0.00  0.00    +0.000 A 
ATOM      8  C5  UNL     1     -23.319   6.582 -38.609  0.00  0.00    +0.000 A 
ATOM      9  H2  UNL     1     -23.785   9.612 -37.457  0.00  0.00    +0.000 HD
ENDBRANCH   1   8
BRANCH   1  10
ATOM     10  N2  UNL     1     -24.547   4.542 -38.268  0.00  0.00    +0.000 N 
ATOM     11  H7  UNL     1     -23.902   3.817 -37.967  0.00  0.00    +0.000 HD
BRANCH  10  12
ATOM     12  C7  UNL     1     -25.854   4.060 -38.397  0.00  0.00    +0.000 A 
ATOM     13  C8  UNL     1     -26.233   2.749 -38.087  0.00  0.00    +0.000 A 
ATOM     14  C9  UNL     1     -27.542   2.303 -38.301  0.00  0.00    +0.000 A 
ATOM     15  C10 UNL     1     -28.490   3.156 -38.857  0.00  0.00    +0.000 A 
ATOM     16  C11 UNL     1     -28.124   4.450 -39.212  0.00  0.00    +0.000 A 
ATOM     17  C12 UNL     1     -26.815   4.889 -38.995  0.00  0.00    +0.000 A 
ENDBRANCH  10  12
ENDBRANCH   1  10
TORSDOF 3
ENDMDL
MODEL 2
REMARK VINA RESULT:    -4.855     17.552     19.109
REMARK INTER + INTRA:          -6.071
REMARK INTER:                  -5.691
REMARK INTRA:                  -0.381
REMARK UNBOUND:                -0.365
REMARK  Name = /home/anacleto/Desktop/manuscript_Mpro/naturecomm/supplementary_file_S2/6-chemical-library/molecular_docking/3D_ligand_structure/853.pdb
REMARK  3 active torsions:
REMARK  status: ('A' for Active; 'I' for Inactive)
REMARK    1  A    between atoms: C5_7  and  C6_8
REMARK    2  A    between atoms: C6_8  and  N2_9
REMARK    3  A    between atoms: N2_9  and  C7_10
REMARK                            x       y       z     vdW  Elec       q    Type
REMARK                         _______ _______ _______ _____ _____    ______ ____
ROOT
ATOM      1  C6  UNL     1     -37.648  -2.347 -25.232  0.00  0.00    +0.000 C 
ENDROOT
BRANCH   1   8
ATOM      2  C1  UNL     1     -36.173  -4.337 -24.837  0.00  0.00    +0.000 A 
ATOM      3  N1  UNL     1     -34.941  -4.939 -24.844  0.00  0.00    +0.000 N 
ATOM      4  C2  UNL     1     -33.783  -4.320 -25.250  0.00  0.00    +0.000 A 
ATOM      5  O1  UNL     1     -32.692  -4.877 -25.250  0.00  0.00    +0.000 OA
ATOM      6  C3  UNL     1     -33.929  -2.910 -25.690  0.00  0.00    +0.000 A 
ATOM      7  C4  UNL     1     -35.139  -2.331 -25.678  0.00  0.00    +0.000 A 
ATOM      8  C5  UNL     1     -36.320  -3.063 -25.241  0.00  0.00    +0.000 A 
ATOM      9  H2  UNL     1     -34.842  -5.902 -24.547  0.00  0.00    +0.000 HD
ENDBRANCH   1   8
BRANCH   1  10
ATOM     10  N2  UNL     1     -38.213  -2.408 -26.573  0.00  0.00    +0.000 N 
ATOM     11  H7  UNL     1     -37.911  -3.220 -27.102  0.00  0.00    +0.000 HD
BRANCH  10  12
ATOM     12  C7  UNL     1     -38.253  -1.253 -27.362  0.00  0.00    +0.000 A 
ATOM     13  C8  UNL     1     -39.327  -0.355 -27.371  0.00  0.00    +0.000 A 
ATOM     14  C9  UNL     1     -39.341   0.747 -28.233  0.00  0.00    +0.000 A 
ATOM     15  C10 UNL     1     -38.292   0.956 -29.122  0.00  0.00    +0.000 A 
ATOM     16  C11 UNL     1     -37.235   0.052 -29.158  0.00  0.00    +0.000 A 
ATOM     17  C12 UNL     1     -37.227  -1.047 -28.295  0.00  0.00    +0.000 A 
ENDBRANCH  10  12
ENDBRANCH   1  10
TORSDOF 3
ENDMDL
MODEL 3
REMARK VINA RESULT:    -4.855      2.814      6.483
REMARK INTER + INTRA:          -6.071
REMARK INTER:                  -5.752
REMARK INTRA:                  -0.319
REMARK UNBOUND:                -0.365
REMARK  Name = /home/anacleto/Desktop/manuscript_Mpro/naturecomm/supplementary_file_S2/6-chemical-library/molecular_docking/3D_ligand_structure/853.pdb
REMARK  3 active torsions:
REMARK  status: ('A' for Active; 'I' for Inactive)
REMARK    1  A    between atoms: C5_7  and  C6_8
REMARK    2  A    between atoms: C6_8  and  N2_9
REMARK    3  A    between atoms: N2_9  and  C7_10
REMARK                            x       y       z     vdW  Elec       q    Type
REMARK                         _______ _______ _______ _____ _____    ______ ____
ROOT
ATOM      1  C6  UNL     1     -24.926   6.645 -39.500  0.00  0.00    +0.000 C 
ENDROOT
BRANCH   1   8
ATOM      2  C1  UNL     1     -24.751   4.353 -38.497  0.00  0.00    +0.000 A 
ATOM      3  N1  UNL     1     -25.324   3.183 -38.067  0.00  0.00    +0.000 N 
ATOM      4  C2  UNL     1     -26.674   2.928 -38.101  0.00  0.00    +0.000 A 
ATOM      5  O1  UNL     1     -27.165   1.876 -37.710  0.00  0.00    +0.000 OA
ATOM      6  C3  UNL     1     -27.519   4.015 -38.655  0.00  0.00    +0.000 A 
ATOM      7  C4  UNL     1     -26.948   5.154 -39.074  0.00  0.00    +0.000 A 
ATOM      8  C5  UNL     1     -25.507   5.348 -38.993  0.00  0.00    +0.000 A 
ATOM      9  H2  UNL     1     -24.747   2.443 -37.686  0.00  0.00    +0.000 HD
ENDBRANCH   1   8
BRANCH   1  10
ATOM     10  N2  UNL     1     -23.532   6.718 -39.088  0.00  0.00    +0.000 N 
ATOM     11  H7  UNL     1     -23.144   5.820 -38.815  0.00  0.00    +0.000 HD
BRANCH  10  12
ATOM     12  C7  UNL     1     -23.112   7.750 -38.242  0.00  0.00    +0.000 A 
ATOM     13  C8  UNL     1     -23.901   8.860 -37.918  0.00  0.00    +0.000 A 
ATOM     14  C9  UNL     1     -23.402   9.895 -37.121  0.00  0.00    +0.000 A 
ATOM     15  C10 UNL     1     -22.092   9.852 -36.654  0.00  0.00    +0.000 A 
ATOM     16  C11 UNL     1     -21.277   8.779 -36.999  0.00  0.00    +0.000 A 
ATOM     17  C12 UNL     1     -21.782   7.748 -37.796  0.00  0.00    +0.000 A 
ENDBRANCH  10  12
ENDBRANCH   1  10
TORSDOF 3
ENDMDL
MODEL 4
REMARK VINA RESULT:    -4.835     15.888     17.774
REMARK INTER + INTRA:          -6.048
REMARK INTER:                  -5.700
REMARK INTRA:                  -0.348
REMARK UNBOUND:                -0.365
REMARK  Name = /home/anacleto/Desktop/manuscript_Mpro/naturecomm/supplementary_file_S2/6-chemical-library/molecular_docking/3D_ligand_structure/853.pdb
REMARK  3 active torsions:
REMARK  status: ('A' for Active; 'I' for Inactive)
REMARK    1  A    between atoms: C5_7  and  C6_8
REMARK    2  A    between atoms: C6_8  and  N2_9
REMARK    3  A    between atoms: N2_9  and  C7_10
REMARK                            x       y       z     vdW  Elec       q    Type
REMARK                         _______ _______ _______ _____ _____    ______ ____
ROOT
ATOM      1  C6  UNL     1     -25.713  -4.123 -27.004  0.00  0.00    +0.000 C 
ENDROOT
BRANCH   1   8
ATOM      2  C1  UNL     1     -28.204  -4.404 -27.091  0.00  0.00    +0.000 A 
ATOM      3  N1  UNL     1     -29.346  -5.100 -26.786  0.00  0.00    +0.000 N 
ATOM      4  C2  UNL     1     -29.363  -6.285 -26.090  0.00  0.00    +0.000 A 
ATOM      5  O1  UNL     1     -30.395  -6.892 -25.830  0.00  0.00    +0.000 OA
ATOM      6  C3  UNL     1     -28.038  -6.796 -25.659  0.00  0.00    +0.000 A 
ATOM      7  C4  UNL     1     -26.928  -6.107 -25.963  0.00  0.00    +0.000 A 
ATOM      8  C5  UNL     1     -26.997  -4.860 -26.714  0.00  0.00    +0.000 A 
ATOM      9  H2  UNL     1     -30.250  -4.753 -27.083  0.00  0.00    +0.000 HD
ENDBRANCH   1   8
BRANCH   1  10
ATOM     10  N2  UNL     1     -24.607  -4.888 -26.446  0.00  0.00    +0.000 N 
ATOM     11  H7  UNL     1     -24.776  -5.889 -26.429  0.00  0.00    +0.000 HD
BRANCH  10  12
ATOM     12  C7  UNL     1     -23.976  -4.443 -25.280  0.00  0.00    +0.000 A 
ATOM     13  C8  UNL     1     -23.052  -5.206 -24.556  0.00  0.00    +0.000 A 
ATOM     14  C9  UNL     1     -22.503  -4.736 -23.358  0.00  0.00    +0.000 A 
ATOM     15  C10 UNL     1     -22.891  -3.501 -22.847  0.00  0.00    +0.000 A 
ATOM     16  C11 UNL     1     -23.839  -2.745 -23.528  0.00  0.00    +0.000 A 
ATOM     17  C12 UNL     1     -24.383  -3.221 -24.724  0.00  0.00    +0.000 A 
ENDBRANCH  10  12
ENDBRANCH   1  10
TORSDOF 3
ENDMDL
MODEL 5
REMARK VINA RESULT:    -4.766      1.519      1.714
REMARK INTER + INTRA:          -5.967
REMARK INTER:                  -5.591
REMARK INTRA:                  -0.376
REMARK UNBOUND:                -0.365
REMARK  Name = /home/anacleto/Desktop/manuscript_Mpro/naturecomm/supplementary_file_S2/6-chemical-library/molecular_docking/3D_ligand_structure/853.pdb
REMARK  3 active torsions:
REMARK  status: ('A' for Active; 'I' for Inactive)
REMARK    1  A    between atoms: C5_7  and  C6_8
REMARK    2  A    between atoms: C6_8  and  N2_9
REMARK    3  A    between atoms: N2_9  and  C7_10
REMARK                            x       y       z     vdW  Elec       q    Type
REMARK                         _______ _______ _______ _____ _____    ______ ____
ROOT
ATOM      1  C6  UNL     1     -24.433   5.784 -40.269  0.00  0.00    +0.000 C 
ENDROOT
BRANCH   1   8
ATOM      2  C1  UNL     1     -22.429   7.276 -40.496  0.00  0.00    +0.000 A 
ATOM      3  N1  UNL     1     -21.279   7.827 -39.991  0.00  0.00    +0.000 N 
ATOM      4  C2  UNL     1     -20.795   7.580 -38.730  0.00  0.00    +0.000 A 
ATOM      5  O1  UNL     1     -19.766   8.084 -38.298  0.00  0.00    +0.000 OA
ATOM      6  C3  UNL     1     -21.600   6.645 -37.904  0.00  0.00    +0.000 A 
ATOM      7  C4  UNL     1     -22.723   6.112 -38.408  0.00  0.00    +0.000 A 
ATOM      8  C5  UNL     1     -23.172   6.434 -39.756  0.00  0.00    +0.000 A 
ATOM      9  H2  UNL     1     -20.731   8.467 -40.553  0.00  0.00    +0.000 HD
ENDBRANCH   1   8
BRANCH   1  10
ATOM     10  N2  UNL     1     -25.449   5.866 -39.230  0.00  0.00    +0.000 N 
ATOM     11  H7  UNL     1     -25.164   6.421 -38.428  0.00  0.00    +0.000 HD
BRANCH  10  12
ATOM     12  C7  UNL     1     -26.147   4.716 -38.849  0.00  0.00    +0.000 A 
ATOM     13  C8  UNL     1     -25.527   3.505 -38.516  0.00  0.00    +0.000 A 
ATOM     14  C9  UNL     1     -26.280   2.367 -38.209  0.00  0.00    +0.000 A 
ATOM     15  C10 UNL     1     -27.670   2.411 -38.256  0.00  0.00    +0.000 A 
ATOM     16  C11 UNL     1     -28.305   3.592 -38.626  0.00  0.00    +0.000 A 
ATOM     17  C12 UNL     1     -27.547   4.726 -38.932  0.00  0.00    +0.000 A 
ENDBRANCH  10  12
ENDBRANCH   1  10
TORSDOF 3
ENDMDL
MODEL 6
REMARK VINA RESULT:    -4.513     24.272     25.753
REMARK INTER + INTRA:          -5.670
REMARK INTER:                  -5.249
REMARK INTRA:                  -0.421
REMARK UNBOUND:                -0.365
REMARK  Name = /home/anacleto/Desktop/manuscript_Mpro/naturecomm/supplementary_file_S2/6-chemical-library/molecular_docking/3D_ligand_structure/853.pdb
REMARK  3 active torsions:
REMARK  status: ('A' for Active; 'I' for Inactive)
REMARK    1  A    between atoms: C5_7  and  C6_8
REMARK    2  A    between atoms: C6_8  and  N2_9
REMARK    3  A    between atoms: N2_9  and  C7_10
REMARK                            x       y       z     vdW  Elec       q    Type
REMARK                         _______ _______ _______ _____ _____    ______ ____
ROOT
ATOM      1  C6  UNL     1     -34.810  -3.025 -15.487  0.00  0.00    +0.000 C 
ENDROOT
BRANCH   1   8
ATOM      2  C1  UNL     1     -32.470  -3.891 -15.238  0.00  0.00    +0.000 A 
ATOM      3  N1  UNL     1     -31.192  -3.777 -14.752  0.00  0.00    +0.000 N 
ATOM      4  C2  UNL     1     -30.746  -2.720 -13.996  0.00  0.00    +0.000 A 
ATOM      5  O1  UNL     1     -29.600  -2.637 -13.573  0.00  0.00    +0.000 OA
ATOM      6  C3  UNL     1     -31.751  -1.665 -13.711  0.00  0.00    +0.000 A 
ATOM      7  C4  UNL     1     -32.998  -1.787 -14.192  0.00  0.00    +0.000 A 
ATOM      8  C5  UNL     1     -33.387  -2.939 -14.994  0.00  0.00    +0.000 A 
ATOM      9  H2  UNL     1     -30.505  -4.495 -14.949  0.00  0.00    +0.000 HD
ENDBRANCH   1   8
BRANCH   1  10
ATOM     10  N2  UNL     1     -34.849  -2.563 -16.867  0.00  0.00    +0.000 N 
ATOM     11  H7  UNL     1     -33.980  -2.722 -17.370  0.00  0.00    +0.000 HD
BRANCH  10  12
ATOM     12  C7  UNL     1     -35.409  -1.317 -17.167  0.00  0.00    +0.000 A 
ATOM     13  C8  UNL     1     -34.819  -0.388 -18.033  0.00  0.00    +0.000 A 
ATOM     14  C9  UNL     1     -35.391   0.871 -18.242  0.00  0.00    +0.000 A 
ATOM     15  C10 UNL     1     -36.552   1.235 -17.566  0.00  0.00    +0.000 A 
ATOM     16  C11 UNL     1     -37.130   0.343 -16.669  0.00  0.00    +0.000 A 
ATOM     17  C12 UNL     1     -36.554  -0.914 -16.465  0.00  0.00    +0.000 A 
ENDBRANCH  10  12
ENDBRANCH   1  10
TORSDOF 3
ENDMDL
MODEL 7
REMARK VINA RESULT:    -4.416     14.352     15.296
REMARK INTER + INTRA:          -5.555
REMARK INTER:                  -5.263
REMARK INTRA:                  -0.292
REMARK UNBOUND:                -0.365
REMARK  Name = /home/anacleto/Desktop/manuscript_Mpro/naturecomm/supplementary_file_S2/6-chemical-library/molecular_docking/3D_ligand_structure/853.pdb
REMARK  3 active torsions:
REMARK  status: ('A' for Active; 'I' for Inactive)
REMARK    1  A    between atoms: C5_7  and  C6_8
REMARK    2  A    between atoms: C6_8  and  N2_9
REMARK    3  A    between atoms: N2_9  and  C7_10
REMARK                            x       y       z     vdW  Elec       q    Type
REMARK                         _______ _______ _______ _____ _____    ______ ____
ROOT
ATOM      1  C6  UNL     1     -22.946  -4.548 -28.620  0.00  0.00    +0.000 C 
ENDROOT
BRANCH   1   8
ATOM      2  C1  UNL     1     -21.604  -4.957 -26.541  0.00  0.00    +0.000 A 
ATOM      3  N1  UNL     1     -20.415  -4.941 -25.856  0.00  0.00    +0.000 N 
ATOM      4  C2  UNL     1     -19.218  -4.542 -26.400  0.00  0.00    +0.000 A 
ATOM      5  O1  UNL     1     -18.167  -4.537 -25.771  0.00  0.00    +0.000 OA
ATOM      6  C3  UNL     1     -19.270  -4.104 -27.817  0.00  0.00    +0.000 A 
ATOM      7  C4  UNL     1     -20.438  -4.124 -28.477  0.00  0.00    +0.000 A 
ATOM      8  C5  UNL     1     -21.663  -4.571 -27.828  0.00  0.00    +0.000 A 
ATOM      9  H2  UNL     1     -20.379  -5.243 -24.890  0.00  0.00    +0.000 HD
ENDBRANCH   1   8
BRANCH   1  10
ATOM     10  N2  UNL     1     -23.931  -5.365 -27.925  0.00  0.00    +0.000 N 
ATOM     11  H7  UNL     1     -23.948  -6.331 -28.238  0.00  0.00    +0.000 HD
BRANCH  10  12
ATOM     12  C7  UNL     1     -25.217  -4.862 -27.703  0.00  0.00    +0.000 A 
ATOM     13  C8  UNL     1     -26.133  -5.436 -26.814  0.00  0.00    +0.000 A 
ATOM     14  C9  UNL     1     -27.431  -4.929 -26.684  0.00  0.00    +0.000 A 
ATOM     15  C10 UNL     1     -27.845  -3.855 -27.464  0.00  0.00    +0.000 A 
ATOM     16  C11 UNL     1     -26.965  -3.297 -28.385  0.00  0.00    +0.000 A 
ATOM     17  C12 UNL     1     -25.669  -3.808 -28.510  0.00  0.00    +0.000 A 
ENDBRANCH  10  12
ENDBRANCH   1  10
TORSDOF 3
ENDMDL
MODEL 8
REMARK VINA RESULT:    -4.367     13.944     15.654
REMARK INTER + INTRA:          -5.498
REMARK INTER:                  -5.103
REMARK INTRA:                  -0.395
REMARK UNBOUND:                -0.365
REMARK  Name = /home/anacleto/Desktop/manuscript_Mpro/naturecomm/supplementary_file_S2/6-chemical-library/molecular_docking/3D_ligand_structure/853.pdb
REMARK  3 active torsions:
REMARK  status: ('A' for Active; 'I' for Inactive)
REMARK    1  A    between atoms: C5_7  and  C6_8
REMARK    2  A    between atoms: C6_8  and  N2_9
REMARK    3  A    between atoms: N2_9  and  C7_10
REMARK                            x       y       z     vdW  Elec       q    Type
REMARK                         _______ _______ _______ _____ _____    ______ ____
ROOT
ATOM      1  C6  UNL     1     -24.431  -3.393 -28.906  0.00  0.00    +0.000 C 
ENDROOT
BRANCH   1   8
ATOM      2  C1  UNL     1     -26.911  -3.373 -28.526  0.00  0.00    +0.000 A 
ATOM      3  N1  UNL     1     -28.034  -3.850 -27.900  0.00  0.00    +0.000 N 
ATOM      4  C2  UNL     1     -28.027  -4.867 -26.976  0.00  0.00    +0.000 A 
ATOM      5  O1  UNL     1     -29.043  -5.279 -26.429  0.00  0.00    +0.000 OA
ATOM      6  C3  UNL     1     -26.696  -5.446 -26.667  0.00  0.00    +0.000 A 
ATOM      7  C4  UNL     1     -25.604  -4.971 -27.285  0.00  0.00    +0.000 A 
ATOM      8  C5  UNL     1     -25.700  -3.894 -28.262  0.00  0.00    +0.000 A 
ATOM      9  H2  UNL     1     -28.943  -3.457 -28.113  0.00  0.00    +0.000 HD
ENDBRANCH   1   8
BRANCH   1  10
ATOM     10  N2  UNL     1     -23.715  -4.532 -29.461  0.00  0.00    +0.000 N 
ATOM     11  H7  UNL     1     -24.255  -5.393 -29.450  0.00  0.00    +0.000 HD
BRANCH  10  12
ATOM     12  C7  UNL     1     -22.378  -4.747 -29.113  0.00  0.00    +0.000 A 
ATOM     13  C8  UNL     1     -21.522  -5.609 -29.810  0.00  0.00    +0.000 A 
ATOM     14  C9  UNL     1     -20.212  -5.837 -29.375  0.00  0.00    +0.000 A 
ATOM     15  C10 UNL     1     -19.742  -5.227 -28.217  0.00  0.00    +0.000 A 
ATOM     16  C11 UNL     1     -20.588  -4.399 -27.486  0.00  0.00    +0.000 A 
ATOM     17  C12 UNL     1     -21.896  -4.176 -27.926  0.00  0.00    +0.000 A 
ENDBRANCH  10  12
ENDBRANCH   1  10
TORSDOF 3
ENDMDL
MODEL 9
REMARK VINA RESULT:    -4.366     14.086     15.506
REMARK INTER + INTRA:          -5.496
REMARK INTER:                  -5.131
REMARK INTRA:                  -0.365
REMARK UNBOUND:                -0.365
REMARK  Name = /home/anacleto/Desktop/manuscript_Mpro/naturecomm/supplementary_file_S2/6-chemical-library/molecular_docking/3D_ligand_structure/853.pdb
REMARK  3 active torsions:
REMARK  status: ('A' for Active; 'I' for Inactive)
REMARK    1  A    between atoms: C5_7  and  C6_8
REMARK    2  A    between atoms: C6_8  and  N2_9
REMARK    3  A    between atoms: N2_9  and  C7_10
REMARK                            x       y       z     vdW  Elec       q    Type
REMARK                         _______ _______ _______ _____ _____    ______ ____
ROOT
ATOM      1  C6  UNL     1     -35.474  -4.996 -36.456  0.00  0.00    +0.000 C 
ENDROOT
BRANCH   1   8
ATOM      2  C1  UNL     1     -34.864  -7.290 -37.267  0.00  0.00    +0.000 A 
ATOM      3  N1  UNL     1     -34.063  -8.133 -37.994  0.00  0.00    +0.000 N 
ATOM      4  C2  UNL     1     -32.993  -7.718 -38.749  0.00  0.00    +0.000 A 
ATOM      5  O1  UNL     1     -32.291  -8.489 -39.393  0.00  0.00    +0.000 OA
ATOM      6  C3  UNL     1     -32.725  -6.258 -38.737  0.00  0.00    +0.000 A 
ATOM      7  C4  UNL     1     -33.515  -5.443 -38.023  0.00  0.00    +0.000 A 
ATOM      8  C5  UNL     1     -34.638  -5.964 -37.255  0.00  0.00    +0.000 A 
ATOM      9  H2  UNL     1     -34.248  -9.129 -38.005  0.00  0.00    +0.000 HD
ENDBRANCH   1   8
BRANCH   1  10
ATOM     10  N2  UNL     1     -34.797  -3.707 -36.440  0.00  0.00    +0.000 N 
ATOM     11  H7  UNL     1     -34.118  -3.616 -35.691  0.00  0.00    +0.000 HD
BRANCH  10  12
ATOM     12  C7  UNL     1     -35.536  -2.533 -36.623  0.00  0.00    +0.000 A 
ATOM     13  C8  UNL     1     -35.390  -1.391 -35.827  0.00  0.00    +0.000 A 
ATOM     14  C9  UNL     1     -36.205  -0.269 -36.014  0.00  0.00    +0.000 A 
ATOM     15  C10 UNL     1     -37.201  -0.281 -36.985  0.00  0.00    +0.000 A 
ATOM     16  C11 UNL     1     -37.391  -1.421 -37.758  0.00  0.00    +0.000 A 
ATOM     17  C12 UNL     1     -36.573  -2.538 -37.567  0.00  0.00    +0.000 A 
ENDBRANCH  10  12
ENDBRANCH   1  10
TORSDOF 3
ENDMDL
