MODEL 1
REMARK VINA RESULT:    -5.331      0.000      0.000
REMARK INTER + INTRA:          -6.886
REMARK INTER:                  -6.546
REMARK INTRA:                  -0.340
REMARK UNBOUND:                -0.308
REMARK  Name = /home/anacleto/Desktop/manuscript_Mpro/naturecomm/supplementary_file_S2/6-chemical-library/molecular_docking/3D_ligand_structure/681.pdb
REMARK  4 active torsions:
REMARK  status: ('A' for Active; 'I' for Inactive)
REMARK    1  A    between atoms: C4_5  and  N2_6
REMARK    2  A    between atoms: C5_7  and  C6_9
REMARK    3  A    between atoms: C6_9  and  N3_10
REMARK    4  A    between atoms: N3_10  and  C7_11
REMARK                            x       y       z     vdW  Elec       q    Type
REMARK                         _______ _______ _______ _____ _____    ______ ____
ROOT
ATOM      1  N2  UNL     1      14.186  15.972  -2.857  0.00  0.00    +0.000 N 
ATOM      2  C5  UNL     1      15.148  15.082  -2.418  0.00  0.00    +0.000 C 
ATOM      3  O1  UNL     1      15.569  15.064  -1.262  0.00  0.00    +0.000 OA
ATOM      4  H9  UNL     1      13.647  15.704  -3.673  0.00  0.00    +0.000 HD
ENDROOT
BRANCH   1   9
ATOM      5  C1  UNL     1      11.974  16.592  -1.964  0.00  0.00    +0.000 C 
ATOM      6  N1  UNL     1      11.584  17.341  -3.169  0.00  0.00    +0.000 NA
ATOM      7  C2  UNL     1      12.323  18.604  -3.088  0.00  0.00    +0.000 C 
ATOM      8  C3  UNL     1      13.605  18.296  -2.317  0.00  0.00    +0.000 C 
ATOM      9  C4  UNL     1      13.483  16.830  -1.907  0.00  0.00    +0.000 C 
ATOM     10  H3  UNL     1      10.578  17.511  -3.174  0.00  0.00    +0.000 HD
ENDBRANCH   1   9
BRANCH   2  11
ATOM     11  C6  UNL     1      15.636  14.097  -3.491  0.00  0.00    +0.000 C 
BRANCH  11  12
ATOM     12  N3  UNL     1      14.820  14.236  -4.700  0.00  0.00    +0.000 N 
ATOM     13  H12 UNL     1      15.149  15.016  -5.273  0.00  0.00    +0.000 HD
BRANCH  12  14
ATOM     14  C7  UNL     1      14.509  13.102  -5.453  0.00  0.00    +0.000 A 
ATOM     15  C8  UNL     1      15.295  12.805  -6.576  0.00  0.00    +0.000 A 
ATOM     16  C9  UNL     1      14.996  11.721  -7.408  0.00  0.00    +0.000 A 
ATOM     17  C10 UNL     1      13.883  10.930  -7.146  0.00  0.00    +0.000 A 
ATOM     18  C11 UNL     1      13.065  11.233  -6.062  0.00  0.00    +0.000 A 
ATOM     19  C12 UNL     1      13.369  12.319  -5.233  0.00  0.00    +0.000 A 
ENDBRANCH  12  14
ENDBRANCH  11  12
ENDBRANCH   2  11
TORSDOF 4
ENDMDL
MODEL 2
REMARK VINA RESULT:    -5.183      3.822      6.851
REMARK INTER + INTRA:          -6.702
REMARK INTER:                  -6.368
REMARK INTRA:                  -0.334
REMARK UNBOUND:                -0.308
REMARK  Name = /home/anacleto/Desktop/manuscript_Mpro/naturecomm/supplementary_file_S2/6-chemical-library/molecular_docking/3D_ligand_structure/681.pdb
REMARK  4 active torsions:
REMARK  status: ('A' for Active; 'I' for Inactive)
REMARK    1  A    between atoms: C4_5  and  N2_6
REMARK    2  A    between atoms: C5_7  and  C6_9
REMARK    3  A    between atoms: C6_9  and  N3_10
REMARK    4  A    between atoms: N3_10  and  C7_11
REMARK                            x       y       z     vdW  Elec       q    Type
REMARK                         _______ _______ _______ _____ _____    ______ ____
ROOT
ATOM      1  N2  UNL     1      15.012  11.211  -3.285  0.00  0.00    +0.000 N 
ATOM      2  C5  UNL     1      16.162  10.876  -2.596  0.00  0.00    +0.000 C 
ATOM      3  O1  UNL     1      17.051  10.172  -3.074  0.00  0.00    +0.000 OA
ATOM      4  H9  UNL     1      14.523  12.048  -2.988  0.00  0.00    +0.000 HD
ENDROOT
BRANCH   1   9
ATOM      5  C1  UNL     1      15.059  12.134  -5.570  0.00  0.00    +0.000 C 
ATOM      6  N1  UNL     1      13.754  12.801  -5.438  0.00  0.00    +0.000 NA
ATOM      7  C2  UNL     1      12.765  11.726  -5.552  0.00  0.00    +0.000 C 
ATOM      8  C3  UNL     1      13.446  10.465  -5.024  0.00  0.00    +0.000 C 
ATOM      9  C4  UNL     1      14.878  10.888  -4.703  0.00  0.00    +0.000 C 
ATOM     10  H3  UNL     1      13.627  13.487  -6.181  0.00  0.00    +0.000 HD
ENDBRANCH   1   9
BRANCH   2  11
ATOM     11  C6  UNL     1      16.250  11.474  -1.184  0.00  0.00    +0.000 C 
BRANCH  11  12
ATOM     12  N3  UNL     1      16.293  12.936  -1.265  0.00  0.00    +0.000 N 
ATOM     13  H12 UNL     1      15.374  13.338  -1.068  0.00  0.00    +0.000 HD
BRANCH  12  14
ATOM     14  C7  UNL     1      17.334  13.628  -0.642  0.00  0.00    +0.000 A 
ATOM     15  C8  UNL     1      17.094  14.932  -0.186  0.00  0.00    +0.000 A 
ATOM     16  C9  UNL     1      18.112  15.702   0.387  0.00  0.00    +0.000 A 
ATOM     17  C10 UNL     1      19.400  15.187   0.487  0.00  0.00    +0.000 A 
ATOM     18  C11 UNL     1      19.669  13.911   0.001  0.00  0.00    +0.000 A 
ATOM     19  C12 UNL     1      18.646  13.146  -0.571  0.00  0.00    +0.000 A 
ENDBRANCH  12  14
ENDBRANCH  11  12
ENDBRANCH   2  11
TORSDOF 4
ENDMDL
MODEL 3
REMARK VINA RESULT:    -5.072     16.981     18.404
REMARK INTER + INTRA:          -6.566
REMARK INTER:                  -6.293
REMARK INTRA:                  -0.273
REMARK UNBOUND:                -0.308
REMARK  Name = /home/anacleto/Desktop/manuscript_Mpro/naturecomm/supplementary_file_S2/6-chemical-library/molecular_docking/3D_ligand_structure/681.pdb
REMARK  4 active torsions:
REMARK  status: ('A' for Active; 'I' for Inactive)
REMARK    1  A    between atoms: C4_5  and  N2_6
REMARK    2  A    between atoms: C5_7  and  C6_9
REMARK    3  A    between atoms: C6_9  and  N3_10
REMARK    4  A    between atoms: N3_10  and  C7_11
REMARK                            x       y       z     vdW  Elec       q    Type
REMARK                         _______ _______ _______ _____ _____    ______ ____
ROOT
ATOM      1  N2  UNL     1      15.462   2.124   9.733  0.00  0.00    +0.000 N 
ATOM      2  C5  UNL     1      16.750   2.453   9.356  0.00  0.00    +0.000 C 
ATOM      3  O1  UNL     1      17.524   1.651   8.835  0.00  0.00    +0.000 OA
ATOM      4  H9  UNL     1      14.795   2.883   9.810  0.00  0.00    +0.000 HD
ENDROOT
BRANCH   1   9
ATOM      5  C1  UNL     1      14.108   0.937   8.051  0.00  0.00    +0.000 C 
ATOM      6  N1  UNL     1      12.843   1.549   8.487  0.00  0.00    +0.000 NA
ATOM      7  C2  UNL     1      12.491   0.850   9.726  0.00  0.00    +0.000 C 
ATOM      8  C3  UNL     1      13.812   0.416  10.358  0.00  0.00    +0.000 C 
ATOM      9  C4  UNL     1      14.889   0.833   9.361  0.00  0.00    +0.000 C 
ATOM     10  H3  UNL     1      12.120   1.417   7.780  0.00  0.00    +0.000 HD
ENDBRANCH   1   9
BRANCH   2  11
ATOM     11  C6  UNL     1      17.133   3.916   9.624  0.00  0.00    +0.000 C 
BRANCH  11  12
ATOM     12  N3  UNL     1      17.939   4.430   8.514  0.00  0.00    +0.000 N 
ATOM     13  H12 UNL     1      17.342   4.757   7.751  0.00  0.00    +0.000 HD
BRANCH  12  14
ATOM     14  C7  UNL     1      19.003   5.295   8.780  0.00  0.00    +0.000 A 
ATOM     15  C8  UNL     1      18.793   6.676   8.654  0.00  0.00    +0.000 A 
ATOM     16  C9  UNL     1      19.833   7.591   8.842  0.00  0.00    +0.000 A 
ATOM     17  C10 UNL     1      21.115   7.135   9.134  0.00  0.00    +0.000 A 
ATOM     18  C11 UNL     1      21.354   5.768   9.222  0.00  0.00    +0.000 A 
ATOM     19  C12 UNL     1      20.308   4.857   9.031  0.00  0.00    +0.000 A 
ENDBRANCH  12  14
ENDBRANCH  11  12
ENDBRANCH   2  11
TORSDOF 4
ENDMDL
MODEL 4
REMARK VINA RESULT:    -4.965      2.296      2.937
REMARK INTER + INTRA:          -6.434
REMARK INTER:                  -6.017
REMARK INTRA:                  -0.417
REMARK UNBOUND:                -0.308
REMARK  Name = /home/anacleto/Desktop/manuscript_Mpro/naturecomm/supplementary_file_S2/6-chemical-library/molecular_docking/3D_ligand_structure/681.pdb
REMARK  4 active torsions:
REMARK  status: ('A' for Active; 'I' for Inactive)
REMARK    1  A    between atoms: C4_5  and  N2_6
REMARK    2  A    between atoms: C5_7  and  C6_9
REMARK    3  A    between atoms: C6_9  and  N3_10
REMARK    4  A    between atoms: N3_10  and  C7_11
REMARK                            x       y       z     vdW  Elec       q    Type
REMARK                         _______ _______ _______ _____ _____    ______ ____
ROOT
ATOM      1  N2  UNL     1      16.055  13.456  -2.328  0.00  0.00    +0.000 N 
ATOM      2  C5  UNL     1      16.411  12.236  -1.786  0.00  0.00    +0.000 C 
ATOM      3  O1  UNL     1      16.629  12.070  -0.587  0.00  0.00    +0.000 OA
ATOM      4  H9  UNL     1      15.557  13.443  -3.211  0.00  0.00    +0.000 HD
ENDROOT
BRANCH   1   9
ATOM      5  C1  UNL     1      14.485  15.315  -1.938  0.00  0.00    +0.000 C 
ATOM      6  N1  UNL     1      14.995  16.118  -3.061  0.00  0.00    +0.000 NA
ATOM      7  C2  UNL     1      16.266  16.672  -2.585  0.00  0.00    +0.000 C 
ATOM      8  C3  UNL     1      16.815  15.667  -1.575  0.00  0.00    +0.000 C 
ATOM      9  C4  UNL     1      15.741  14.588  -1.459  0.00  0.00    +0.000 C 
ATOM     10  H3  UNL     1      14.340  16.864  -3.293  0.00  0.00    +0.000 HD
ENDBRANCH   1   9
BRANCH   2  11
ATOM     11  C6  UNL     1      16.492  11.091  -2.808  0.00  0.00    +0.000 C 
BRANCH  11  12
ATOM     12  N3  UNL     1      15.145  10.711  -3.237  0.00  0.00    +0.000 N 
ATOM     13  H12 UNL     1      14.439  11.102  -2.610  0.00  0.00    +0.000 HD
BRANCH  12  14
ATOM     14  C7  UNL     1      14.795  10.824  -4.585  0.00  0.00    +0.000 A 
ATOM     15  C8  UNL     1      15.765  11.271  -5.494  0.00  0.00    +0.000 A 
ATOM     16  C9  UNL     1      15.460  11.468  -6.845  0.00  0.00    +0.000 A 
ATOM     17  C10 UNL     1      14.166  11.247  -7.304  0.00  0.00    +0.000 A 
ATOM     18  C11 UNL     1      13.179  10.844  -6.410  0.00  0.00    +0.000 A 
ATOM     19  C12 UNL     1      13.490  10.649  -5.060  0.00  0.00    +0.000 A 
ENDBRANCH  12  14
ENDBRANCH  11  12
ENDBRANCH   2  11
TORSDOF 4
ENDMDL
MODEL 5
REMARK VINA RESULT:    -4.949      2.027      2.666
REMARK INTER + INTRA:          -6.414
REMARK INTER:                  -6.092
REMARK INTRA:                  -0.322
REMARK UNBOUND:                -0.308
REMARK  Name = /home/anacleto/Desktop/manuscript_Mpro/naturecomm/supplementary_file_S2/6-chemical-library/molecular_docking/3D_ligand_structure/681.pdb
REMARK  4 active torsions:
REMARK  status: ('A' for Active; 'I' for Inactive)
REMARK    1  A    between atoms: C4_5  and  N2_6
REMARK    2  A    between atoms: C5_7  and  C6_9
REMARK    3  A    between atoms: C6_9  and  N3_10
REMARK    4  A    between atoms: N3_10  and  C7_11
REMARK                            x       y       z     vdW  Elec       q    Type
REMARK                         _______ _______ _______ _____ _____    ______ ____
ROOT
ATOM      1  N2  UNL     1      13.664  14.937  -3.402  0.00  0.00    +0.000 N 
ATOM      2  C5  UNL     1      14.393  13.765  -3.453  0.00  0.00    +0.000 C 
ATOM      3  O1  UNL     1      14.959  13.282  -2.472  0.00  0.00    +0.000 OA
ATOM      4  H9  UNL     1      12.958  15.074  -4.117  0.00  0.00    +0.000 HD
ENDROOT
BRANCH   1   9
ATOM      5  C1  UNL     1      11.892  15.923  -2.002  0.00  0.00    +0.000 C 
ATOM      6  N1  UNL     1      11.790  17.148  -2.811  0.00  0.00    +0.000 NA
ATOM      7  C2  UNL     1      12.964  17.945  -2.443  0.00  0.00    +0.000 C 
ATOM      8  C3  UNL     1      14.046  16.945  -2.039  0.00  0.00    +0.000 C 
ATOM      9  C4  UNL     1      13.376  15.575  -2.120  0.00  0.00    +0.000 C 
ATOM     10  H3  UNL     1      10.930  17.650  -2.592  0.00  0.00    +0.000 HD
ENDBRANCH   1   9
BRANCH   2  11
ATOM     11  C6  UNL     1      14.424  13.099  -4.836  0.00  0.00    +0.000 C 
BRANCH  11  12
ATOM     12  N3  UNL     1      15.704  13.375  -5.493  0.00  0.00    +0.000 N 
ATOM     13  H12 UNL     1      16.207  14.122  -5.010  0.00  0.00    +0.000 HD
BRANCH  12  14
ATOM     14  C7  UNL     1      16.532  12.312  -5.860  0.00  0.00    +0.000 A 
ATOM     15  C8  UNL     1      16.946  11.410  -4.869  0.00  0.00    +0.000 A 
ATOM     16  C9  UNL     1      17.827  10.364  -5.160  0.00  0.00    +0.000 A 
ATOM     17  C10 UNL     1      18.334  10.219  -6.447  0.00  0.00    +0.000 A 
ATOM     18  C11 UNL     1      17.969  11.129  -7.434  0.00  0.00    +0.000 A 
ATOM     19  C12 UNL     1      17.088  12.174  -7.138  0.00  0.00    +0.000 A 
ENDBRANCH  12  14
ENDBRANCH  11  12
ENDBRANCH   2  11
TORSDOF 4
ENDMDL
MODEL 6
REMARK VINA RESULT:    -4.924     16.974     17.921
REMARK INTER + INTRA:          -6.383
REMARK INTER:                  -6.068
REMARK INTRA:                  -0.315
REMARK UNBOUND:                -0.308
REMARK  Name = /home/anacleto/Desktop/manuscript_Mpro/naturecomm/supplementary_file_S2/6-chemical-library/molecular_docking/3D_ligand_structure/681.pdb
REMARK  4 active torsions:
REMARK  status: ('A' for Active; 'I' for Inactive)
REMARK    1  A    between atoms: C4_5  and  N2_6
REMARK    2  A    between atoms: C5_7  and  C6_9
REMARK    3  A    between atoms: C6_9  and  N3_10
REMARK    4  A    between atoms: N3_10  and  C7_11
REMARK                            x       y       z     vdW  Elec       q    Type
REMARK                         _______ _______ _______ _____ _____    ______ ____
ROOT
ATOM      1  N2  UNL     1      18.168   4.600   8.769  0.00  0.00    +0.000 N 
ATOM      2  C5  UNL     1      17.645   3.322   8.827  0.00  0.00    +0.000 C 
ATOM      3  O1  UNL     1      18.264   2.363   9.286  0.00  0.00    +0.000 OA
ATOM      4  H9  UNL     1      17.508   5.368   8.725  0.00  0.00    +0.000 HD
ENDROOT
BRANCH   1   9
ATOM      5  C1  UNL     1      19.223   5.858  10.607  0.00  0.00    +0.000 C 
ATOM      6  N1  UNL     1      19.068   7.161   9.941  0.00  0.00    +0.000 NA
ATOM      7  C2  UNL     1      20.105   7.185   8.906  0.00  0.00    +0.000 C 
ATOM      8  C3  UNL     1      20.332   5.730   8.499  0.00  0.00    +0.000 C 
ATOM      9  C4  UNL     1      19.435   4.911   9.425  0.00  0.00    +0.000 C 
ATOM     10  H3  UNL     1      19.206   7.920  10.607  0.00  0.00    +0.000 HD
ENDBRANCH   1   9
BRANCH   2  11
ATOM     11  C6  UNL     1      16.212   3.200   8.288  0.00  0.00    +0.000 C 
BRANCH  11  12
ATOM     12  N3  UNL     1      16.128   2.082   7.346  0.00  0.00    +0.000 N 
ATOM     13  H12 UNL     1      17.060   1.794   7.039  0.00  0.00    +0.000 HD
BRANCH  12  14
ATOM     14  C7  UNL     1      15.293   1.001   7.635  0.00  0.00    +0.000 A 
ATOM     15  C8  UNL     1      14.108   1.239   8.346  0.00  0.00    +0.000 A 
ATOM     16  C9  UNL     1      13.262   0.191   8.724  0.00  0.00    +0.000 A 
ATOM     17  C10 UNL     1      13.604  -1.122   8.418  0.00  0.00    +0.000 A 
ATOM     18  C11 UNL     1      14.796  -1.383   7.750  0.00  0.00    +0.000 A 
ATOM     19  C12 UNL     1      15.639  -0.331   7.376  0.00  0.00    +0.000 A 
ENDBRANCH  12  14
ENDBRANCH  11  12
ENDBRANCH   2  11
TORSDOF 4
ENDMDL
MODEL 7
REMARK VINA RESULT:    -4.839     17.034     18.422
REMARK INTER + INTRA:          -6.278
REMARK INTER:                  -6.006
REMARK INTRA:                  -0.272
REMARK UNBOUND:                -0.308
REMARK  Name = /home/anacleto/Desktop/manuscript_Mpro/naturecomm/supplementary_file_S2/6-chemical-library/molecular_docking/3D_ligand_structure/681.pdb
REMARK  4 active torsions:
REMARK  status: ('A' for Active; 'I' for Inactive)
REMARK    1  A    between atoms: C4_5  and  N2_6
REMARK    2  A    between atoms: C5_7  and  C6_9
REMARK    3  A    between atoms: C6_9  and  N3_10
REMARK    4  A    between atoms: N3_10  and  C7_11
REMARK                            x       y       z     vdW  Elec       q    Type
REMARK                         _______ _______ _______ _____ _____    ______ ____
ROOT
ATOM      1  N2  UNL     1      15.826   3.159  10.494  0.00  0.00    +0.000 N 
ATOM      2  C5  UNL     1      16.390   3.123   9.233  0.00  0.00    +0.000 C 
ATOM      3  O1  UNL     1      15.769   2.779   8.228  0.00  0.00    +0.000 OA
ATOM      4  H9  UNL     1      16.259   3.770  11.176  0.00  0.00    +0.000 HD
ENDROOT
BRANCH   1   9
ATOM      5  C1  UNL     1      13.855   3.804  11.824  0.00  0.00    +0.000 C 
ATOM      6  N1  UNL     1      14.264   3.022  13.001  0.00  0.00    +0.000 NA
ATOM      7  C2  UNL     1      13.969   1.629  12.654  0.00  0.00    +0.000 C 
ATOM      8  C3  UNL     1      14.099   1.535  11.135  0.00  0.00    +0.000 C 
ATOM      9  C4  UNL     1      14.390   2.959  10.668  0.00  0.00    +0.000 C 
ATOM     10  H3  UNL     1      13.734   3.309  13.823  0.00  0.00    +0.000 HD
ENDBRANCH   1   9
BRANCH   2  11
ATOM     11  C6  UNL     1      17.859   3.569   9.184  0.00  0.00    +0.000 C 
BRANCH  11  12
ATOM     12  N3  UNL     1      17.976   4.814   8.422  0.00  0.00    +0.000 N 
ATOM     13  H12 UNL     1      17.087   5.318   8.411  0.00  0.00    +0.000 HD
BRANCH  12  14
ATOM     14  C7  UNL     1      19.073   5.651   8.637  0.00  0.00    +0.000 A 
ATOM     15  C8  UNL     1      20.270   5.084   9.097  0.00  0.00    +0.000 A 
ATOM     16  C9  UNL     1      21.384   5.876   9.394  0.00  0.00    +0.000 A 
ATOM     17  C10 UNL     1      21.308   7.259   9.263  0.00  0.00    +0.000 A 
ATOM     18  C11 UNL     1      20.116   7.845   8.850  0.00  0.00    +0.000 A 
ATOM     19  C12 UNL     1      19.004   7.047   8.554  0.00  0.00    +0.000 A 
ENDBRANCH  12  14
ENDBRANCH  11  12
ENDBRANCH   2  11
TORSDOF 4
ENDMDL
MODEL 8
REMARK VINA RESULT:    -4.724      4.497      6.475
REMARK INTER + INTRA:          -6.137
REMARK INTER:                  -5.741
REMARK INTRA:                  -0.395
REMARK UNBOUND:                -0.308
REMARK  Name = /home/anacleto/Desktop/manuscript_Mpro/naturecomm/supplementary_file_S2/6-chemical-library/molecular_docking/3D_ligand_structure/681.pdb
REMARK  4 active torsions:
REMARK  status: ('A' for Active; 'I' for Inactive)
REMARK    1  A    between atoms: C4_5  and  N2_6
REMARK    2  A    between atoms: C5_7  and  C6_9
REMARK    3  A    between atoms: C6_9  and  N3_10
REMARK    4  A    between atoms: N3_10  and  C7_11
REMARK                            x       y       z     vdW  Elec       q    Type
REMARK                         _______ _______ _______ _____ _____    ______ ____
ROOT
ATOM      1  N2  UNL     1      15.805  11.867  -6.313  0.00  0.00    +0.000 N 
ATOM      2  C5  UNL     1      16.349  12.648  -7.316  0.00  0.00    +0.000 C 
ATOM      3  O1  UNL     1      15.839  13.700  -7.699  0.00  0.00    +0.000 OA
ATOM      4  H9  UNL     1      16.435  11.244  -5.820  0.00  0.00    +0.000 HD
ENDROOT
BRANCH   1   9
ATOM      5  C1  UNL     1      14.827  11.969  -4.053  0.00  0.00    +0.000 C 
ATOM      6  N1  UNL     1      14.417  10.556  -4.055  0.00  0.00    +0.000 NA
ATOM      7  C2  UNL     1      13.229  10.507  -4.912  0.00  0.00    +0.000 C 
ATOM      8  C3  UNL     1      13.391  11.636  -5.927  0.00  0.00    +0.000 C 
ATOM      9  C4  UNL     1      14.676  12.355  -5.525  0.00  0.00    +0.000 C 
ATOM     10  H3  UNL     1      14.193  10.248  -3.110  0.00  0.00    +0.000 HD
ENDBRANCH   1   9
BRANCH   2  11
ATOM     11  C6  UNL     1      17.660  12.102  -7.901  0.00  0.00    +0.000 C 
BRANCH  11  12
ATOM     12  N3  UNL     1      17.663  10.638  -7.834  0.00  0.00    +0.000 N 
ATOM     13  H12 UNL     1      17.377  10.233  -8.728  0.00  0.00    +0.000 HD
BRANCH  12  14
ATOM     14  C7  UNL     1      18.754   9.979  -7.263  0.00  0.00    +0.000 A 
ATOM     15  C8  UNL     1      19.366   8.944  -7.984  0.00  0.00    +0.000 A 
ATOM     16  C9  UNL     1      20.419   8.202  -7.440  0.00  0.00    +0.000 A 
ATOM     17  C10 UNL     1      20.861   8.466  -6.149  0.00  0.00    +0.000 A 
ATOM     18  C11 UNL     1      20.240   9.461  -5.400  0.00  0.00    +0.000 A 
ATOM     19  C12 UNL     1      19.185  10.200  -5.949  0.00  0.00    +0.000 A 
ENDBRANCH  12  14
ENDBRANCH  11  12
ENDBRANCH   2  11
TORSDOF 4
ENDMDL
MODEL 9
REMARK VINA RESULT:    -4.531     17.630     18.297
REMARK INTER + INTRA:          -5.898
REMARK INTER:                  -5.590
REMARK INTRA:                  -0.308
REMARK UNBOUND:                -0.308
REMARK  Name = /home/anacleto/Desktop/manuscript_Mpro/naturecomm/supplementary_file_S2/6-chemical-library/molecular_docking/3D_ligand_structure/681.pdb
REMARK  4 active torsions:
REMARK  status: ('A' for Active; 'I' for Inactive)
REMARK    1  A    between atoms: C4_5  and  N2_6
REMARK    2  A    between atoms: C5_7  and  C6_9
REMARK    3  A    between atoms: C6_9  and  N3_10
REMARK    4  A    between atoms: N3_10  and  C7_11
REMARK                            x       y       z     vdW  Elec       q    Type
REMARK                         _______ _______ _______ _____ _____    ______ ____
ROOT
ATOM      1  N2  UNL     1      18.825   5.038  10.274  0.00  0.00    +0.000 N 
ATOM      2  C5  UNL     1      17.929   3.988  10.206  0.00  0.00    +0.000 C 
ATOM      3  O1  UNL     1      17.455   3.444  11.203  0.00  0.00    +0.000 OA
ATOM      4  H9  UNL     1      18.886   5.646   9.466  0.00  0.00    +0.000 HD
ENDROOT
BRANCH   1   9
ATOM      5  C1  UNL     1      19.052   7.201  11.432  0.00  0.00    +0.000 C 
ATOM      6  N1  UNL     1      20.340   7.523  10.798  0.00  0.00    +0.000 NA
ATOM      7  C2  UNL     1      21.325   6.688  11.492  0.00  0.00    +0.000 C 
ATOM      8  C3  UNL     1      20.573   5.440  11.952  0.00  0.00    +0.000 C 
ATOM      9  C4  UNL     1      19.119   5.679  11.554  0.00  0.00    +0.000 C 
ATOM     10  H3  UNL     1      20.559   8.512  10.915  0.00  0.00    +0.000 HD
ENDBRANCH   1   9
BRANCH   2  11
ATOM     11  C6  UNL     1      17.556   3.567   8.777  0.00  0.00    +0.000 C 
BRANCH  11  12
ATOM     12  N3  UNL     1      16.099   3.489   8.646  0.00  0.00    +0.000 N 
ATOM     13  H12 UNL     1      15.747   4.244   8.054  0.00  0.00    +0.000 HD
BRANCH  12  14
ATOM     14  C7  UNL     1      15.498   2.258   8.373  0.00  0.00    +0.000 A 
ATOM     15  C8  UNL     1      14.281   1.952   8.998  0.00  0.00    +0.000 A 
ATOM     16  C9  UNL     1      13.662   0.711   8.818  0.00  0.00    +0.000 A 
ATOM     17  C10 UNL     1      14.268  -0.259   8.028  0.00  0.00    +0.000 A 
ATOM     18  C11 UNL     1      15.497   0.009   7.433  0.00  0.00    +0.000 A 
ATOM     19  C12 UNL     1      16.112   1.252   7.617  0.00  0.00    +0.000 A 
ENDBRANCH  12  14
ENDBRANCH  11  12
ENDBRANCH   2  11
TORSDOF 4
ENDMDL
