MODEL 1
REMARK VINA RESULT:    -4.733      0.000      0.000
REMARK INTER + INTRA:          -5.224
REMARK INTER:                  -4.914
REMARK INTRA:                  -0.310
REMARK UNBOUND:                -0.215
REMARK  Name = /home/anacleto/Desktop/manuscript_Mpro/naturecomm/supplementary_file_S2/6-chemical-library/molecular_docking/3D_ligand_structure/1120.pdb
REMARK  1 active torsions:
REMARK  status: ('A' for Active; 'I' for Inactive)
REMARK    1  A    between atoms: N1_7  and  C5_8
REMARK                            x       y       z     vdW  Elec       q    Type
REMARK                         _______ _______ _______ _____ _____    ______ ____
ROOT
ATOM      1  O1  UNL     1      22.135   6.890  12.323  0.00  0.00    +0.000 OA
ATOM      2  C1  UNL     1      21.022   7.138  12.770  0.00  0.00    +0.000 C 
ATOM      3  C2  UNL     1      20.828   7.461  14.221  0.00  0.00    +0.000 C 
ATOM      4  C3  UNL     1      19.443   8.042  14.280  0.00  0.00    +0.000 C 
ATOM      5  C4  UNL     1      18.813   7.612  12.990  0.00  0.00    +0.000 C 
ATOM      6  O2  UNL     1      17.604   7.690  12.821  0.00  0.00    +0.000 OA
ATOM      7  N1  UNL     1      19.800   7.169  12.132  0.00  0.00    +0.000 N 
ENDROOT
BRANCH   7   8
ATOM      8  C5  UNL     1      19.583   6.793  10.765  0.00  0.00    +0.000 A 
ATOM      9  C6  UNL     1      19.768   7.704   9.710  0.00  0.00    +0.000 A 
ATOM     10  C7  UNL     1      19.556   7.338   8.374  0.00  0.00    +0.000 A 
ATOM     11  C8  UNL     1      19.153   6.048   8.057  0.00  0.00    +0.000 A 
ATOM     12  C9  UNL     1      18.963   5.126   9.077  0.00  0.00    +0.000 A 
ATOM     13  C10 UNL     1      19.175   5.495  10.411  0.00  0.00    +0.000 A 
ENDBRANCH   7   8
TORSDOF 1
ENDMDL
MODEL 2
REMARK VINA RESULT:    -4.728      0.054      2.105
REMARK INTER + INTRA:          -5.219
REMARK INTER:                  -4.913
REMARK INTRA:                  -0.306
REMARK UNBOUND:                -0.215
REMARK  Name = /home/anacleto/Desktop/manuscript_Mpro/naturecomm/supplementary_file_S2/6-chemical-library/molecular_docking/3D_ligand_structure/1120.pdb
REMARK  1 active torsions:
REMARK  status: ('A' for Active; 'I' for Inactive)
REMARK    1  A    between atoms: N1_7  and  C5_8
REMARK                            x       y       z     vdW  Elec       q    Type
REMARK                         _______ _______ _______ _____ _____    ______ ____
ROOT
ATOM      1  O1  UNL     1      17.605   7.601  12.867  0.00  0.00    +0.000 OA
ATOM      2  C1  UNL     1      18.821   7.576  13.012  0.00  0.00    +0.000 C 
ATOM      3  C2  UNL     1      19.455   8.029  14.292  0.00  0.00    +0.000 C 
ATOM      4  C3  UNL     1      20.863   7.510  14.204  0.00  0.00    +0.000 C 
ATOM      5  C4  UNL     1      21.044   7.200  12.748  0.00  0.00    +0.000 C 
ATOM      6  O2  UNL     1      22.156   7.003  12.280  0.00  0.00    +0.000 OA
ATOM      7  N1  UNL     1      19.808   7.179  12.134  0.00  0.00    +0.000 N 
ENDROOT
BRANCH   7   8
ATOM      8  C5  UNL     1      19.582   6.798  10.770  0.00  0.00    +0.000 A 
ATOM      9  C6  UNL     1      19.767   7.703   9.709  0.00  0.00    +0.000 A 
ATOM     10  C7  UNL     1      19.547   7.331   8.377  0.00  0.00    +0.000 A 
ATOM     11  C8  UNL     1      19.134   6.042   8.068  0.00  0.00    +0.000 A 
ATOM     12  C9  UNL     1      18.943   5.127   9.093  0.00  0.00    +0.000 A 
ATOM     13  C10 UNL     1      19.164   5.501  10.425  0.00  0.00    +0.000 A 
ENDBRANCH   7   8
TORSDOF 1
ENDMDL
MODEL 3
REMARK VINA RESULT:    -4.647      1.783      4.661
REMARK INTER + INTRA:          -5.134
REMARK INTER:                  -4.864
REMARK INTRA:                  -0.270
REMARK UNBOUND:                -0.215
REMARK  Name = /home/anacleto/Desktop/manuscript_Mpro/naturecomm/supplementary_file_S2/6-chemical-library/molecular_docking/3D_ligand_structure/1120.pdb
REMARK  1 active torsions:
REMARK  status: ('A' for Active; 'I' for Inactive)
REMARK    1  A    between atoms: N1_7  and  C5_8
REMARK                            x       y       z     vdW  Elec       q    Type
REMARK                         _______ _______ _______ _____ _____    ______ ____
ROOT
ATOM      1  O1  UNL     1      18.242   4.199  11.044  0.00  0.00    +0.000 OA
ATOM      2  C1  UNL     1      18.696   5.042  10.280  0.00  0.00    +0.000 C 
ATOM      3  C2  UNL     1      18.884   4.742   8.824  0.00  0.00    +0.000 C 
ATOM      4  C3  UNL     1      19.097   6.093   8.200  0.00  0.00    +0.000 C 
ATOM      5  C4  UNL     1      19.444   6.977   9.360  0.00  0.00    +0.000 C 
ATOM      6  O2  UNL     1      19.933   8.085   9.184  0.00  0.00    +0.000 OA
ATOM      7  N1  UNL     1      19.113   6.332  10.534  0.00  0.00    +0.000 N 
ENDROOT
BRANCH   7   8
ATOM      8  C5  UNL     1      19.191   6.922  11.838  0.00  0.00    +0.000 A 
ATOM      9  C6  UNL     1      20.422   7.113  12.491  0.00  0.00    +0.000 A 
ATOM     10  C7  UNL     1      20.500   7.690  13.765  0.00  0.00    +0.000 A 
ATOM     11  C8  UNL     1      19.346   8.092  14.423  0.00  0.00    +0.000 A 
ATOM     12  C9  UNL     1      18.116   7.918  13.805  0.00  0.00    +0.000 A 
ATOM     13  C10 UNL     1      18.041   7.340  12.531  0.00  0.00    +0.000 A 
ENDBRANCH   7   8
TORSDOF 1
ENDMDL
MODEL 4
REMARK VINA RESULT:    -4.601     14.821     16.833
REMARK INTER + INTRA:          -5.084
REMARK INTER:                  -4.770
REMARK INTRA:                  -0.314
REMARK UNBOUND:                -0.215
REMARK  Name = /home/anacleto/Desktop/manuscript_Mpro/naturecomm/supplementary_file_S2/6-chemical-library/molecular_docking/3D_ligand_structure/1120.pdb
REMARK  1 active torsions:
REMARK  status: ('A' for Active; 'I' for Inactive)
REMARK    1  A    between atoms: N1_7  and  C5_8
REMARK                            x       y       z     vdW  Elec       q    Type
REMARK                         _______ _______ _______ _____ _____    ______ ____
ROOT
ATOM      1  O1  UNL     1      14.686  13.819  -2.761  0.00  0.00    +0.000 OA
ATOM      2  C1  UNL     1      15.446  12.880  -2.564  0.00  0.00    +0.000 C 
ATOM      3  C2  UNL     1      16.333  12.845  -1.356  0.00  0.00    +0.000 C 
ATOM      4  C3  UNL     1      16.808  11.420  -1.297  0.00  0.00    +0.000 C 
ATOM      5  C4  UNL     1      16.526  10.886  -2.668  0.00  0.00    +0.000 C 
ATOM      6  O2  UNL     1      17.023   9.835  -3.051  0.00  0.00    +0.000 OA
ATOM      7  N1  UNL     1      15.667  11.747  -3.320  0.00  0.00    +0.000 N 
ENDROOT
BRANCH   7   8
ATOM      8  C5  UNL     1      15.084  11.498  -4.606  0.00  0.00    +0.000 A 
ATOM      9  C6  UNL     1      13.879  10.787  -4.747  0.00  0.00    +0.000 A 
ATOM     10  C7  UNL     1      13.309  10.543  -6.003  0.00  0.00    +0.000 A 
ATOM     11  C8  UNL     1      13.930  11.005  -7.156  0.00  0.00    +0.000 A 
ATOM     12  C9  UNL     1      15.120  11.711  -7.050  0.00  0.00    +0.000 A 
ATOM     13  C10 UNL     1      15.688  11.953  -5.792  0.00  0.00    +0.000 A 
ENDBRANCH   7   8
TORSDOF 1
ENDMDL
MODEL 5
REMARK VINA RESULT:    -4.599     14.849     16.776
REMARK INTER + INTRA:          -5.082
REMARK INTER:                  -4.769
REMARK INTRA:                  -0.313
REMARK UNBOUND:                -0.215
REMARK  Name = /home/anacleto/Desktop/manuscript_Mpro/naturecomm/supplementary_file_S2/6-chemical-library/molecular_docking/3D_ligand_structure/1120.pdb
REMARK  1 active torsions:
REMARK  status: ('A' for Active; 'I' for Inactive)
REMARK    1  A    between atoms: N1_7  and  C5_8
REMARK                            x       y       z     vdW  Elec       q    Type
REMARK                         _______ _______ _______ _____ _____    ______ ____
ROOT
ATOM      1  O1  UNL     1      17.210   9.843  -3.225  0.00  0.00    +0.000 OA
ATOM      2  C1  UNL     1      16.660  10.847  -2.791  0.00  0.00    +0.000 C 
ATOM      3  C2  UNL     1      16.941  11.342  -1.405  0.00  0.00    +0.000 C 
ATOM      4  C3  UNL     1      16.382  12.737  -1.398  0.00  0.00    +0.000 C 
ATOM      5  C4  UNL     1      15.468  12.767  -2.585  0.00  0.00    +0.000 C 
ATOM      6  O2  UNL     1      14.650  13.666  -2.729  0.00  0.00    +0.000 OA
ATOM      7  N1  UNL     1      15.738  11.679  -3.391  0.00  0.00    +0.000 N 
ENDROOT
BRANCH   7   8
ATOM      8  C5  UNL     1      15.143  11.447  -4.674  0.00  0.00    +0.000 A 
ATOM      9  C6  UNL     1      13.930  10.748  -4.812  0.00  0.00    +0.000 A 
ATOM     10  C7  UNL     1      13.348  10.520  -6.065  0.00  0.00    +0.000 A 
ATOM     11  C8  UNL     1      13.963  10.988  -7.218  0.00  0.00    +0.000 A 
ATOM     12  C9  UNL     1      15.160  11.683  -7.115  0.00  0.00    +0.000 A 
ATOM     13  C10 UNL     1      15.741  11.908  -5.861  0.00  0.00    +0.000 A 
ENDBRANCH   7   8
TORSDOF 1
ENDMDL
MODEL 6
REMARK VINA RESULT:    -4.307     15.200     17.476
REMARK INTER + INTRA:          -4.773
REMARK INTER:                  -4.464
REMARK INTRA:                  -0.309
REMARK UNBOUND:                -0.215
REMARK  Name = /home/anacleto/Desktop/manuscript_Mpro/naturecomm/supplementary_file_S2/6-chemical-library/molecular_docking/3D_ligand_structure/1120.pdb
REMARK  1 active torsions:
REMARK  status: ('A' for Active; 'I' for Inactive)
REMARK    1  A    between atoms: N1_7  and  C5_8
REMARK                            x       y       z     vdW  Elec       q    Type
REMARK                         _______ _______ _______ _____ _____    ______ ____
ROOT
ATOM      1  O1  UNL     1      16.706  12.895  -6.289  0.00  0.00    +0.000 OA
ATOM      2  C1  UNL     1      15.677  12.240  -6.175  0.00  0.00    +0.000 C 
ATOM      3  C2  UNL     1      14.742  12.064  -7.333  0.00  0.00    +0.000 C 
ATOM      4  C3  UNL     1      13.841  10.941  -6.904  0.00  0.00    +0.000 C 
ATOM      5  C4  UNL     1      14.036  10.866  -5.419  0.00  0.00    +0.000 C 
ATOM      6  O2  UNL     1      13.263  10.235  -4.712  0.00  0.00    +0.000 OA
ATOM      7  N1  UNL     1      15.166  11.581  -5.077  0.00  0.00    +0.000 N 
ENDROOT
BRANCH   7   8
ATOM      8  C5  UNL     1      15.730  11.632  -3.759  0.00  0.00    +0.000 A 
ATOM      9  C6  UNL     1      15.512  12.725  -2.902  0.00  0.00    +0.000 A 
ATOM     10  C7  UNL     1      16.062  12.776  -1.615  0.00  0.00    +0.000 A 
ATOM     11  C8  UNL     1      16.848  11.731  -1.149  0.00  0.00    +0.000 A 
ATOM     12  C9  UNL     1      17.081  10.637  -1.970  0.00  0.00    +0.000 A 
ATOM     13  C10 UNL     1      16.530  10.590  -3.257  0.00  0.00    +0.000 A 
ENDBRANCH   7   8
TORSDOF 1
ENDMDL
MODEL 7
REMARK VINA RESULT:    -4.230     17.430     19.494
REMARK INTER + INTRA:          -4.692
REMARK INTER:                  -4.381
REMARK INTRA:                  -0.311
REMARK UNBOUND:                -0.215
REMARK  Name = /home/anacleto/Desktop/manuscript_Mpro/naturecomm/supplementary_file_S2/6-chemical-library/molecular_docking/3D_ligand_structure/1120.pdb
REMARK  1 active torsions:
REMARK  status: ('A' for Active; 'I' for Inactive)
REMARK    1  A    between atoms: N1_7  and  C5_8
REMARK                            x       y       z     vdW  Elec       q    Type
REMARK                         _______ _______ _______ _____ _____    ______ ____
ROOT
ATOM      1  O1  UNL     1      16.317  12.547  -4.239  0.00  0.00    +0.000 OA
ATOM      2  C1  UNL     1      15.504  11.907  -4.894  0.00  0.00    +0.000 C 
ATOM      3  C2  UNL     1      14.528  10.987  -4.227  0.00  0.00    +0.000 C 
ATOM      4  C3  UNL     1      13.511  10.698  -5.296  0.00  0.00    +0.000 C 
ATOM      5  C4  UNL     1      14.198  11.100  -6.567  0.00  0.00    +0.000 C 
ATOM      6  O2  UNL     1      13.758  10.759  -7.656  0.00  0.00    +0.000 OA
ATOM      7  N1  UNL     1      15.305  11.865  -6.259  0.00  0.00    +0.000 N 
ENDROOT
BRANCH   7   8
ATOM      8  C5  UNL     1      16.134  12.525  -7.225  0.00  0.00    +0.000 A 
ATOM      9  C6  UNL     1      15.921  13.867  -7.589  0.00  0.00    +0.000 A 
ATOM     10  C7  UNL     1      16.730  14.512  -8.533  0.00  0.00    +0.000 A 
ATOM     11  C8  UNL     1      17.776  13.832  -9.140  0.00  0.00    +0.000 A 
ATOM     12  C9  UNL     1      18.012  12.507  -8.802  0.00  0.00    +0.000 A 
ATOM     13  C10 UNL     1      17.201  11.864  -7.858  0.00  0.00    +0.000 A 
ENDBRANCH   7   8
TORSDOF 1
ENDMDL
MODEL 8
REMARK VINA RESULT:    -4.167     15.375     17.114
REMARK INTER + INTRA:          -4.625
REMARK INTER:                  -4.312
REMARK INTRA:                  -0.314
REMARK UNBOUND:                -0.215
REMARK  Name = /home/anacleto/Desktop/manuscript_Mpro/naturecomm/supplementary_file_S2/6-chemical-library/molecular_docking/3D_ligand_structure/1120.pdb
REMARK  1 active torsions:
REMARK  status: ('A' for Active; 'I' for Inactive)
REMARK    1  A    between atoms: N1_7  and  C5_8
REMARK                            x       y       z     vdW  Elec       q    Type
REMARK                         _______ _______ _______ _____ _____    ______ ____
ROOT
ATOM      1  O1  UNL     1      17.556  12.448  -2.927  0.00  0.00    +0.000 OA
ATOM      2  C1  UNL     1      16.619  13.186  -2.652  0.00  0.00    +0.000 C 
ATOM      3  C2  UNL     1      16.635  14.025  -1.411  0.00  0.00    +0.000 C 
ATOM      4  C3  UNL     1      15.526  15.017  -1.629  0.00  0.00    +0.000 C 
ATOM      5  C4  UNL     1      14.708  14.410  -2.730  0.00  0.00    +0.000 C 
ATOM      6  O2  UNL     1      13.585  14.823  -2.982  0.00  0.00    +0.000 OA
ATOM      7  N1  UNL     1      15.437  13.403  -3.330  0.00  0.00    +0.000 N 
ENDROOT
BRANCH   7   8
ATOM      8  C5  UNL     1      15.021  12.682  -4.498  0.00  0.00    +0.000 A 
ATOM      9  C6  UNL     1      15.263  13.170  -5.794  0.00  0.00    +0.000 A 
ATOM     10  C7  UNL     1      14.857  12.467  -6.936  0.00  0.00    +0.000 A 
ATOM     11  C8  UNL     1      14.197  11.252  -6.811  0.00  0.00    +0.000 A 
ATOM     12  C9  UNL     1      13.944  10.743  -5.545  0.00  0.00    +0.000 A 
ATOM     13  C10 UNL     1      14.351  11.449  -4.406  0.00  0.00    +0.000 A 
ENDBRANCH   7   8
TORSDOF 1
ENDMDL
MODEL 9
REMARK VINA RESULT:    -4.160      1.963      4.284
REMARK INTER + INTRA:          -4.618
REMARK INTER:                  -4.403
REMARK INTRA:                  -0.215
REMARK UNBOUND:                -0.215
REMARK  Name = /home/anacleto/Desktop/manuscript_Mpro/naturecomm/supplementary_file_S2/6-chemical-library/molecular_docking/3D_ligand_structure/1120.pdb
REMARK  1 active torsions:
REMARK  status: ('A' for Active; 'I' for Inactive)
REMARK    1  A    between atoms: N1_7  and  C5_8
REMARK                            x       y       z     vdW  Elec       q    Type
REMARK                         _______ _______ _______ _____ _____    ______ ____
ROOT
ATOM      1  O1  UNL     1      21.714   4.756  12.061  0.00  0.00    +0.000 OA
ATOM      2  C1  UNL     1      21.437   5.491  11.122  0.00  0.00    +0.000 C 
ATOM      3  C2  UNL     1      22.145   5.363   9.807  0.00  0.00    +0.000 C 
ATOM      4  C3  UNL     1      21.291   6.156   8.858  0.00  0.00    +0.000 C 
ATOM      5  C4  UNL     1      20.444   7.006   9.755  0.00  0.00    +0.000 C 
ATOM      6  O2  UNL     1      19.817   7.960   9.314  0.00  0.00    +0.000 OA
ATOM      7  N1  UNL     1      20.516   6.514  11.043  0.00  0.00    +0.000 N 
ENDROOT
BRANCH   7   8
ATOM      8  C5  UNL     1      19.740   7.002  12.146  0.00  0.00    +0.000 A 
ATOM      9  C6  UNL     1      18.340   6.881  12.176  0.00  0.00    +0.000 A 
ATOM     10  C7  UNL     1      17.581   7.357  13.253  0.00  0.00    +0.000 A 
ATOM     11  C8  UNL     1      18.204   7.968  14.332  0.00  0.00    +0.000 A 
ATOM     12  C9  UNL     1      19.585   8.101  14.333  0.00  0.00    +0.000 A 
ATOM     13  C10 UNL     1      20.341   7.625  13.254  0.00  0.00    +0.000 A 
ENDBRANCH   7   8
TORSDOF 1
ENDMDL
