MODEL 1
REMARK VINA RESULT:    -4.633      0.000      0.000
REMARK INTER + INTRA:          -5.410
REMARK INTER:                  -5.189
REMARK INTRA:                  -0.221
REMARK UNBOUND:                -0.236
REMARK  Name = /home/anacleto/Desktop/manuscript_Mpro/naturecomm/supplementary_file_S2/6-chemical-library/molecular_docking/3D_ligand_structure/967.pdb
REMARK  2 active torsions:
REMARK  status: ('A' for Active; 'I' for Inactive)
REMARK    1  A    between atoms: C3_5  and  C4_6
REMARK    2  A    between atoms: N2_8  and  C5_9
REMARK                            x       y       z     vdW  Elec       q    Type
REMARK                         _______ _______ _______ _____ _____    ______ ____
ROOT
ATOM      1  C4  UNL     1     -24.857   4.784 -39.059  0.00  0.00    +0.000 C 
ATOM      2  O2  UNL     1     -24.567   4.935 -40.240  0.00  0.00    +0.000 OA
ATOM      3  N2  UNL     1     -24.266   5.438 -37.993  0.00  0.00    +0.000 N 
ATOM      4  H3  UNL     1     -24.633   5.190 -37.080  0.00  0.00    +0.000 HD
ENDROOT
BRANCH   3   5
ATOM      5  C5  UNL     1     -23.231   6.392 -38.018  0.00  0.00    +0.000 A 
ATOM      6  C6  UNL     1     -23.609   7.742 -38.015  0.00  0.00    +0.000 A 
ATOM      7  C7  UNL     1     -22.645   8.754 -38.039  0.00  0.00    +0.000 A 
ATOM      8  C8  UNL     1     -21.293   8.426 -38.067  0.00  0.00    +0.000 A 
ATOM      9  C9  UNL     1     -20.908   7.086 -38.069  0.00  0.00    +0.000 A 
ATOM     10  C10 UNL     1     -21.873   6.074 -38.045  0.00  0.00    +0.000 A 
ENDBRANCH   3   5
BRANCH   1  15
ATOM     11  O1  UNL     1     -27.217   4.246 -38.653  0.00  0.00    +0.000 OA
ATOM     12  C1  UNL     1     -27.876   3.140 -38.208  0.00  0.00    +0.000 A 
ATOM     13  N1  UNL     1     -27.112   2.112 -37.920  0.00  0.00    +0.000 NA
ATOM     14  C2  UNL     1     -25.846   2.566 -38.195  0.00  0.00    +0.000 A 
ATOM     15  C3  UNL     1     -25.894   3.867 -38.644  0.00  0.00    +0.000 A 
ENDBRANCH   1  15
TORSDOF 2
ENDMDL
MODEL 2
REMARK VINA RESULT:    -4.371      4.685      6.736
REMARK INTER + INTRA:          -5.118
REMARK INTER:                  -4.915
REMARK INTRA:                  -0.204
REMARK UNBOUND:                -0.236
REMARK  Name = /home/anacleto/Desktop/manuscript_Mpro/naturecomm/supplementary_file_S2/6-chemical-library/molecular_docking/3D_ligand_structure/967.pdb
REMARK  2 active torsions:
REMARK  status: ('A' for Active; 'I' for Inactive)
REMARK    1  A    between atoms: C3_5  and  C4_6
REMARK    2  A    between atoms: N2_8  and  C5_9
REMARK                            x       y       z     vdW  Elec       q    Type
REMARK                         _______ _______ _______ _____ _____    ______ ____
ROOT
ATOM      1  C4  UNL     1     -30.227   2.496 -40.903  0.00  0.00    +0.000 C 
ATOM      2  O2  UNL     1     -30.073   3.641 -41.311  0.00  0.00    +0.000 OA
ATOM      3  N2  UNL     1     -29.301   1.766 -40.179  0.00  0.00    +0.000 N 
ATOM      4  H3  UNL     1     -29.598   0.830 -39.923  0.00  0.00    +0.000 HD
ENDROOT
BRANCH   3   5
ATOM      5  C5  UNL     1     -28.016   2.157 -39.759  0.00  0.00    +0.000 A 
ATOM      6  C6  UNL     1     -27.813   2.305 -38.380  0.00  0.00    +0.000 A 
ATOM      7  C7  UNL     1     -26.566   2.690 -37.878  0.00  0.00    +0.000 A 
ATOM      8  C8  UNL     1     -25.510   2.931 -38.751  0.00  0.00    +0.000 A 
ATOM      9  C9  UNL     1     -25.702   2.786 -40.124  0.00  0.00    +0.000 A 
ATOM     10  C10 UNL     1     -26.949   2.400 -40.626  0.00  0.00    +0.000 A 
ENDBRANCH   3   5
BRANCH   1  15
ATOM     11  O1  UNL     1     -31.532   0.417 -40.858  0.00  0.00    +0.000 OA
ATOM     12  C1  UNL     1     -32.803   0.086 -41.217  0.00  0.00    +0.000 A 
ATOM     13  N1  UNL     1     -33.522   1.071 -41.701  0.00  0.00    +0.000 NA
ATOM     14  C2  UNL     1     -32.665   2.143 -41.662  0.00  0.00    +0.000 A 
ATOM     15  C3  UNL     1     -31.446   1.760 -41.149  0.00  0.00    +0.000 A 
ENDBRANCH   1  15
TORSDOF 2
ENDMDL
MODEL 3
REMARK VINA RESULT:    -4.358      1.861      5.929
REMARK INTER + INTRA:          -5.103
REMARK INTER:                  -4.869
REMARK INTRA:                  -0.235
REMARK UNBOUND:                -0.236
REMARK  Name = /home/anacleto/Desktop/manuscript_Mpro/naturecomm/supplementary_file_S2/6-chemical-library/molecular_docking/3D_ligand_structure/967.pdb
REMARK  2 active torsions:
REMARK  status: ('A' for Active; 'I' for Inactive)
REMARK    1  A    between atoms: C3_5  and  C4_6
REMARK    2  A    between atoms: N2_8  and  C5_9
REMARK                            x       y       z     vdW  Elec       q    Type
REMARK                         _______ _______ _______ _____ _____    ______ ____
ROOT
ATOM      1  C4  UNL     1     -23.921   5.567 -39.637  0.00  0.00    +0.000 C 
ATOM      2  O2  UNL     1     -24.145   5.286 -40.808  0.00  0.00    +0.000 OA
ATOM      3  N2  UNL     1     -24.681   5.169 -38.551  0.00  0.00    +0.000 N 
ATOM      4  H3  UNL     1     -24.347   5.495 -37.651  0.00  0.00    +0.000 HD
ENDROOT
BRANCH   3   5
ATOM      5  C5  UNL     1     -25.846   4.378 -38.543  0.00  0.00    +0.000 A 
ATOM      6  C6  UNL     1     -25.692   3.021 -38.227  0.00  0.00    +0.000 A 
ATOM      7  C7  UNL     1     -26.797   2.166 -38.196  0.00  0.00    +0.000 A 
ATOM      8  C8  UNL     1     -28.067   2.659 -38.481  0.00  0.00    +0.000 A 
ATOM      9  C9  UNL     1     -28.229   4.007 -38.796  0.00  0.00    +0.000 A 
ATOM     10  C10 UNL     1     -27.123   4.863 -38.826  0.00  0.00    +0.000 A 
ENDBRANCH   3   5
BRANCH   1  15
ATOM     11  O1  UNL     1     -22.126   6.154 -38.070  0.00  0.00    +0.000 OA
ATOM     12  C1  UNL     1     -21.141   7.095 -38.063  0.00  0.00    +0.000 A 
ATOM     13  N1  UNL     1     -21.114   7.884 -39.112  0.00  0.00    +0.000 NA
ATOM     14  C2  UNL     1     -22.161   7.435 -39.878  0.00  0.00    +0.000 A 
ATOM     15  C3  UNL     1     -22.788   6.379 -39.256  0.00  0.00    +0.000 A 
ENDBRANCH   1  15
TORSDOF 2
ENDMDL
MODEL 4
REMARK VINA RESULT:    -4.265     24.545     26.423
REMARK INTER + INTRA:          -5.000
REMARK INTER:                  -4.759
REMARK INTRA:                  -0.241
REMARK UNBOUND:                -0.236
REMARK  Name = /home/anacleto/Desktop/manuscript_Mpro/naturecomm/supplementary_file_S2/6-chemical-library/molecular_docking/3D_ligand_structure/967.pdb
REMARK  2 active torsions:
REMARK  status: ('A' for Active; 'I' for Inactive)
REMARK    1  A    between atoms: C3_5  and  C4_6
REMARK    2  A    between atoms: N2_8  and  C5_9
REMARK                            x       y       z     vdW  Elec       q    Type
REMARK                         _______ _______ _______ _____ _____    ______ ____
ROOT
ATOM      1  C4  UNL     1     -37.877   2.953 -15.180  0.00  0.00    +0.000 C 
ATOM      2  O2  UNL     1     -38.201   1.935 -14.580  0.00  0.00    +0.000 OA
ATOM      3  N2  UNL     1     -37.460   3.015 -16.498  0.00  0.00    +0.000 N 
ATOM      4  H3  UNL     1     -37.230   3.944 -16.833  0.00  0.00    +0.000 HD
ENDROOT
BRANCH   3   5
ATOM      5  C5  UNL     1     -37.317   1.960 -17.420  0.00  0.00    +0.000 A 
ATOM      6  C6  UNL     1     -38.450   1.611 -18.169  0.00  0.00    +0.000 A 
ATOM      7  C7  UNL     1     -38.395   0.575 -19.106  0.00  0.00    +0.000 A 
ATOM      8  C8  UNL     1     -37.207  -0.122 -19.303  0.00  0.00    +0.000 A 
ATOM      9  C9  UNL     1     -36.075   0.219 -18.564  0.00  0.00    +0.000 A 
ATOM     10  C10 UNL     1     -36.131   1.255 -17.626  0.00  0.00    +0.000 A 
ENDBRANCH   3   5
BRANCH   1  15
ATOM     11  O1  UNL     1     -37.284   5.334 -15.126  0.00  0.00    +0.000 OA
ATOM     12  C1  UNL     1     -37.514   6.351 -14.250  0.00  0.00    +0.000 A 
ATOM     13  N1  UNL     1     -38.205   6.023 -13.182  0.00  0.00    +0.000 NA
ATOM     14  C2  UNL     1     -38.454   4.684 -13.360  0.00  0.00    +0.000 A 
ATOM     15  C3  UNL     1     -37.898   4.249 -14.542  0.00  0.00    +0.000 A 
ENDBRANCH   1  15
TORSDOF 2
ENDMDL
MODEL 5
REMARK VINA RESULT:    -4.230     13.693     14.388
REMARK INTER + INTRA:          -4.960
REMARK INTER:                  -4.759
REMARK INTRA:                  -0.202
REMARK UNBOUND:                -0.236
REMARK  Name = /home/anacleto/Desktop/manuscript_Mpro/naturecomm/supplementary_file_S2/6-chemical-library/molecular_docking/3D_ligand_structure/967.pdb
REMARK  2 active torsions:
REMARK  status: ('A' for Active; 'I' for Inactive)
REMARK    1  A    between atoms: C3_5  and  C4_6
REMARK    2  A    between atoms: N2_8  and  C5_9
REMARK                            x       y       z     vdW  Elec       q    Type
REMARK                         _______ _______ _______ _____ _____    ______ ____
ROOT
ATOM      1  C4  UNL     1     -24.336  -3.768 -28.616  0.00  0.00    +0.000 C 
ATOM      2  O2  UNL     1     -23.932  -2.848 -29.317  0.00  0.00    +0.000 OA
ATOM      3  N2  UNL     1     -23.546  -4.739 -28.025  0.00  0.00    +0.000 N 
ATOM      4  H3  UNL     1     -24.050  -5.427 -27.476  0.00  0.00    +0.000 HD
ENDROOT
BRANCH   3   5
ATOM      5  C5  UNL     1     -22.148  -4.888 -28.092  0.00  0.00    +0.000 A 
ATOM      6  C6  UNL     1     -21.426  -4.669 -26.911  0.00  0.00    +0.000 A 
ATOM      7  C7  UNL     1     -20.034  -4.797 -26.890  0.00  0.00    +0.000 A 
ATOM      8  C8  UNL     1     -19.350  -5.144 -28.051  0.00  0.00    +0.000 A 
ATOM      9  C9  UNL     1     -20.060  -5.363 -29.231  0.00  0.00    +0.000 A 
ATOM     10  C10 UNL     1     -21.452  -5.237 -29.251  0.00  0.00    +0.000 A 
ENDBRANCH   3   5
BRANCH   1  15
ATOM     11  O1  UNL     1     -26.674  -3.044 -28.794  0.00  0.00    +0.000 OA
ATOM     12  C1  UNL     1     -27.857  -3.528 -28.322  0.00  0.00    +0.000 A 
ATOM     13  N1  UNL     1     -27.767  -4.625 -27.606  0.00  0.00    +0.000 NA
ATOM     14  C2  UNL     1     -26.421  -4.894 -27.600  0.00  0.00    +0.000 A 
ATOM     15  C3  UNL     1     -25.740  -3.939 -28.322  0.00  0.00    +0.000 A 
ENDBRANCH   1  15
TORSDOF 2
ENDMDL
MODEL 6
REMARK VINA RESULT:    -4.227      4.184      5.400
REMARK INTER + INTRA:          -4.957
REMARK INTER:                  -4.729
REMARK INTRA:                  -0.229
REMARK UNBOUND:                -0.236
REMARK  Name = /home/anacleto/Desktop/manuscript_Mpro/naturecomm/supplementary_file_S2/6-chemical-library/molecular_docking/3D_ligand_structure/967.pdb
REMARK  2 active torsions:
REMARK  status: ('A' for Active; 'I' for Inactive)
REMARK    1  A    between atoms: C3_5  and  C4_6
REMARK    2  A    between atoms: N2_8  and  C5_9
REMARK                            x       y       z     vdW  Elec       q    Type
REMARK                         _______ _______ _______ _____ _____    ______ ____
ROOT
ATOM      1  C4  UNL     1     -25.307  10.231 -38.084  0.00  0.00    +0.000 C 
ATOM      2  O2  UNL     1     -24.835  10.843 -39.035  0.00  0.00    +0.000 OA
ATOM      3  N2  UNL     1     -24.659   9.249 -37.355  0.00  0.00    +0.000 N 
ATOM      4  H3  UNL     1     -25.202   8.848 -36.598  0.00  0.00    +0.000 HD
ENDROOT
BRANCH   3   5
ATOM      5  C5  UNL     1     -23.357   8.744 -37.533  0.00  0.00    +0.000 A 
ATOM      6  C6  UNL     1     -23.237   7.502 -38.172  0.00  0.00    +0.000 A 
ATOM      7  C7  UNL     1     -21.981   6.929 -38.389  0.00  0.00    +0.000 A 
ATOM      8  C8  UNL     1     -20.832   7.592 -37.968  0.00  0.00    +0.000 A 
ATOM      9  C9  UNL     1     -20.942   8.828 -37.333  0.00  0.00    +0.000 A 
ATOM     10  C10 UNL     1     -22.199   9.401 -37.116  0.00  0.00    +0.000 A 
ENDBRANCH   3   5
BRANCH   1  15
ATOM     11  O1  UNL     1     -27.484   9.448 -37.266  0.00  0.00    +0.000 OA
ATOM     12  C1  UNL     1     -28.630  10.069 -36.870  0.00  0.00    +0.000 A 
ATOM     13  N1  UNL     1     -28.602  11.381 -36.926  0.00  0.00    +0.000 NA
ATOM     14  C2  UNL     1     -27.341  11.656 -37.394  0.00  0.00    +0.000 A 
ATOM     15  C3  UNL     1     -26.646  10.486 -37.606  0.00  0.00    +0.000 A 
ENDBRANCH   1  15
TORSDOF 2
ENDMDL
MODEL 7
REMARK VINA RESULT:    -4.180     13.574     14.100
REMARK INTER + INTRA:          -4.905
REMARK INTER:                  -4.669
REMARK INTRA:                  -0.236
REMARK UNBOUND:                -0.236
REMARK  Name = /home/anacleto/Desktop/manuscript_Mpro/naturecomm/supplementary_file_S2/6-chemical-library/molecular_docking/3D_ligand_structure/967.pdb
REMARK  2 active torsions:
REMARK  status: ('A' for Active; 'I' for Inactive)
REMARK    1  A    between atoms: C3_5  and  C4_6
REMARK    2  A    between atoms: N2_8  and  C5_9
REMARK                            x       y       z     vdW  Elec       q    Type
REMARK                         _______ _______ _______ _____ _____    ______ ____
ROOT
ATOM      1  C4  UNL     1     -24.426  -3.872 -28.908  0.00  0.00    +0.000 C 
ATOM      2  O2  UNL     1     -24.059  -2.795 -29.362  0.00  0.00    +0.000 OA
ATOM      3  N2  UNL     1     -23.664  -5.027 -28.853  0.00  0.00    +0.000 N 
ATOM      4  H3  UNL     1     -24.130  -5.829 -28.442  0.00  0.00    +0.000 HD
ENDROOT
BRANCH   3   5
ATOM      5  C5  UNL     1     -22.340  -5.222 -29.290  0.00  0.00    +0.000 A 
ATOM      6  C6  UNL     1     -22.166  -5.824 -30.544  0.00  0.00    +0.000 A 
ATOM      7  C7  UNL     1     -20.885  -6.054 -31.054  0.00  0.00    +0.000 A 
ATOM      8  C8  UNL     1     -19.765  -5.685 -30.314  0.00  0.00    +0.000 A 
ATOM      9  C9  UNL     1     -19.929  -5.086 -29.066  0.00  0.00    +0.000 A 
ATOM     10  C10 UNL     1     -21.211  -4.855 -28.557  0.00  0.00    +0.000 A 
ENDBRANCH   3   5
BRANCH   1  15
ATOM     11  O1  UNL     1     -26.768  -3.179 -28.669  0.00  0.00    +0.000 OA
ATOM     12  C1  UNL     1     -27.837  -3.666 -27.981  0.00  0.00    +0.000 A 
ATOM     13  N1  UNL     1     -27.602  -4.748 -27.275  0.00  0.00    +0.000 NA
ATOM     14  C2  UNL     1     -26.274  -5.002 -27.510  0.00  0.00    +0.000 A 
ATOM     15  C3  UNL     1     -25.750  -4.053 -28.360  0.00  0.00    +0.000 A 
ENDBRANCH   1  15
TORSDOF 2
ENDMDL
MODEL 8
REMARK VINA RESULT:    -4.089     15.458     17.005
REMARK INTER + INTRA:          -4.803
REMARK INTER:                  -4.582
REMARK INTRA:                  -0.221
REMARK UNBOUND:                -0.236
REMARK  Name = /home/anacleto/Desktop/manuscript_Mpro/naturecomm/supplementary_file_S2/6-chemical-library/molecular_docking/3D_ligand_structure/967.pdb
REMARK  2 active torsions:
REMARK  status: ('A' for Active; 'I' for Inactive)
REMARK    1  A    between atoms: C3_5  and  C4_6
REMARK    2  A    between atoms: N2_8  and  C5_9
REMARK                            x       y       z     vdW  Elec       q    Type
REMARK                         _______ _______ _______ _____ _____    ______ ____
ROOT
ATOM      1  C4  UNL     1     -24.179  -3.817 -24.019  0.00  0.00    +0.000 C 
ATOM      2  O2  UNL     1     -24.286  -2.596 -23.995  0.00  0.00    +0.000 OA
ATOM      3  N2  UNL     1     -24.065  -4.595 -25.157  0.00  0.00    +0.000 N 
ATOM      4  H3  UNL     1     -23.985  -5.592 -24.989  0.00  0.00    +0.000 HD
ENDROOT
BRANCH   3   5
ATOM      5  C5  UNL     1     -24.048  -4.179 -26.502  0.00  0.00    +0.000 A 
ATOM      6  C6  UNL     1     -25.286  -4.062 -27.149  0.00  0.00    +0.000 A 
ATOM      7  C7  UNL     1     -25.359  -3.655 -28.484  0.00  0.00    +0.000 A 
ATOM      8  C8  UNL     1     -24.194  -3.361 -29.186  0.00  0.00    +0.000 A 
ATOM      9  C9  UNL     1     -22.958  -3.474 -28.551  0.00  0.00    +0.000 A 
ATOM     10  C10 UNL     1     -22.886  -3.881 -27.215  0.00  0.00    +0.000 A 
ENDBRANCH   3   5
BRANCH   1  15
ATOM     11  O1  UNL     1     -25.331  -4.990 -22.197  0.00  0.00    +0.000 OA
ATOM     12  C1  UNL     1     -24.915  -5.695 -21.108  0.00  0.00    +0.000 A 
ATOM     13  N1  UNL     1     -23.613  -5.789 -20.967  0.00  0.00    +0.000 NA
ATOM     14  C2  UNL     1     -23.123  -5.094 -22.044  0.00  0.00    +0.000 A 
ATOM     15  C3  UNL     1     -24.159  -4.600 -22.805  0.00  0.00    +0.000 A 
ENDBRANCH   1  15
TORSDOF 2
ENDMDL
MODEL 9
REMARK VINA RESULT:    -3.957     13.991     15.513
REMARK INTER + INTRA:          -4.656
REMARK INTER:                  -4.420
REMARK INTRA:                  -0.236
REMARK UNBOUND:                -0.236
REMARK  Name = /home/anacleto/Desktop/manuscript_Mpro/naturecomm/supplementary_file_S2/6-chemical-library/molecular_docking/3D_ligand_structure/967.pdb
REMARK  2 active torsions:
REMARK  status: ('A' for Active; 'I' for Inactive)
REMARK    1  A    between atoms: C3_5  and  C4_6
REMARK    2  A    between atoms: N2_8  and  C5_9
REMARK                            x       y       z     vdW  Elec       q    Type
REMARK                         _______ _______ _______ _____ _____    ______ ____
ROOT
ATOM      1  C4  UNL     1     -22.911  -5.290 -28.190  0.00  0.00    +0.000 C 
ATOM      2  O2  UNL     1     -23.335  -6.263 -28.803  0.00  0.00    +0.000 OA
ATOM      3  N2  UNL     1     -23.685  -4.287 -27.633  0.00  0.00    +0.000 N 
ATOM      4  H3  UNL     1     -23.165  -3.556 -27.160  0.00  0.00    +0.000 HD
ENDROOT
BRANCH   3   5
ATOM      5  C5  UNL     1     -25.087  -4.159 -27.641  0.00  0.00    +0.000 A 
ATOM      6  C6  UNL     1     -25.796  -4.841 -26.642  0.00  0.00    +0.000 A 
ATOM      7  C7  UNL     1     -27.190  -4.767 -26.577  0.00  0.00    +0.000 A 
ATOM      8  C8  UNL     1     -27.890  -4.010 -27.512  0.00  0.00    +0.000 A 
ATOM      9  C9  UNL     1     -27.194  -3.328 -28.509  0.00  0.00    +0.000 A 
ATOM     10  C10 UNL     1     -25.799  -3.402 -28.573  0.00  0.00    +0.000 A 
ENDBRANCH   3   5
BRANCH   1  15
ATOM     11  O1  UNL     1     -20.955  -3.818 -28.014  0.00  0.00    +0.000 OA
ATOM     12  C1  UNL     1     -19.630  -4.024 -27.777  0.00  0.00    +0.000 A 
ATOM     13  N1  UNL     1     -19.282  -5.277 -27.598  0.00  0.00    +0.000 NA
ATOM     14  C2  UNL     1     -20.466  -5.960 -27.726  0.00  0.00    +0.000 A 
ATOM     15  C3  UNL     1     -21.497  -5.083 -27.979  0.00  0.00    +0.000 A 
ENDBRANCH   1  15
TORSDOF 2
ENDMDL
