MODEL 1
REMARK VINA RESULT:    -5.383      0.000      0.000
REMARK INTER + INTRA:          -8.229
REMARK INTER:                  -7.591
REMARK INTRA:                  -0.639
REMARK UNBOUND:                -0.643
REMARK  Name = /home/anacleto/Desktop/manuscript_Mpro/naturecomm/supplementary_file_S2/6-chemical-library/molecular_docking/3D_ligand_structure/433.pdb
REMARK  7 active torsions:
REMARK  status: ('A' for Active; 'I' for Inactive)
REMARK    1  A    between atoms: C4_5  and  C6_8
REMARK    2  A    between atoms: C6_8  and  C7_9
REMARK    3  A    between atoms: C7_9  and  C8_10
REMARK    4  A    between atoms: C8_10  and  C9_12
REMARK    5  A    between atoms: C9_12  and  O3_13
REMARK    6  A    between atoms: O3_13  and  C10_14
REMARK    7  A    between atoms: C10_14  and  C11_16
REMARK                            x       y       z     vdW  Elec       q    Type
REMARK                         _______ _______ _______ _____ _____    ______ ____
ROOT
ATOM      1  C8  UNL     1      17.533  11.421  -1.712  0.00  0.00    +0.000 C 
ATOM      2  O2  UNL     1      18.651  11.252  -1.220  0.00  0.00    +0.000 OA
ENDROOT
BRANCH   1   3
ATOM      3  C7  UNL     1      17.029  10.511  -2.810  0.00  0.00    +0.000 C 
BRANCH   3   4
ATOM      4  C6  UNL     1      15.572  10.830  -3.140  0.00  0.00    +0.000 C 
BRANCH   4   9
ATOM      5  N1  UNL     1      14.087  11.086  -6.588  0.00  0.00    +0.000 N 
ATOM      6  C1  UNL     1      15.048  11.932  -7.245  0.00  0.00    +0.000 C 
ATOM      7  C2  UNL     1      16.474  11.532  -6.882  0.00  0.00    +0.000 C 
ATOM      8  C3  UNL     1      16.618  11.049  -5.431  0.00  0.00    +0.000 C 
ATOM      9  C4  UNL     1      15.401  11.397  -4.558  0.00  0.00    +0.000 C 
ATOM     10  C5  UNL     1      14.150  10.843  -5.240  0.00  0.00    +0.000 C 
ATOM     11  O1  UNL     1      13.242  10.260  -4.659  0.00  0.00    +0.000 OA
ATOM     12  H1  UNL     1      13.224  10.817  -7.046  0.00  0.00    +0.000 HD
ENDBRANCH   4   9
ENDBRANCH   3   4
ENDBRANCH   1   3
BRANCH   1  13
ATOM     13  C9  UNL     1      16.586  12.536  -1.266  0.00  0.00    +0.000 C 
BRANCH  13  14
ATOM     14  O3  UNL     1      17.080  13.291  -0.165  0.00  0.00    +0.000 OA
BRANCH  14  15
ATOM     15  C10 UNL     1      17.092  14.634  -0.374  0.00  0.00    +0.000 C 
ATOM     16  O4  UNL     1      16.137  15.304  -0.746  0.00  0.00    +0.000 OA
BRANCH  15  17
ATOM     17  C11 UNL     1      18.444  15.202  -0.091  0.00  0.00    +0.000 A 
ATOM     18  C12 UNL     1      19.483  14.326   0.213  0.00  0.00    +0.000 A 
ATOM     19  C13 UNL     1      20.741  14.858   0.482  0.00  0.00    +0.000 A 
ATOM     20  C14 UNL     1      20.921  16.237   0.441  0.00  0.00    +0.000 A 
ATOM     21  C15 UNL     1      19.831  17.034   0.133  0.00  0.00    +0.000 A 
ATOM     22  N2  UNL     1      18.597  16.553  -0.130  0.00  0.00    +0.000 NA
ENDBRANCH  15  17
ENDBRANCH  14  15
ENDBRANCH  13  14
ENDBRANCH   1  13
TORSDOF 7
ENDMDL
MODEL 2
REMARK VINA RESULT:    -5.378      2.591      6.277
REMARK INTER + INTRA:          -8.221
REMARK INTER:                  -6.508
REMARK INTRA:                  -1.713
REMARK UNBOUND:                -0.643
REMARK  Name = /home/anacleto/Desktop/manuscript_Mpro/naturecomm/supplementary_file_S2/6-chemical-library/molecular_docking/3D_ligand_structure/433.pdb
REMARK  7 active torsions:
REMARK  status: ('A' for Active; 'I' for Inactive)
REMARK    1  A    between atoms: C4_5  and  C6_8
REMARK    2  A    between atoms: C6_8  and  C7_9
REMARK    3  A    between atoms: C7_9  and  C8_10
REMARK    4  A    between atoms: C8_10  and  C9_12
REMARK    5  A    between atoms: C9_12  and  O3_13
REMARK    6  A    between atoms: O3_13  and  C10_14
REMARK    7  A    between atoms: C10_14  and  C11_16
REMARK                            x       y       z     vdW  Elec       q    Type
REMARK                         _______ _______ _______ _____ _____    ______ ____
ROOT
ATOM      1  C8  UNL     1      17.546  11.364  -1.953  0.00  0.00    +0.000 C 
ATOM      2  O2  UNL     1      18.455  10.948  -2.675  0.00  0.00    +0.000 OA
ENDROOT
BRANCH   1   3
ATOM      3  C7  UNL     1      17.841  12.312  -0.812  0.00  0.00    +0.000 C 
BRANCH   3   4
ATOM      4  C6  UNL     1      18.779  13.426  -1.273  0.00  0.00    +0.000 C 
BRANCH   4   9
ATOM      5  N1  UNL     1      19.234  16.079   1.355  0.00  0.00    +0.000 N 
ATOM      6  C1  UNL     1      18.060  16.886   1.145  0.00  0.00    +0.000 C 
ATOM      7  C2  UNL     1      16.829  16.016   0.915  0.00  0.00    +0.000 C 
ATOM      8  C3  UNL     1      17.131  14.733   0.127  0.00  0.00    +0.000 C 
ATOM      9  C4  UNL     1      18.506  14.759  -0.561  0.00  0.00    +0.000 C 
ATOM     10  C5  UNL     1      19.565  15.060   0.500  0.00  0.00    +0.000 C 
ATOM     11  O1  UNL     1      20.644  14.486   0.587  0.00  0.00    +0.000 OA
ATOM     12  H1  UNL     1      19.958  16.365   2.004  0.00  0.00    +0.000 HD
ENDBRANCH   4   9
ENDBRANCH   3   4
ENDBRANCH   1   3
BRANCH   1  13
ATOM     13  C9  UNL     1      16.082  10.965  -2.145  0.00  0.00    +0.000 C 
BRANCH  13  14
ATOM     14  O3  UNL     1      15.175  12.053  -2.000  0.00  0.00    +0.000 OA
BRANCH  14  15
ATOM     15  C10 UNL     1      14.971  12.761  -3.142  0.00  0.00    +0.000 C 
ATOM     16  O4  UNL     1      14.736  12.280  -4.243  0.00  0.00    +0.000 OA
BRANCH  15  17
ATOM     17  C11 UNL     1      15.073  14.229  -2.882  0.00  0.00    +0.000 A 
ATOM     18  C12 UNL     1      16.137  14.931  -3.442  0.00  0.00    +0.000 A 
ATOM     19  C13 UNL     1      16.234  16.297  -3.194  0.00  0.00    +0.000 A 
ATOM     20  C14 UNL     1      15.273  16.915  -2.400  0.00  0.00    +0.000 A 
ATOM     21  C15 UNL     1      14.250  16.139  -1.880  0.00  0.00    +0.000 A 
ATOM     22  N2  UNL     1      14.127  14.812  -2.098  0.00  0.00    +0.000 NA
ENDBRANCH  15  17
ENDBRANCH  14  15
ENDBRANCH  13  14
ENDBRANCH   1  13
TORSDOF 7
ENDMDL
MODEL 3
REMARK VINA RESULT:    -5.349      1.815      7.733
REMARK INTER + INTRA:          -8.181
REMARK INTER:                  -7.542
REMARK INTRA:                  -0.639
REMARK UNBOUND:                -0.643
REMARK  Name = /home/anacleto/Desktop/manuscript_Mpro/naturecomm/supplementary_file_S2/6-chemical-library/molecular_docking/3D_ligand_structure/433.pdb
REMARK  7 active torsions:
REMARK  status: ('A' for Active; 'I' for Inactive)
REMARK    1  A    between atoms: C4_5  and  C6_8
REMARK    2  A    between atoms: C6_8  and  C7_9
REMARK    3  A    between atoms: C7_9  and  C8_10
REMARK    4  A    between atoms: C8_10  and  C9_12
REMARK    5  A    between atoms: C9_12  and  O3_13
REMARK    6  A    between atoms: O3_13  and  C10_14
REMARK    7  A    between atoms: C10_14  and  C11_16
REMARK                            x       y       z     vdW  Elec       q    Type
REMARK                         _______ _______ _______ _____ _____    ______ ____
ROOT
ATOM      1  C8  UNL     1      15.869  14.416  -2.127  0.00  0.00    +0.000 C 
ATOM      2  O2  UNL     1      15.768  14.840  -3.280  0.00  0.00    +0.000 OA
ENDROOT
BRANCH   1   3
ATOM      3  C7  UNL     1      15.770  15.358  -0.947  0.00  0.00    +0.000 C 
BRANCH   3   4
ATOM      4  C6  UNL     1      16.942  16.338  -0.949  0.00  0.00    +0.000 C 
BRANCH   4   9
ATOM      5  N1  UNL     1      19.950  16.015   1.288  0.00  0.00    +0.000 N 
ATOM      6  C1  UNL     1      20.733  15.047   0.566  0.00  0.00    +0.000 C 
ATOM      7  C2  UNL     1      20.723  15.336  -0.931  0.00  0.00    +0.000 C 
ATOM      8  C3  UNL     1      19.381  15.889  -1.433  0.00  0.00    +0.000 C 
ATOM      9  C4  UNL     1      18.238  15.706  -0.421  0.00  0.00    +0.000 C 
ATOM     10  C5  UNL     1      18.671  16.330   0.906  0.00  0.00    +0.000 C 
ATOM     11  O1  UNL     1      17.954  17.028   1.613  0.00  0.00    +0.000 OA
ATOM     12  H1  UNL     1      20.228  16.334   2.209  0.00  0.00    +0.000 HD
ENDBRANCH   4   9
ENDBRANCH   3   4
ENDBRANCH   1   3
BRANCH   1  13
ATOM     13  C9  UNL     1      16.098  12.939  -1.800  0.00  0.00    +0.000 C 
BRANCH  13  14
ATOM     14  O3  UNL     1      15.119  12.075  -2.367  0.00  0.00    +0.000 OA
BRANCH  14  15
ATOM     15  C10 UNL     1      15.635  11.077  -3.131  0.00  0.00    +0.000 C 
ATOM     16  O4  UNL     1      16.411  10.213  -2.742  0.00  0.00    +0.000 OA
BRANCH  15  17
ATOM     17  C11 UNL     1      15.129  11.167  -4.534  0.00  0.00    +0.000 A 
ATOM     18  C12 UNL     1      13.828  10.750  -4.799  0.00  0.00    +0.000 A 
ATOM     19  C13 UNL     1      13.360  10.830  -6.108  0.00  0.00    +0.000 A 
ATOM     20  C14 UNL     1      14.200  11.320  -7.103  0.00  0.00    +0.000 A 
ATOM     21  C15 UNL     1      15.482  11.710  -6.750  0.00  0.00    +0.000 A 
ATOM     22  N2  UNL     1      15.968  11.643  -5.492  0.00  0.00    +0.000 NA
ENDBRANCH  15  17
ENDBRANCH  14  15
ENDBRANCH  13  14
ENDBRANCH   1  13
TORSDOF 7
ENDMDL
MODEL 4
REMARK VINA RESULT:    -5.307      3.540      7.109
REMARK INTER + INTRA:          -8.121
REMARK INTER:                  -7.410
REMARK INTRA:                  -0.711
REMARK UNBOUND:                -0.643
REMARK  Name = /home/anacleto/Desktop/manuscript_Mpro/naturecomm/supplementary_file_S2/6-chemical-library/molecular_docking/3D_ligand_structure/433.pdb
REMARK  7 active torsions:
REMARK  status: ('A' for Active; 'I' for Inactive)
REMARK    1  A    between atoms: C4_5  and  C6_8
REMARK    2  A    between atoms: C6_8  and  C7_9
REMARK    3  A    between atoms: C7_9  and  C8_10
REMARK    4  A    between atoms: C8_10  and  C9_12
REMARK    5  A    between atoms: C9_12  and  O3_13
REMARK    6  A    between atoms: O3_13  and  C10_14
REMARK    7  A    between atoms: C10_14  and  C11_16
REMARK                            x       y       z     vdW  Elec       q    Type
REMARK                         _______ _______ _______ _____ _____    ______ ____
ROOT
ATOM      1  C8  UNL     1      16.119  14.100  -1.560  0.00  0.00    +0.000 C 
ATOM      2  O2  UNL     1      16.919  14.825  -0.965  0.00  0.00    +0.000 OA
ENDROOT
BRANCH   1   3
ATOM      3  C7  UNL     1      15.028  14.700  -2.421  0.00  0.00    +0.000 C 
BRANCH   3   4
ATOM      4  C6  UNL     1      13.927  15.296  -1.546  0.00  0.00    +0.000 C 
BRANCH   4   9
ATOM      5  N1  UNL     1      12.381  18.495  -2.782  0.00  0.00    +0.000 N 
ATOM      6  C1  UNL     1      13.435  19.438  -2.514  0.00  0.00    +0.000 C 
ATOM      7  C2  UNL     1      14.796  18.864  -2.891  0.00  0.00    +0.000 C 
ATOM      8  C3  UNL     1      14.915  17.357  -2.623  0.00  0.00    +0.000 C 
ATOM      9  C4  UNL     1      13.794  16.816  -1.721  0.00  0.00    +0.000 C 
ATOM     10  C5  UNL     1      12.452  17.197  -2.345  0.00  0.00    +0.000 C 
ATOM     11  O1  UNL     1      11.487  16.447  -2.433  0.00  0.00    +0.000 OA
ATOM     12  H1  UNL     1      11.472  18.803  -3.110  0.00  0.00    +0.000 HD
ENDBRANCH   4   9
ENDBRANCH   3   4
ENDBRANCH   1   3
BRANCH   1  13
ATOM     13  C9  UNL     1      16.159  12.574  -1.480  0.00  0.00    +0.000 C 
BRANCH  13  14
ATOM     14  O3  UNL     1      15.202  11.937  -2.319  0.00  0.00    +0.000 OA
BRANCH  14  15
ATOM     15  C10 UNL     1      15.726  10.985  -3.136  0.00  0.00    +0.000 C 
ATOM     16  O4  UNL     1      16.542  10.135  -2.804  0.00  0.00    +0.000 OA
BRANCH  15  17
ATOM     17  C11 UNL     1      15.173  11.110  -4.518  0.00  0.00    +0.000 A 
ATOM     18  C12 UNL     1      13.864  10.696  -4.750  0.00  0.00    +0.000 A 
ATOM     19  C13 UNL     1      13.351  10.807  -6.039  0.00  0.00    +0.000 A 
ATOM     20  C14 UNL     1      14.156  11.324  -7.050  0.00  0.00    +0.000 A 
ATOM     21  C15 UNL     1      15.448  11.709  -6.730  0.00  0.00    +0.000 A 
ATOM     22  N2  UNL     1      15.978  11.612  -5.492  0.00  0.00    +0.000 NA
ENDBRANCH  15  17
ENDBRANCH  14  15
ENDBRANCH  13  14
ENDBRANCH   1  13
TORSDOF 7
ENDMDL
MODEL 5
REMARK VINA RESULT:    -5.296      2.088      7.608
REMARK INTER + INTRA:          -8.106
REMARK INTER:                  -7.381
REMARK INTRA:                  -0.725
REMARK UNBOUND:                -0.643
REMARK  Name = /home/anacleto/Desktop/manuscript_Mpro/naturecomm/supplementary_file_S2/6-chemical-library/molecular_docking/3D_ligand_structure/433.pdb
REMARK  7 active torsions:
REMARK  status: ('A' for Active; 'I' for Inactive)
REMARK    1  A    between atoms: C4_5  and  C6_8
REMARK    2  A    between atoms: C6_8  and  C7_9
REMARK    3  A    between atoms: C7_9  and  C8_10
REMARK    4  A    between atoms: C8_10  and  C9_12
REMARK    5  A    between atoms: C9_12  and  O3_13
REMARK    6  A    between atoms: O3_13  and  C10_14
REMARK    7  A    between atoms: C10_14  and  C11_16
REMARK                            x       y       z     vdW  Elec       q    Type
REMARK                         _______ _______ _______ _____ _____    ______ ____
ROOT
ATOM      1  C8  UNL     1      18.054  11.526  -2.088  0.00  0.00    +0.000 C 
ATOM      2  O2  UNL     1      17.182  10.668  -1.934  0.00  0.00    +0.000 OA
ENDROOT
BRANCH   1   3
ATOM      3  C7  UNL     1      18.605  12.286  -0.902  0.00  0.00    +0.000 C 
BRANCH   3   4
ATOM      4  C6  UNL     1      19.356  13.532  -1.370  0.00  0.00    +0.000 C 
BRANCH   4   9
ATOM      5  N1  UNL     1      19.230  16.123   1.355  0.00  0.00    +0.000 N 
ATOM      6  C1  UNL     1      18.019  16.827   1.017  0.00  0.00    +0.000 C 
ATOM      7  C2  UNL     1      16.914  15.857   0.614  0.00  0.00    +0.000 C 
ATOM      8  C3  UNL     1      17.431  14.635  -0.159  0.00  0.00    +0.000 C 
ATOM      9  C4  UNL     1      18.871  14.809  -0.667  0.00  0.00    +0.000 C 
ATOM     10  C5  UNL     1      19.758  15.169   0.525  0.00  0.00    +0.000 C 
ATOM     11  O1  UNL     1      20.868  14.692   0.735  0.00  0.00    +0.000 OA
ATOM     12  H1  UNL     1      19.838  16.451   2.097  0.00  0.00    +0.000 HD
ENDBRANCH   4   9
ENDBRANCH   3   4
ENDBRANCH   1   3
BRANCH   1  13
ATOM     13  C9  UNL     1      18.635  11.887  -3.456  0.00  0.00    +0.000 C 
BRANCH  13  14
ATOM     14  O3  UNL     1      17.821  11.466  -4.546  0.00  0.00    +0.000 OA
BRANCH  14  15
ATOM     15  C10 UNL     1      16.944  12.409  -4.979  0.00  0.00    +0.000 C 
ATOM     16  O4  UNL     1      17.150  13.616  -4.999  0.00  0.00    +0.000 OA
BRANCH  15  17
ATOM     17  C11 UNL     1      15.669  11.778  -5.436  0.00  0.00    +0.000 A 
ATOM     18  C12 UNL     1      15.358  11.815  -6.793  0.00  0.00    +0.000 A 
ATOM     19  C13 UNL     1      14.168  11.232  -7.217  0.00  0.00    +0.000 A 
ATOM     20  C14 UNL     1      13.331  10.633  -6.279  0.00  0.00    +0.000 A 
ATOM     21  C15 UNL     1      13.718  10.643  -4.949  0.00  0.00    +0.000 A 
ATOM     22  N2  UNL     1      14.864  11.203  -4.504  0.00  0.00    +0.000 NA
ENDBRANCH  15  17
ENDBRANCH  14  15
ENDBRANCH  13  14
ENDBRANCH   1  13
TORSDOF 7
ENDMDL
MODEL 6
REMARK VINA RESULT:    -5.235      1.620      7.100
REMARK INTER + INTRA:          -8.020
REMARK INTER:                  -7.237
REMARK INTRA:                  -0.783
REMARK UNBOUND:                -0.643
REMARK  Name = /home/anacleto/Desktop/manuscript_Mpro/naturecomm/supplementary_file_S2/6-chemical-library/molecular_docking/3D_ligand_structure/433.pdb
REMARK  7 active torsions:
REMARK  status: ('A' for Active; 'I' for Inactive)
REMARK    1  A    between atoms: C4_5  and  C6_8
REMARK    2  A    between atoms: C6_8  and  C7_9
REMARK    3  A    between atoms: C7_9  and  C8_10
REMARK    4  A    between atoms: C8_10  and  C9_12
REMARK    5  A    between atoms: C9_12  and  O3_13
REMARK    6  A    between atoms: O3_13  and  C10_14
REMARK    7  A    between atoms: C10_14  and  C11_16
REMARK                            x       y       z     vdW  Elec       q    Type
REMARK                         _______ _______ _______ _____ _____    ______ ____
ROOT
ATOM      1  C8  UNL     1      17.364  10.914  -1.813  0.00  0.00    +0.000 C 
ATOM      2  O2  UNL     1      17.389  10.090  -2.729  0.00  0.00    +0.000 OA
ENDROOT
BRANCH   1   3
ATOM      3  C7  UNL     1      18.649  11.447  -1.220  0.00  0.00    +0.000 C 
BRANCH   3   4
ATOM      4  C6  UNL     1      18.960  12.833  -1.782  0.00  0.00    +0.000 C 
BRANCH   4   9
ATOM      5  N1  UNL     1      19.208  15.694   0.649  0.00  0.00    +0.000 N 
ATOM      6  C1  UNL     1      20.631  15.762   0.857  0.00  0.00    +0.000 C 
ATOM      7  C2  UNL     1      21.389  15.599  -0.456  0.00  0.00    +0.000 C 
ATOM      8  C3  UNL     1      20.717  14.614  -1.425  0.00  0.00    +0.000 C 
ATOM      9  C4  UNL     1      19.642  13.746  -0.752  0.00  0.00    +0.000 C 
ATOM     10  C5  UNL     1      18.638  14.674  -0.068  0.00  0.00    +0.000 C 
ATOM     11  O1  UNL     1      17.421  14.531  -0.105  0.00  0.00    +0.000 OA
ATOM     12  H1  UNL     1      18.570  16.265   1.191  0.00  0.00    +0.000 HD
ENDBRANCH   4   9
ENDBRANCH   3   4
ENDBRANCH   1   3
BRANCH   1  13
ATOM     13  C9  UNL     1      16.064  11.451  -1.212  0.00  0.00    +0.000 C 
BRANCH  13  14
ATOM     14  O3  UNL     1      14.988  11.500  -2.143  0.00  0.00    +0.000 OA
BRANCH  14  15
ATOM     15  C10 UNL     1      15.048  12.549  -3.006  0.00  0.00    +0.000 C 
ATOM     16  O4  UNL     1      15.333  13.701  -2.705  0.00  0.00    +0.000 OA
BRANCH  15  17
ATOM     17  C11 UNL     1      14.715  12.112  -4.395  0.00  0.00    +0.000 A 
ATOM     18  C12 UNL     1      15.155  12.893  -5.461  0.00  0.00    +0.000 A 
ATOM     19  C13 UNL     1      14.838  12.488  -6.754  0.00  0.00    +0.000 A 
ATOM     20  C14 UNL     1      14.098  11.325  -6.942  0.00  0.00    +0.000 A 
ATOM     21  C15 UNL     1      13.698  10.611  -5.824  0.00  0.00    +0.000 A 
ATOM     22  N2  UNL     1      13.985  10.977  -4.556  0.00  0.00    +0.000 NA
ENDBRANCH  15  17
ENDBRANCH  14  15
ENDBRANCH  13  14
ENDBRANCH   1  13
TORSDOF 7
ENDMDL
MODEL 7
REMARK VINA RESULT:    -5.131     14.645     17.045
REMARK INTER + INTRA:          -7.874
REMARK INTER:                  -7.231
REMARK INTRA:                  -0.643
REMARK UNBOUND:                -0.643
REMARK  Name = /home/anacleto/Desktop/manuscript_Mpro/naturecomm/supplementary_file_S2/6-chemical-library/molecular_docking/3D_ligand_structure/433.pdb
REMARK  7 active torsions:
REMARK  status: ('A' for Active; 'I' for Inactive)
REMARK    1  A    between atoms: C4_5  and  C6_8
REMARK    2  A    between atoms: C6_8  and  C7_9
REMARK    3  A    between atoms: C7_9  and  C8_10
REMARK    4  A    between atoms: C8_10  and  C9_12
REMARK    5  A    between atoms: C9_12  and  O3_13
REMARK    6  A    between atoms: O3_13  and  C10_14
REMARK    7  A    between atoms: C10_14  and  C11_16
REMARK                            x       y       z     vdW  Elec       q    Type
REMARK                         _______ _______ _______ _____ _____    ______ ____
ROOT
ATOM      1  C8  UNL     1      16.583   5.568  13.609  0.00  0.00    +0.000 C 
ATOM      2  O2  UNL     1      16.408   6.419  14.483  0.00  0.00    +0.000 OA
ENDROOT
BRANCH   1   3
ATOM      3  C7  UNL     1      17.929   5.424  12.932  0.00  0.00    +0.000 C 
BRANCH   3   4
ATOM      4  C6  UNL     1      18.306   6.720  12.217  0.00  0.00    +0.000 C 
BRANCH   4   9
ATOM      5  N1  UNL     1      21.776   7.196  10.843  0.00  0.00    +0.000 N 
ATOM      6  C1  UNL     1      21.623   6.678   9.508  0.00  0.00    +0.000 C 
ATOM      7  C2  UNL     1      20.311   7.143   8.884  0.00  0.00    +0.000 C 
ATOM      8  C3  UNL     1      19.160   7.242   9.896  0.00  0.00    +0.000 C 
ATOM      9  C4  UNL     1      19.463   6.529  11.224  0.00  0.00    +0.000 C 
ATOM     10  C5  UNL     1      20.777   7.082  11.774  0.00  0.00    +0.000 C 
ATOM     11  O1  UNL     1      20.971   7.375  12.949  0.00  0.00    +0.000 OA
ATOM     12  H1  UNL     1      22.686   7.467  11.200  0.00  0.00    +0.000 HD
ENDBRANCH   4   9
ENDBRANCH   3   4
ENDBRANCH   1   3
BRANCH   1  13
ATOM     13  C9  UNL     1      15.483   4.612  13.145  0.00  0.00    +0.000 C 
BRANCH  13  14
ATOM     14  O3  UNL     1      15.832   3.869  11.982  0.00  0.00    +0.000 OA
BRANCH  14  15
ATOM     15  C10 UNL     1      14.766   3.469  11.239  0.00  0.00    +0.000 C 
ATOM     16  O4  UNL     1      13.590   3.626  11.542  0.00  0.00    +0.000 OA
BRANCH  15  17
ATOM     17  C11 UNL     1      15.217   2.798   9.983  0.00  0.00    +0.000 A 
ATOM     18  C12 UNL     1      16.191   3.423   9.208  0.00  0.00    +0.000 A 
ATOM     19  C13 UNL     1      16.606   2.800   8.035  0.00  0.00    +0.000 A 
ATOM     20  C14 UNL     1      16.040   1.581   7.674  0.00  0.00    +0.000 A 
ATOM     21  C15 UNL     1      15.075   1.032   8.503  0.00  0.00    +0.000 A 
ATOM     22  N2  UNL     1      14.647   1.611   9.645  0.00  0.00    +0.000 NA
ENDBRANCH  15  17
ENDBRANCH  14  15
ENDBRANCH  13  14
ENDBRANCH   1  13
TORSDOF 7
ENDMDL
MODEL 8
REMARK VINA RESULT:    -5.112      2.351      6.935
REMARK INTER + INTRA:          -7.848
REMARK INTER:                  -6.714
REMARK INTRA:                  -1.133
REMARK UNBOUND:                -0.643
REMARK  Name = /home/anacleto/Desktop/manuscript_Mpro/naturecomm/supplementary_file_S2/6-chemical-library/molecular_docking/3D_ligand_structure/433.pdb
REMARK  7 active torsions:
REMARK  status: ('A' for Active; 'I' for Inactive)
REMARK    1  A    between atoms: C4_5  and  C6_8
REMARK    2  A    between atoms: C6_8  and  C7_9
REMARK    3  A    between atoms: C7_9  and  C8_10
REMARK    4  A    between atoms: C8_10  and  C9_12
REMARK    5  A    between atoms: C9_12  and  O3_13
REMARK    6  A    between atoms: O3_13  and  C10_14
REMARK    7  A    between atoms: C10_14  and  C11_16
REMARK                            x       y       z     vdW  Elec       q    Type
REMARK                         _______ _______ _______ _____ _____    ______ ____
ROOT
ATOM      1  C8  UNL     1      14.691  15.835  -1.651  0.00  0.00    +0.000 C 
ATOM      2  O2  UNL     1      13.760  16.404  -1.077  0.00  0.00    +0.000 OA
ENDROOT
BRANCH   1   3
ATOM      3  C7  UNL     1      16.123  16.080  -1.227  0.00  0.00    +0.000 C 
BRANCH   3   4
ATOM      4  C6  UNL     1      16.434  15.323   0.063  0.00  0.00    +0.000 C 
BRANCH   4   9
ATOM      5  N1  UNL     1      19.953  16.246   1.022  0.00  0.00    +0.000 N 
ATOM      6  C1  UNL     1      20.696  15.159   0.438  0.00  0.00    +0.000 C 
ATOM      7  C2  UNL     1      20.178  14.823  -0.956  0.00  0.00    +0.000 C 
ATOM      8  C3  UNL     1      18.656  14.982  -1.091  0.00  0.00    +0.000 C 
ATOM      9  C4  UNL     1      17.940  15.098   0.264  0.00  0.00    +0.000 C 
ATOM     10  C5  UNL     1      18.582  16.242   1.048  0.00  0.00    +0.000 C 
ATOM     11  O1  UNL     1      17.960  17.083   1.686  0.00  0.00    +0.000 OA
ATOM     12  H1  UNL     1      20.405  16.934   1.613  0.00  0.00    +0.000 HD
ENDBRANCH   4   9
ENDBRANCH   3   4
ENDBRANCH   1   3
BRANCH   1  13
ATOM     13  C9  UNL     1      14.483  14.859  -2.810  0.00  0.00    +0.000 C 
BRANCH  13  14
ATOM     14  O3  UNL     1      14.628  13.494  -2.434  0.00  0.00    +0.000 OA
BRANCH  14  15
ATOM     15  C10 UNL     1      14.916  12.661  -3.468  0.00  0.00    +0.000 C 
ATOM     16  O4  UNL     1      14.297  12.599  -4.524  0.00  0.00    +0.000 OA
BRANCH  15  17
ATOM     17  C11 UNL     1      16.103  11.811  -3.151  0.00  0.00    +0.000 A 
ATOM     18  C12 UNL     1      16.676  11.916  -1.887  0.00  0.00    +0.000 A 
ATOM     19  C13 UNL     1      17.786  11.128  -1.594  0.00  0.00    +0.000 A 
ATOM     20  C14 UNL     1      18.285  10.266  -2.567  0.00  0.00    +0.000 A 
ATOM     21  C15 UNL     1      17.654  10.228  -3.799  0.00  0.00    +0.000 A 
ATOM     22  N2  UNL     1      16.578  10.981  -4.117  0.00  0.00    +0.000 NA
ENDBRANCH  15  17
ENDBRANCH  14  15
ENDBRANCH  13  14
ENDBRANCH   1  13
TORSDOF 7
ENDMDL
MODEL 9
REMARK VINA RESULT:    -5.112      3.294      7.079
REMARK INTER + INTRA:          -7.847
REMARK INTER:                  -7.172
REMARK INTRA:                  -0.675
REMARK UNBOUND:                -0.643
REMARK  Name = /home/anacleto/Desktop/manuscript_Mpro/naturecomm/supplementary_file_S2/6-chemical-library/molecular_docking/3D_ligand_structure/433.pdb
REMARK  7 active torsions:
REMARK  status: ('A' for Active; 'I' for Inactive)
REMARK    1  A    between atoms: C4_5  and  C6_8
REMARK    2  A    between atoms: C6_8  and  C7_9
REMARK    3  A    between atoms: C7_9  and  C8_10
REMARK    4  A    between atoms: C8_10  and  C9_12
REMARK    5  A    between atoms: C9_12  and  O3_13
REMARK    6  A    between atoms: O3_13  and  C10_14
REMARK    7  A    between atoms: C10_14  and  C11_16
REMARK                            x       y       z     vdW  Elec       q    Type
REMARK                         _______ _______ _______ _____ _____    ______ ____
ROOT
ATOM      1  C8  UNL     1      16.811  14.252  -1.272  0.00  0.00    +0.000 C 
ATOM      2  O2  UNL     1      17.915  13.930  -0.829  0.00  0.00    +0.000 OA
ENDROOT
BRANCH   1   3
ATOM      3  C7  UNL     1      16.068  15.440  -0.701  0.00  0.00    +0.000 C 
BRANCH   3   4
ATOM      4  C6  UNL     1      15.821  16.485  -1.787  0.00  0.00    +0.000 C 
BRANCH   4   9
ATOM      5  N1  UNL     1      12.528  18.150  -2.522  0.00  0.00    +0.000 N 
ATOM      6  C1  UNL     1      11.648  17.012  -2.591  0.00  0.00    +0.000 C 
ATOM      7  C2  UNL     1      11.950  16.014  -1.479  0.00  0.00    +0.000 C 
ATOM      8  C3  UNL     1      13.445  15.913  -1.143  0.00  0.00    +0.000 C 
ATOM      9  C4  UNL     1      14.346  16.556  -2.210  0.00  0.00    +0.000 C 
ATOM     10  C5  UNL     1      13.886  17.999  -2.418  0.00  0.00    +0.000 C 
ATOM     11  O1  UNL     1      14.639  18.960  -2.523  0.00  0.00    +0.000 OA
ATOM     12  H1  UNL     1      12.202  19.081  -2.757  0.00  0.00    +0.000 HD
ENDBRANCH   4   9
ENDBRANCH   3   4
ENDBRANCH   1   3
BRANCH   1  13
ATOM     13  C9  UNL     1      16.115  13.497  -2.405  0.00  0.00    +0.000 C 
BRANCH  13  14
ATOM     14  O3  UNL     1      16.929  12.491  -2.999  0.00  0.00    +0.000 OA
BRANCH  14  15
ATOM     15  C10 UNL     1      16.313  11.287  -3.135  0.00  0.00    +0.000 C 
ATOM     16  O4  UNL     1      16.398  10.353  -2.347  0.00  0.00    +0.000 OA
BRANCH  15  17
ATOM     17  C11 UNL     1      15.504  11.243  -4.390  0.00  0.00    +0.000 A 
ATOM     18  C12 UNL     1      16.123  11.580  -5.591  0.00  0.00    +0.000 A 
ATOM     19  C13 UNL     1      15.367  11.544  -6.759  0.00  0.00    +0.000 A 
ATOM     20  C14 UNL     1      14.026  11.177  -6.692  0.00  0.00    +0.000 A 
ATOM     21  C15 UNL     1      13.491  10.861  -5.454  0.00  0.00    +0.000 A 
ATOM     22  N2  UNL     1      14.195  10.888  -4.301  0.00  0.00    +0.000 NA
ENDBRANCH  15  17
ENDBRANCH  14  15
ENDBRANCH  13  14
ENDBRANCH   1  13
TORSDOF 7
ENDMDL
