MODEL 1
REMARK VINA RESULT:    -3.978      0.000      0.000
REMARK INTER + INTRA:          -4.624
REMARK INTER:                  -4.366
REMARK INTRA:                  -0.257
REMARK UNBOUND:                -0.180
REMARK  Name = /home/anacleto/Desktop/manuscript_Mpro/naturecomm/supplementary_file_S2/6-chemical-library/molecular_docking/3D_ligand_structure/1189.pdb
REMARK  2 active torsions:
REMARK  status: ('A' for Active; 'I' for Inactive)
REMARK    1  A    between atoms: C4_5  and  C5_7
REMARK    2  A    between atoms: C5_7  and  N2_8
REMARK                            x       y       z     vdW  Elec       q    Type
REMARK                         _______ _______ _______ _____ _____    ______ ____
ROOT
ATOM      1  C1  UNL     1      14.465  11.342  -7.297  0.00  0.00    +0.000 C 
ATOM      2  C2  UNL     1      13.145  10.580  -7.132  0.00  0.00    +0.000 C 
ATOM      3  C3  UNL     1      13.073  11.129  -5.703  0.00  0.00    +0.000 C 
ATOM      4  N1  UNL     1      14.052  12.119  -6.135  0.00  0.00    +0.000 N 
ATOM      5  C4  UNL     1      14.847  12.951  -5.389  0.00  0.00    +0.000 C 
ATOM      6  O1  UNL     1      15.927  13.377  -5.800  0.00  0.00    +0.000 OA
ENDROOT
BRANCH   5   7
ATOM      7  C5  UNL     1      14.328  13.330  -4.026  0.00  0.00    +0.000 C 
BRANCH   7   8
ATOM      8  N2  UNL     1      15.151  12.757  -2.990  0.00  0.00    +0.000 N 
ATOM      9  C6  UNL     1      15.889  13.409  -2.051  0.00  0.00    +0.000 A 
ATOM     10  N3  UNL     1      16.466  12.531  -1.264  0.00  0.00    +0.000 NA
ATOM     11  C7  UNL     1      16.041  11.336  -1.768  0.00  0.00    +0.000 A 
ATOM     12  N4  UNL     1      15.230  11.421  -2.827  0.00  0.00    +0.000 NA
ENDBRANCH   7   8
ENDBRANCH   5   7
TORSDOF 2
ENDMDL
MODEL 2
REMARK VINA RESULT:    -3.885      2.254      2.779
REMARK INTER + INTRA:          -4.519
REMARK INTER:                  -4.282
REMARK INTRA:                  -0.237
REMARK UNBOUND:                -0.180
REMARK  Name = /home/anacleto/Desktop/manuscript_Mpro/naturecomm/supplementary_file_S2/6-chemical-library/molecular_docking/3D_ligand_structure/1189.pdb
REMARK  2 active torsions:
REMARK  status: ('A' for Active; 'I' for Inactive)
REMARK    1  A    between atoms: C4_5  and  C5_7
REMARK    2  A    between atoms: C5_7  and  N2_8
REMARK                            x       y       z     vdW  Elec       q    Type
REMARK                         _______ _______ _______ _____ _____    ______ ____
ROOT
ATOM      1  C1  UNL     1      13.679  10.605  -4.856  0.00  0.00    +0.000 C 
ATOM      2  C2  UNL     1      13.489  11.024  -6.318  0.00  0.00    +0.000 C 
ATOM      3  C3  UNL     1      14.044  12.401  -5.936  0.00  0.00    +0.000 C 
ATOM      4  N1  UNL     1      14.572  11.752  -4.743  0.00  0.00    +0.000 N 
ATOM      5  C4  UNL     1      15.043  12.304  -3.579  0.00  0.00    +0.000 C 
ATOM      6  O1  UNL     1      15.013  11.704  -2.504  0.00  0.00    +0.000 OA
ENDROOT
BRANCH   5   7
ATOM      7  C5  UNL     1      15.613  13.695  -3.680  0.00  0.00    +0.000 C 
BRANCH   7   8
ATOM      8  N2  UNL     1      15.057  14.548  -2.659  0.00  0.00    +0.000 N 
ATOM      9  C6  UNL     1      15.691  15.092  -1.586  0.00  0.00    +0.000 A 
ATOM     10  N3  UNL     1      14.848  15.842  -0.914  0.00  0.00    +0.000 NA
ATOM     11  C7  UNL     1      13.692  15.725  -1.631  0.00  0.00    +0.000 A 
ATOM     12  N4  UNL     1      13.769  14.943  -2.712  0.00  0.00    +0.000 NA
ENDBRANCH   7   8
ENDBRANCH   5   7
TORSDOF 2
ENDMDL
MODEL 3
REMARK VINA RESULT:    -3.820      1.491      1.679
REMARK INTER + INTRA:          -4.447
REMARK INTER:                  -4.183
REMARK INTRA:                  -0.264
REMARK UNBOUND:                -0.180
REMARK  Name = /home/anacleto/Desktop/manuscript_Mpro/naturecomm/supplementary_file_S2/6-chemical-library/molecular_docking/3D_ligand_structure/1189.pdb
REMARK  2 active torsions:
REMARK  status: ('A' for Active; 'I' for Inactive)
REMARK    1  A    between atoms: C4_5  and  C5_7
REMARK    2  A    between atoms: C5_7  and  N2_8
REMARK                            x       y       z     vdW  Elec       q    Type
REMARK                         _______ _______ _______ _____ _____    ______ ____
ROOT
ATOM      1  C1  UNL     1      14.226  12.045  -6.494  0.00  0.00    +0.000 C 
ATOM      2  C2  UNL     1      13.238  10.873  -6.498  0.00  0.00    +0.000 C 
ATOM      3  C3  UNL     1      13.638  10.606  -5.043  0.00  0.00    +0.000 C 
ATOM      4  N1  UNL     1      14.172  11.962  -5.040  0.00  0.00    +0.000 N 
ATOM      5  C4  UNL     1      15.033  12.564  -4.159  0.00  0.00    +0.000 C 
ATOM      6  O1  UNL     1      15.768  13.497  -4.487  0.00  0.00    +0.000 OA
ENDROOT
BRANCH   5   7
ATOM      7  C5  UNL     1      15.035  12.028  -2.751  0.00  0.00    +0.000 C 
BRANCH   7   8
ATOM      8  N2  UNL     1      16.322  11.468  -2.420  0.00  0.00    +0.000 N 
ATOM      9  C6  UNL     1      17.113  11.763  -1.353  0.00  0.00    +0.000 A 
ATOM     10  N3  UNL     1      18.189  11.010  -1.387  0.00  0.00    +0.000 NA
ATOM     11  C7  UNL     1      18.004  10.257  -2.511  0.00  0.00    +0.000 A 
ATOM     12  N4  UNL     1      16.873  10.500  -3.180  0.00  0.00    +0.000 NA
ENDBRANCH   7   8
ENDBRANCH   5   7
TORSDOF 2
ENDMDL
MODEL 4
REMARK VINA RESULT:    -3.785      1.578      4.998
REMARK INTER + INTRA:          -4.408
REMARK INTER:                  -4.289
REMARK INTRA:                  -0.119
REMARK UNBOUND:                -0.180
REMARK  Name = /home/anacleto/Desktop/manuscript_Mpro/naturecomm/supplementary_file_S2/6-chemical-library/molecular_docking/3D_ligand_structure/1189.pdb
REMARK  2 active torsions:
REMARK  status: ('A' for Active; 'I' for Inactive)
REMARK    1  A    between atoms: C4_5  and  C5_7
REMARK    2  A    between atoms: C5_7  and  N2_8
REMARK                            x       y       z     vdW  Elec       q    Type
REMARK                         _______ _______ _______ _____ _____    ______ ____
ROOT
ATOM      1  C1  UNL     1      16.132  14.351  -1.375  0.00  0.00    +0.000 C 
ATOM      2  C2  UNL     1      17.205  13.650  -0.534  0.00  0.00    +0.000 C 
ATOM      3  C3  UNL     1      16.728  12.323  -1.135  0.00  0.00    +0.000 C 
ATOM      4  N1  UNL     1      16.092  13.129  -2.170  0.00  0.00    +0.000 N 
ATOM      5  C4  UNL     1      15.129  12.784  -3.083  0.00  0.00    +0.000 C 
ATOM      6  O1  UNL     1      14.349  13.608  -3.563  0.00  0.00    +0.000 OA
ENDROOT
BRANCH   5   7
ATOM      7  C5  UNL     1      15.072  11.333  -3.481  0.00  0.00    +0.000 C 
BRANCH   7   8
ATOM      8  N2  UNL     1      14.583  11.193  -4.831  0.00  0.00    +0.000 N 
ATOM      9  C6  UNL     1      13.384  10.696  -5.238  0.00  0.00    +0.000 A 
ATOM     10  N3  UNL     1      13.302  10.775  -6.547  0.00  0.00    +0.000 NA
ATOM     11  C7  UNL     1      14.494  11.340  -6.898  0.00  0.00    +0.000 A 
ATOM     12  N4  UNL     1      15.315  11.617  -5.881  0.00  0.00    +0.000 NA
ENDBRANCH   7   8
ENDBRANCH   5   7
TORSDOF 2
ENDMDL
MODEL 5
REMARK VINA RESULT:    -3.627      3.182      3.617
REMARK INTER + INTRA:          -4.232
REMARK INTER:                  -3.996
REMARK INTRA:                  -0.236
REMARK UNBOUND:                -0.180
REMARK  Name = /home/anacleto/Desktop/manuscript_Mpro/naturecomm/supplementary_file_S2/6-chemical-library/molecular_docking/3D_ligand_structure/1189.pdb
REMARK  2 active torsions:
REMARK  status: ('A' for Active; 'I' for Inactive)
REMARK    1  A    between atoms: C4_5  and  C5_7
REMARK    2  A    between atoms: C5_7  and  N2_8
REMARK                            x       y       z     vdW  Elec       q    Type
REMARK                         _______ _______ _______ _____ _____    ______ ____
ROOT
ATOM      1  C1  UNL     1      13.312  10.521  -5.199  0.00  0.00    +0.000 C 
ATOM      2  C2  UNL     1      13.148  10.809  -6.696  0.00  0.00    +0.000 C 
ATOM      3  C3  UNL     1      14.421  11.659  -6.613  0.00  0.00    +0.000 C 
ATOM      4  N1  UNL     1      14.692  10.961  -5.362  0.00  0.00    +0.000 N 
ATOM      5  C4  UNL     1      15.570  11.272  -4.356  0.00  0.00    +0.000 C 
ATOM      6  O1  UNL     1      15.390  10.919  -3.190  0.00  0.00    +0.000 OA
ENDROOT
BRANCH   5   7
ATOM      7  C5  UNL     1      16.785  12.072  -4.750  0.00  0.00    +0.000 C 
BRANCH   7   8
ATOM      8  N2  UNL     1      17.869  11.199  -5.126  0.00  0.00    +0.000 N 
ATOM      9  C6  UNL     1      18.816  10.647  -4.321  0.00  0.00    +0.000 A 
ATOM     10  N3  UNL     1      19.605   9.880  -5.038  0.00  0.00    +0.000 NA
ATOM     11  C7  UNL     1      19.088   9.996  -6.296  0.00  0.00    +0.000 A 
ATOM     12  N4  UNL     1      18.021  10.793  -6.403  0.00  0.00    +0.000 NA
ENDBRANCH   7   8
ENDBRANCH   5   7
TORSDOF 2
ENDMDL
MODEL 6
REMARK VINA RESULT:    -3.565     16.399     17.361
REMARK INTER + INTRA:          -4.162
REMARK INTER:                  -3.905
REMARK INTRA:                  -0.256
REMARK UNBOUND:                -0.180
REMARK  Name = /home/anacleto/Desktop/manuscript_Mpro/naturecomm/supplementary_file_S2/6-chemical-library/molecular_docking/3D_ligand_structure/1189.pdb
REMARK  2 active torsions:
REMARK  status: ('A' for Active; 'I' for Inactive)
REMARK    1  A    between atoms: C4_5  and  C5_7
REMARK    2  A    between atoms: C5_7  and  N2_8
REMARK                            x       y       z     vdW  Elec       q    Type
REMARK                         _______ _______ _______ _____ _____    ______ ____
ROOT
ATOM      1  C1  UNL     1      22.630   5.151   9.497  0.00  0.00    +0.000 C 
ATOM      2  C2  UNL     1      22.084   4.584   8.181  0.00  0.00    +0.000 C 
ATOM      3  C3  UNL     1      20.735   5.224   8.531  0.00  0.00    +0.000 C 
ATOM      4  N1  UNL     1      21.479   6.046   9.478  0.00  0.00    +0.000 N 
ATOM      5  C4  UNL     1      21.025   6.808  10.524  0.00  0.00    +0.000 C 
ATOM      6  O1  UNL     1      21.721   7.060  11.509  0.00  0.00    +0.000 OA
ENDROOT
BRANCH   5   7
ATOM      7  C5  UNL     1      19.619   7.336  10.408  0.00  0.00    +0.000 C 
BRANCH   7   8
ATOM      8  N2  UNL     1      18.811   6.880  11.513  0.00  0.00    +0.000 N 
ATOM      9  C6  UNL     1      18.483   5.600  11.837  0.00  0.00    +0.000 A 
ATOM     10  N3  UNL     1      17.764   5.600  12.936  0.00  0.00    +0.000 NA
ATOM     11  C7  UNL     1      17.681   6.926  13.252  0.00  0.00    +0.000 A 
ATOM     12  N4  UNL     1      18.308   7.752  12.410  0.00  0.00    +0.000 NA
ENDBRANCH   7   8
ENDBRANCH   5   7
TORSDOF 2
ENDMDL
MODEL 7
REMARK VINA RESULT:    -3.562      2.172      5.172
REMARK INTER + INTRA:          -4.158
REMARK INTER:                  -3.920
REMARK INTRA:                  -0.238
REMARK UNBOUND:                -0.180
REMARK  Name = /home/anacleto/Desktop/manuscript_Mpro/naturecomm/supplementary_file_S2/6-chemical-library/molecular_docking/3D_ligand_structure/1189.pdb
REMARK  2 active torsions:
REMARK  status: ('A' for Active; 'I' for Inactive)
REMARK    1  A    between atoms: C4_5  and  C5_7
REMARK    2  A    between atoms: C5_7  and  N2_8
REMARK                            x       y       z     vdW  Elec       q    Type
REMARK                         _______ _______ _______ _____ _____    ______ ____
ROOT
ATOM      1  C1  UNL     1      18.491  11.863  -0.871  0.00  0.00    +0.000 C 
ATOM      2  C2  UNL     1      18.612  13.340  -0.475  0.00  0.00    +0.000 C 
ATOM      3  C3  UNL     1      17.347  13.605  -1.299  0.00  0.00    +0.000 C 
ATOM      4  N1  UNL     1      17.109  12.169  -1.220  0.00  0.00    +0.000 N 
ATOM      5  C4  UNL     1      16.262  11.378  -1.954  0.00  0.00    +0.000 C 
ATOM      6  O1  UNL     1      16.474  10.179  -2.141  0.00  0.00    +0.000 OA
ENDROOT
BRANCH   5   7
ATOM      7  C5  UNL     1      15.041  12.052  -2.523  0.00  0.00    +0.000 C 
BRANCH   7   8
ATOM      8  N2  UNL     1      14.940  11.811  -3.941  0.00  0.00    +0.000 N 
ATOM      9  C6  UNL     1      15.706  12.336  -4.935  0.00  0.00    +0.000 A 
ATOM     10  N3  UNL     1      15.323  11.839  -6.089  0.00  0.00    +0.000 NA
ATOM     11  C7  UNL     1      14.306  10.997  -5.741  0.00  0.00    +0.000 A 
ATOM     12  N4  UNL     1      14.033  10.944  -4.434  0.00  0.00    +0.000 NA
ENDBRANCH   7   8
ENDBRANCH   5   7
TORSDOF 2
ENDMDL
MODEL 8
REMARK VINA RESULT:    -3.467      2.075      2.549
REMARK INTER + INTRA:          -4.052
REMARK INTER:                  -3.857
REMARK INTRA:                  -0.195
REMARK UNBOUND:                -0.180
REMARK  Name = /home/anacleto/Desktop/manuscript_Mpro/naturecomm/supplementary_file_S2/6-chemical-library/molecular_docking/3D_ligand_structure/1189.pdb
REMARK  2 active torsions:
REMARK  status: ('A' for Active; 'I' for Inactive)
REMARK    1  A    between atoms: C4_5  and  C5_7
REMARK    2  A    between atoms: C5_7  and  N2_8
REMARK                            x       y       z     vdW  Elec       q    Type
REMARK                         _______ _______ _______ _____ _____    ______ ____
ROOT
ATOM      1  C1  UNL     1      14.056  10.609  -5.087  0.00  0.00    +0.000 C 
ATOM      2  C2  UNL     1      13.503  11.644  -6.074  0.00  0.00    +0.000 C 
ATOM      3  C3  UNL     1      13.863  12.727  -5.050  0.00  0.00    +0.000 C 
ATOM      4  N1  UNL     1      14.730  11.727  -4.438  0.00  0.00    +0.000 N 
ATOM      5  C4  UNL     1      15.316  11.714  -3.199  0.00  0.00    +0.000 C 
ATOM      6  O1  UNL     1      15.611  10.668  -2.619  0.00  0.00    +0.000 OA
ENDROOT
BRANCH   5   7
ATOM      7  C5  UNL     1      15.591  13.057  -2.573  0.00  0.00    +0.000 C 
BRANCH   7   8
ATOM      8  N2  UNL     1      16.910  13.087  -1.991  0.00  0.00    +0.000 N 
ATOM      9  C6  UNL     1      17.242  13.140  -0.673  0.00  0.00    +0.000 A 
ATOM     10  N3  UNL     1      18.549  13.113  -0.551  0.00  0.00    +0.000 NA
ATOM     11  C7  UNL     1      18.979  13.039  -1.845  0.00  0.00    +0.000 A 
ATOM     12  N4  UNL     1      18.011  13.019  -2.766  0.00  0.00    +0.000 NA
ENDBRANCH   7   8
ENDBRANCH   5   7
TORSDOF 2
ENDMDL
MODEL 9
REMARK VINA RESULT:    -3.455     16.445     17.517
REMARK INTER + INTRA:          -4.039
REMARK INTER:                  -3.859
REMARK INTRA:                  -0.180
REMARK UNBOUND:                -0.180
REMARK  Name = /home/anacleto/Desktop/manuscript_Mpro/naturecomm/supplementary_file_S2/6-chemical-library/molecular_docking/3D_ligand_structure/1189.pdb
REMARK  2 active torsions:
REMARK  status: ('A' for Active; 'I' for Inactive)
REMARK    1  A    between atoms: C4_5  and  C5_7
REMARK    2  A    between atoms: C5_7  and  N2_8
REMARK                            x       y       z     vdW  Elec       q    Type
REMARK                         _______ _______ _______ _____ _____    ______ ____
ROOT
ATOM      1  C1  UNL     1      20.583   4.006   9.171  0.00  0.00    +0.000 C 
ATOM      2  C2  UNL     1      21.704   4.692   8.383  0.00  0.00    +0.000 C 
ATOM      3  C3  UNL     1      21.079   6.036   8.776  0.00  0.00    +0.000 C 
ATOM      4  N1  UNL     1      20.375   5.297   9.816  0.00  0.00    +0.000 N 
ATOM      5  C4  UNL     1      19.291   5.663  10.572  0.00  0.00    +0.000 C 
ATOM      6  O1  UNL     1      18.510   4.838  11.050  0.00  0.00    +0.000 OA
ENDROOT
BRANCH   5   7
ATOM      7  C5  UNL     1      19.099   7.140  10.798  0.00  0.00    +0.000 C 
BRANCH   7   8
ATOM      8  N2  UNL     1      19.002   7.431  12.207  0.00  0.00    +0.000 N 
ATOM      9  C6  UNL     1      20.016   7.619  13.094  0.00  0.00    +0.000 A 
ATOM     10  N3  UNL     1      19.516   7.902  14.274  0.00  0.00    +0.000 NA
ATOM     11  C7  UNL     1      18.169   7.880  14.053  0.00  0.00    +0.000 A 
ATOM     12  N4  UNL     1      17.803   7.596  12.799  0.00  0.00    +0.000 NA
ENDBRANCH   7   8
ENDBRANCH   5   7
TORSDOF 2
ENDMDL
