MODEL 1
REMARK VINA RESULT:    -3.819      0.000      0.000
REMARK INTER + INTRA:          -4.120
REMARK INTER:                  -4.058
REMARK INTRA:                  -0.062
REMARK UNBOUND:                -0.078
REMARK  Name = /home/anacleto/Desktop/manuscript_Mpro/naturecomm/supplementary_file_S2/6-chemical-library/molecular_docking/3D_ligand_structure/1263.pdb
REMARK  1 active torsions:
REMARK  status: ('A' for Active; 'I' for Inactive)
REMARK    1  A    between atoms: C4_5  and  N1_6
REMARK                            x       y       z     vdW  Elec       q    Type
REMARK                         _______ _______ _______ _____ _____    ______ ____
ROOT
ATOM      1  N1  UNL     1     -25.630   4.383 -38.520  0.00  0.00    +0.000 N 
ATOM      2  C5  UNL     1     -26.908   4.878 -39.082  0.00  0.00    +0.000 C 
ATOM      3  C6  UNL     1     -28.105   4.170 -38.430  0.00  0.00    +0.000 C 
ATOM      4  O1  UNL     1     -28.009   2.746 -38.554  0.00  0.00    +0.000 OA
ATOM      5  C7  UNL     1     -26.816   2.286 -37.904  0.00  0.00    +0.000 C 
ATOM      6  C8  UNL     1     -25.555   2.902 -38.530  0.00  0.00    +0.000 C 
ENDROOT
BRANCH   1  11
ATOM      7  S1  UNL     1     -24.043   5.744 -40.315  0.00  0.00    +0.000 S 
ATOM      8  C1  UNL     1     -22.614   6.462 -39.732  0.00  0.00    +0.000 A 
ATOM      9  C2  UNL     1     -22.436   6.232 -38.391  0.00  0.00    +0.000 A 
ATOM     10  C3  UNL     1     -23.503   5.460 -37.842  0.00  0.00    +0.000 A 
ATOM     11  C4  UNL     1     -24.488   5.121 -38.761  0.00  0.00    +0.000 A 
ENDBRANCH   1  11
TORSDOF 1
ENDMDL
MODEL 2
REMARK VINA RESULT:    -3.744      4.978      7.157
REMARK INTER + INTRA:          -4.040
REMARK INTER:                  -3.969
REMARK INTRA:                  -0.071
REMARK UNBOUND:                -0.078
REMARK  Name = /home/anacleto/Desktop/manuscript_Mpro/naturecomm/supplementary_file_S2/6-chemical-library/molecular_docking/3D_ligand_structure/1263.pdb
REMARK  1 active torsions:
REMARK  status: ('A' for Active; 'I' for Inactive)
REMARK    1  A    between atoms: C4_5  and  N1_6
REMARK                            x       y       z     vdW  Elec       q    Type
REMARK                         _______ _______ _______ _____ _____    ______ ____
ROOT
ATOM      1  N1  UNL     1     -20.774   8.361 -38.582  0.00  0.00    +0.000 N 
ATOM      2  C5  UNL     1     -20.726   9.608 -37.784  0.00  0.00    +0.000 C 
ATOM      3  C6  UNL     1     -19.631  10.551 -38.304  0.00  0.00    +0.000 C 
ATOM      4  O1  UNL     1     -18.350   9.910 -38.330  0.00  0.00    +0.000 OA
ATOM      5  C7  UNL     1     -18.400   8.769 -39.199  0.00  0.00    +0.000 C 
ATOM      6  C8  UNL     1     -19.436   7.739 -38.722  0.00  0.00    +0.000 C 
ENDROOT
BRANCH   1  11
ATOM      7  S1  UNL     1     -23.503   8.063 -38.815  0.00  0.00    +0.000 S 
ATOM      8  C1  UNL     1     -24.179   6.555 -38.403  0.00  0.00    +0.000 A 
ATOM      9  C2  UNL     1     -23.225   5.668 -37.973  0.00  0.00    +0.000 A 
ATOM     10  C3  UNL     1     -21.921   6.244 -37.995  0.00  0.00    +0.000 A 
ATOM     11  C4  UNL     1     -21.887   7.554 -38.454  0.00  0.00    +0.000 A 
ENDBRANCH   1  11
TORSDOF 1
ENDMDL
MODEL 3
REMARK VINA RESULT:    -3.666     14.471     15.656
REMARK INTER + INTRA:          -3.959
REMARK INTER:                  -3.896
REMARK INTRA:                  -0.062
REMARK UNBOUND:                -0.078
REMARK  Name = /home/anacleto/Desktop/manuscript_Mpro/naturecomm/supplementary_file_S2/6-chemical-library/molecular_docking/3D_ligand_structure/1263.pdb
REMARK  1 active torsions:
REMARK  status: ('A' for Active; 'I' for Inactive)
REMARK    1  A    between atoms: C4_5  and  N1_6
REMARK                            x       y       z     vdW  Elec       q    Type
REMARK                         _______ _______ _______ _____ _____    ______ ____
ROOT
ATOM      1  N1  UNL     1     -24.481  -3.734 -26.336  0.00  0.00    +0.000 N 
ATOM      2  C5  UNL     1     -23.631  -3.983 -27.524  0.00  0.00    +0.000 C 
ATOM      3  C6  UNL     1     -24.371  -3.611 -28.817  0.00  0.00    +0.000 C 
ATOM      4  O1  UNL     1     -25.622  -4.302 -28.927  0.00  0.00    +0.000 OA
ATOM      5  C7  UNL     1     -26.463  -3.954 -27.820  0.00  0.00    +0.000 C 
ATOM      6  C8  UNL     1     -25.825  -4.343 -26.477  0.00  0.00    +0.000 C 
ENDROOT
BRANCH   1  11
ATOM      7  S1  UNL     1     -22.723  -4.897 -24.561  0.00  0.00    +0.000 S 
ATOM      8  C1  UNL     1     -22.515  -4.155 -23.043  0.00  0.00    +0.000 A 
ATOM      9  C2  UNL     1     -23.307  -3.043 -22.904  0.00  0.00    +0.000 A 
ATOM     10  C3  UNL     1     -24.085  -2.801 -24.075  0.00  0.00    +0.000 A 
ATOM     11  C4  UNL     1     -23.871  -3.716 -25.097  0.00  0.00    +0.000 A 
ENDBRANCH   1  11
TORSDOF 1
ENDMDL
MODEL 4
REMARK VINA RESULT:    -3.628      4.106      5.334
REMARK INTER + INTRA:          -3.918
REMARK INTER:                  -3.842
REMARK INTRA:                  -0.076
REMARK UNBOUND:                -0.078
REMARK  Name = /home/anacleto/Desktop/manuscript_Mpro/naturecomm/supplementary_file_S2/6-chemical-library/molecular_docking/3D_ligand_structure/1263.pdb
REMARK  1 active torsions:
REMARK  status: ('A' for Active; 'I' for Inactive)
REMARK    1  A    between atoms: C4_5  and  N1_6
REMARK                            x       y       z     vdW  Elec       q    Type
REMARK                         _______ _______ _______ _____ _____    ______ ____
ROOT
ATOM      1  N1  UNL     1     -21.703   7.820 -38.190  0.00  0.00    +0.000 N 
ATOM      2  C5  UNL     1     -22.929   8.554 -38.580  0.00  0.00    +0.000 C 
ATOM      3  C6  UNL     1     -24.182   7.867 -38.017  0.00  0.00    +0.000 C 
ATOM      4  O1  UNL     1     -24.258   6.494 -38.419  0.00  0.00    +0.000 OA
ATOM      5  C7  UNL     1     -23.109   5.786 -37.931  0.00  0.00    +0.000 C 
ATOM      6  C8  UNL     1     -21.803   6.371 -38.490  0.00  0.00    +0.000 C 
ENDROOT
BRANCH   1  11
ATOM      7  S1  UNL     1     -20.240  10.151 -38.051  0.00  0.00    +0.000 S 
ATOM      8  C1  UNL     1     -18.588  10.081 -38.456  0.00  0.00    +0.000 A 
ATOM      9  C2  UNL     1     -18.207   8.818 -38.833  0.00  0.00    +0.000 A 
ATOM     10  C3  UNL     1     -19.295   7.899 -38.774  0.00  0.00    +0.000 A 
ATOM     11  C4  UNL     1     -20.490   8.461 -38.342  0.00  0.00    +0.000 A 
ENDBRANCH   1  11
TORSDOF 1
ENDMDL
MODEL 5
REMARK VINA RESULT:    -3.523      2.650      4.613
REMARK INTER + INTRA:          -3.807
REMARK INTER:                  -3.732
REMARK INTRA:                  -0.076
REMARK UNBOUND:                -0.078
REMARK  Name = /home/anacleto/Desktop/manuscript_Mpro/naturecomm/supplementary_file_S2/6-chemical-library/molecular_docking/3D_ligand_structure/1263.pdb
REMARK  1 active torsions:
REMARK  status: ('A' for Active; 'I' for Inactive)
REMARK    1  A    between atoms: C4_5  and  N1_6
REMARK                            x       y       z     vdW  Elec       q    Type
REMARK                         _______ _______ _______ _____ _____    ______ ____
ROOT
ATOM      1  N1  UNL     1     -25.031   5.428 -38.960  0.00  0.00    +0.000 N 
ATOM      2  C5  UNL     1     -25.509   6.806 -39.222  0.00  0.00    +0.000 C 
ATOM      3  C6  UNL     1     -24.384   7.677 -39.802  0.00  0.00    +0.000 C 
ATOM      4  O1  UNL     1     -23.231   7.687 -38.952  0.00  0.00    +0.000 OA
ATOM      5  C7  UNL     1     -22.727   6.352 -38.808  0.00  0.00    +0.000 C 
ATOM      6  C8  UNL     1     -23.771   5.416 -38.179  0.00  0.00    +0.000 C 
ENDROOT
BRANCH   1  11
ATOM      7  S1  UNL     1     -27.686   4.697 -38.870  0.00  0.00    +0.000 S 
ATOM      8  C1  UNL     1     -28.056   3.087 -38.456  0.00  0.00    +0.000 A 
ATOM      9  C2  UNL     1     -26.926   2.354 -38.194  0.00  0.00    +0.000 A 
ATOM     10  C3  UNL     1     -25.743   3.135 -38.347  0.00  0.00    +0.000 A 
ATOM     11  C4  UNL     1     -25.976   4.447 -38.738  0.00  0.00    +0.000 A 
ENDBRANCH   1  11
TORSDOF 1
ENDMDL
MODEL 6
REMARK VINA RESULT:    -3.491      6.830      9.229
REMARK INTER + INTRA:          -3.773
REMARK INTER:                  -3.695
REMARK INTRA:                  -0.078
REMARK UNBOUND:                -0.078
REMARK  Name = /home/anacleto/Desktop/manuscript_Mpro/naturecomm/supplementary_file_S2/6-chemical-library/molecular_docking/3D_ligand_structure/1263.pdb
REMARK  1 active torsions:
REMARK  status: ('A' for Active; 'I' for Inactive)
REMARK    1  A    between atoms: C4_5  and  N1_6
REMARK                            x       y       z     vdW  Elec       q    Type
REMARK                         _______ _______ _______ _____ _____    ______ ____
ROOT
ATOM      1  N1  UNL     1     -18.606   9.508 -38.602  0.00  0.00    +0.000 N 
ATOM      2  C5  UNL     1     -17.677   9.022 -39.649  0.00  0.00    +0.000 C 
ATOM      3  C6  UNL     1     -16.315   9.725 -39.545  0.00  0.00    +0.000 C 
ATOM      4  O1  UNL     1     -16.451  11.150 -39.602  0.00  0.00    +0.000 OA
ATOM      5  C7  UNL     1     -17.265  11.600 -38.510  0.00  0.00    +0.000 C 
ATOM      6  C8  UNL     1     -18.674  10.989 -38.563  0.00  0.00    +0.000 C 
ENDROOT
BRANCH   1  11
ATOM      7  S1  UNL     1     -21.144   9.384 -37.535  0.00  0.00    +0.000 S 
ATOM      8  C1  UNL     1     -21.992   7.913 -37.665  0.00  0.00    +0.000 A 
ATOM      9  C2  UNL     1     -21.247   6.947 -38.294  0.00  0.00    +0.000 A 
ATOM     10  C3  UNL     1     -19.965   7.437 -38.679  0.00  0.00    +0.000 A 
ATOM     11  C4  UNL     1     -19.747   8.770 -38.356  0.00  0.00    +0.000 A 
ENDBRANCH   1  11
TORSDOF 1
ENDMDL
MODEL 7
REMARK VINA RESULT:    -3.432     13.849     15.454
REMARK INTER + INTRA:          -3.711
REMARK INTER:                  -3.637
REMARK INTRA:                  -0.074
REMARK UNBOUND:                -0.078
REMARK  Name = /home/anacleto/Desktop/manuscript_Mpro/naturecomm/supplementary_file_S2/6-chemical-library/molecular_docking/3D_ligand_structure/1263.pdb
REMARK  1 active torsions:
REMARK  status: ('A' for Active; 'I' for Inactive)
REMARK    1  A    between atoms: C4_5  and  N1_6
REMARK                            x       y       z     vdW  Elec       q    Type
REMARK                         _______ _______ _______ _____ _____    ______ ____
ROOT
ATOM      1  N1  UNL     1     -35.333  12.462 -31.856  0.00  0.00    +0.000 N 
ATOM      2  C5  UNL     1     -34.074  13.053 -31.345  0.00  0.00    +0.000 C 
ATOM      3  C6  UNL     1     -33.142  13.443 -32.501  0.00  0.00    +0.000 C 
ATOM      4  O1  UNL     1     -32.873  12.329 -33.362  0.00  0.00    +0.000 OA
ATOM      5  C7  UNL     1     -34.102  11.851 -33.927  0.00  0.00    +0.000 C 
ATOM      6  C8  UNL     1     -35.082  11.382 -32.840  0.00  0.00    +0.000 C 
ENDROOT
BRANCH   1  11
ATOM      7  S1  UNL     1     -36.950  13.628 -29.953  0.00  0.00    +0.000 S 
ATOM      8  C1  UNL     1     -38.191  12.681 -29.273  0.00  0.00    +0.000 A 
ATOM      9  C2  UNL     1     -38.197  11.406 -29.778  0.00  0.00    +0.000 A 
ATOM     10  C3  UNL     1     -37.166  11.217 -30.745  0.00  0.00    +0.000 A 
ATOM     11  C4  UNL     1     -36.395  12.348 -30.981  0.00  0.00    +0.000 A 
ENDBRANCH   1  11
TORSDOF 1
ENDMDL
MODEL 8
REMARK VINA RESULT:    -3.382     14.718     16.340
REMARK INTER + INTRA:          -3.658
REMARK INTER:                  -3.582
REMARK INTRA:                  -0.076
REMARK UNBOUND:                -0.078
REMARK  Name = /home/anacleto/Desktop/manuscript_Mpro/naturecomm/supplementary_file_S2/6-chemical-library/molecular_docking/3D_ligand_structure/1263.pdb
REMARK  1 active torsions:
REMARK  status: ('A' for Active; 'I' for Inactive)
REMARK    1  A    between atoms: C4_5  and  N1_6
REMARK                            x       y       z     vdW  Elec       q    Type
REMARK                         _______ _______ _______ _____ _____    ______ ____
ROOT
ATOM      1  N1  UNL     1     -26.759  -4.845 -26.601  0.00  0.00    +0.000 N 
ATOM      2  C5  UNL     1     -27.916  -4.037 -27.054  0.00  0.00    +0.000 C 
ATOM      3  C6  UNL     1     -27.775  -3.660 -28.536  0.00  0.00    +0.000 C 
ATOM      4  O1  UNL     1     -26.541  -2.978 -28.794  0.00  0.00    +0.000 OA
ATOM      5  C7  UNL     1     -25.440  -3.830 -28.448  0.00  0.00    +0.000 C 
ATOM      6  C8  UNL     1     -25.466  -4.216 -26.961  0.00  0.00    +0.000 C 
ENDROOT
BRANCH   1  11
ATOM      7  S1  UNL     1     -28.319  -6.316 -24.870  0.00  0.00    +0.000 S 
ATOM      8  C1  UNL     1     -27.614  -6.841 -23.412  0.00  0.00    +0.000 A 
ATOM      9  C2  UNL     1     -26.314  -6.419 -23.291  0.00  0.00    +0.000 A 
ATOM     10  C3  UNL     1     -25.899  -5.661 -24.425  0.00  0.00    +0.000 A 
ATOM     11  C4  UNL     1     -26.874  -5.523 -25.404  0.00  0.00    +0.000 A 
ENDBRANCH   1  11
TORSDOF 1
ENDMDL
MODEL 9
REMARK VINA RESULT:    -3.382     13.755     14.530
REMARK INTER + INTRA:          -3.657
REMARK INTER:                  -3.579
REMARK INTRA:                  -0.078
REMARK UNBOUND:                -0.078
REMARK  Name = /home/anacleto/Desktop/manuscript_Mpro/naturecomm/supplementary_file_S2/6-chemical-library/molecular_docking/3D_ligand_structure/1263.pdb
REMARK  1 active torsions:
REMARK  status: ('A' for Active; 'I' for Inactive)
REMARK    1  A    between atoms: C4_5  and  N1_6
REMARK                            x       y       z     vdW  Elec       q    Type
REMARK                         _______ _______ _______ _____ _____    ______ ____
ROOT
ATOM      1  N1  UNL     1     -25.250  -4.203 -27.369  0.00  0.00    +0.000 N 
ATOM      2  C5  UNL     1     -25.840  -3.626 -28.599  0.00  0.00    +0.000 C 
ATOM      3  C6  UNL     1     -27.310  -3.241 -28.374  0.00  0.00    +0.000 C 
ATOM      4  O1  UNL     1     -28.083  -4.355 -27.909  0.00  0.00    +0.000 OA
ATOM      5  C7  UNL     1     -27.552  -4.820 -26.660  0.00  0.00    +0.000 C 
ATOM      6  C8  UNL     1     -26.093  -5.282 -26.801  0.00  0.00    +0.000 C 
ENDROOT
BRANCH   1  11
ATOM      7  S1  UNL     1     -23.028  -5.182 -26.066  0.00  0.00    +0.000 S 
ATOM      8  C1  UNL     1     -21.497  -4.809 -26.710  0.00  0.00    +0.000 A 
ATOM      9  C2  UNL     1     -21.591  -4.019 -27.827  0.00  0.00    +0.000 A 
ATOM     10  C3  UNL     1     -22.948  -3.729 -28.156  0.00  0.00    +0.000 A 
ATOM     11  C4  UNL     1     -23.875  -4.310 -27.300  0.00  0.00    +0.000 A 
ENDBRANCH   1  11
TORSDOF 1
ENDMDL
