MODEL 1
REMARK VINA RESULT:    -5.655      0.000      0.000
REMARK INTER + INTRA:          -7.319
REMARK INTER:                  -6.886
REMARK INTRA:                  -0.433
REMARK UNBOUND:                -0.341
REMARK  Name = /home/anacleto/Desktop/manuscript_Mpro/naturecomm/supplementary_file_S2/6-chemical-library/molecular_docking/3D_ligand_structure/528.pdb
REMARK  4 active torsions:
REMARK  status: ('A' for Active; 'I' for Inactive)
REMARK    1  A    between atoms: C6_8  and  C7_10
REMARK    2  A    between atoms: C7_10  and  C8_11
REMARK    3  A    between atoms: C8_11  and  S1_12
REMARK    4  A    between atoms: S1_12  and  C9_13
REMARK                            x       y       z     vdW  Elec       q    Type
REMARK                         _______ _______ _______ _____ _____    ______ ____
ROOT
ATOM      1  C1  UNL     1      15.929  11.243  -4.909  0.00  0.00    +0.000 C 
ATOM      2  C2  UNL     1      14.771  10.898  -3.957  0.00  0.00    +0.000 C 
ATOM      3  N1  UNL     1      13.620  10.245  -4.590  0.00  0.00    +0.000 NA
ATOM      4  C3  UNL     1      12.975  11.051  -5.627  0.00  0.00    +0.000 C 
ATOM      5  C4  UNL     1      13.822  11.188  -6.891  0.00  0.00    +0.000 C 
ATOM      6  C5  UNL     1      14.795  12.364  -6.850  0.00  0.00    +0.000 C 
ATOM      7  N2  UNL     1      15.662  12.463  -5.679  0.00  0.00    +0.000 N 
ATOM      8  C6  UNL     1      16.207  13.713  -5.392  0.00  0.00    +0.000 C 
ATOM      9  O1  UNL     1      16.003  14.692  -6.112  0.00  0.00    +0.000 OA
ATOM     10  H5  UNL     1      12.931  10.037  -3.866  0.00  0.00    +0.000 HD
ENDROOT
BRANCH   8  11
ATOM     11  C7  UNL     1      17.071  13.826  -4.149  0.00  0.00    +0.000 C 
BRANCH  11  12
ATOM     12  C8  UNL     1      16.246  14.273  -2.946  0.00  0.00    +0.000 C 
BRANCH  12  13
ATOM     13  S1  UNL     1      16.360  16.082  -2.685  0.00  0.00    +0.000 S 
BRANCH  13  14
ATOM     14  C9  UNL     1      14.682  16.466  -2.223  0.00  0.00    +0.000 A 
ATOM     15  C10 UNL     1      14.137  17.740  -2.417  0.00  0.00    +0.000 A 
ATOM     16  C11 UNL     1      12.816  18.006  -2.045  0.00  0.00    +0.000 A 
ATOM     17  C12 UNL     1      12.030  16.999  -1.488  0.00  0.00    +0.000 A 
ATOM     18  C13 UNL     1      12.561  15.723  -1.309  0.00  0.00    +0.000 A 
ATOM     19  C14 UNL     1      13.881  15.456  -1.680  0.00  0.00    +0.000 A 
ENDBRANCH  13  14
ENDBRANCH  12  13
ENDBRANCH  11  12
ENDBRANCH   8  11
TORSDOF 4
ENDMDL
MODEL 2
REMARK VINA RESULT:    -5.529      2.649      3.921
REMARK INTER + INTRA:          -7.163
REMARK INTER:                  -6.752
REMARK INTRA:                  -0.410
REMARK UNBOUND:                -0.341
REMARK  Name = /home/anacleto/Desktop/manuscript_Mpro/naturecomm/supplementary_file_S2/6-chemical-library/molecular_docking/3D_ligand_structure/528.pdb
REMARK  4 active torsions:
REMARK  status: ('A' for Active; 'I' for Inactive)
REMARK    1  A    between atoms: C6_8  and  C7_10
REMARK    2  A    between atoms: C7_10  and  C8_11
REMARK    3  A    between atoms: C8_11  and  S1_12
REMARK    4  A    between atoms: S1_12  and  C9_13
REMARK                            x       y       z     vdW  Elec       q    Type
REMARK                         _______ _______ _______ _____ _____    ______ ____
ROOT
ATOM      1  C1  UNL     1      15.994  11.245  -4.836  0.00  0.00    +0.000 C 
ATOM      2  C2  UNL     1      14.819  10.876  -3.914  0.00  0.00    +0.000 C 
ATOM      3  N1  UNL     1      13.666  10.270  -4.588  0.00  0.00    +0.000 NA
ATOM      4  C3  UNL     1      13.046  11.131  -5.596  0.00  0.00    +0.000 C 
ATOM      5  C4  UNL     1      13.910  11.311  -6.842  0.00  0.00    +0.000 C 
ATOM      6  C5  UNL     1      14.899  12.469  -6.738  0.00  0.00    +0.000 C 
ATOM      7  N2  UNL     1      15.754  12.502  -5.554  0.00  0.00    +0.000 N 
ATOM      8  C6  UNL     1      16.314  13.729  -5.206  0.00  0.00    +0.000 C 
ATOM      9  O1  UNL     1      16.133  14.742  -5.883  0.00  0.00    +0.000 OA
ATOM     10  H5  UNL     1      12.966  10.040  -3.882  0.00  0.00    +0.000 HD
ENDROOT
BRANCH   8  11
ATOM     11  C7  UNL     1      17.165  13.774  -3.949  0.00  0.00    +0.000 C 
BRANCH  11  12
ATOM     12  C8  UNL     1      16.320  14.120  -2.727  0.00  0.00    +0.000 C 
BRANCH  12  13
ATOM     13  S1  UNL     1      16.718  13.037  -1.305  0.00  0.00    +0.000 S 
BRANCH  13  14
ATOM     14  C9  UNL     1      17.937  14.025  -0.456  0.00  0.00    +0.000 A 
ATOM     15  C10 UNL     1      19.244  13.570  -0.255  0.00  0.00    +0.000 A 
ATOM     16  C11 UNL     1      20.175  14.372   0.411  0.00  0.00    +0.000 A 
ATOM     17  C12 UNL     1      19.807  15.635   0.872  0.00  0.00    +0.000 A 
ATOM     18  C13 UNL     1      18.512  16.100   0.660  0.00  0.00    +0.000 A 
ATOM     19  C14 UNL     1      17.581  15.301  -0.006  0.00  0.00    +0.000 A 
ENDBRANCH  13  14
ENDBRANCH  12  13
ENDBRANCH  11  12
ENDBRANCH   8  11
TORSDOF 4
ENDMDL
MODEL 3
REMARK VINA RESULT:    -5.289     16.414     17.879
REMARK INTER + INTRA:          -6.867
REMARK INTER:                  -6.575
REMARK INTRA:                  -0.292
REMARK UNBOUND:                -0.341
REMARK  Name = /home/anacleto/Desktop/manuscript_Mpro/naturecomm/supplementary_file_S2/6-chemical-library/molecular_docking/3D_ligand_structure/528.pdb
REMARK  4 active torsions:
REMARK  status: ('A' for Active; 'I' for Inactive)
REMARK    1  A    between atoms: C6_8  and  C7_10
REMARK    2  A    between atoms: C7_10  and  C8_11
REMARK    3  A    between atoms: C8_11  and  S1_12
REMARK    4  A    between atoms: S1_12  and  C9_13
REMARK                            x       y       z     vdW  Elec       q    Type
REMARK                         _______ _______ _______ _____ _____    ______ ____
ROOT
ATOM      1  C1  UNL     1      14.299   1.220   8.093  0.00  0.00    +0.000 C 
ATOM      2  C2  UNL     1      14.264  -0.310   7.928  0.00  0.00    +0.000 C 
ATOM      3  N1  UNL     1      13.001  -0.948   8.311  0.00  0.00    +0.000 NA
ATOM      4  C3  UNL     1      12.638  -0.753   9.716  0.00  0.00    +0.000 C 
ATOM      5  C4  UNL     1      12.220   0.681  10.032  0.00  0.00    +0.000 C 
ATOM      6  C5  UNL     1      13.387   1.591  10.405  0.00  0.00    +0.000 C 
ATOM      7  N2  UNL     1      14.524   1.615   9.488  0.00  0.00    +0.000 N 
ATOM      8  C6  UNL     1      15.746   2.048   9.999  0.00  0.00    +0.000 C 
ATOM      9  O1  UNL     1      15.864   2.433  11.163  0.00  0.00    +0.000 OA
ATOM     10  H5  UNL     1      13.080  -1.950   8.133  0.00  0.00    +0.000 HD
ENDROOT
BRANCH   8  11
ATOM     11  C7  UNL     1      16.938   2.030   9.059  0.00  0.00    +0.000 C 
BRANCH  11  12
ATOM     12  C8  UNL     1      17.584   3.409   8.966  0.00  0.00    +0.000 C 
BRANCH  12  13
ATOM     13  S1  UNL     1      19.269   3.413   9.682  0.00  0.00    +0.000 S 
BRANCH  13  14
ATOM     14  C9  UNL     1      19.753   5.107   9.405  0.00  0.00    +0.000 A 
ATOM     15  C10 UNL     1      20.956   5.621   9.899  0.00  0.00    +0.000 A 
ATOM     16  C11 UNL     1      21.305   6.952   9.661  0.00  0.00    +0.000 A 
ATOM     17  C12 UNL     1      20.459   7.775   8.919  0.00  0.00    +0.000 A 
ATOM     18  C13 UNL     1      19.267   7.265   8.409  0.00  0.00    +0.000 A 
ATOM     19  C14 UNL     1      18.917   5.934   8.647  0.00  0.00    +0.000 A 
ENDBRANCH  13  14
ENDBRANCH  12  13
ENDBRANCH  11  12
ENDBRANCH   8  11
TORSDOF 4
ENDMDL
MODEL 4
REMARK VINA RESULT:    -5.246      4.046      6.989
REMARK INTER + INTRA:          -6.813
REMARK INTER:                  -6.397
REMARK INTRA:                  -0.416
REMARK UNBOUND:                -0.341
REMARK  Name = /home/anacleto/Desktop/manuscript_Mpro/naturecomm/supplementary_file_S2/6-chemical-library/molecular_docking/3D_ligand_structure/528.pdb
REMARK  4 active torsions:
REMARK  status: ('A' for Active; 'I' for Inactive)
REMARK    1  A    between atoms: C6_8  and  C7_10
REMARK    2  A    between atoms: C7_10  and  C8_11
REMARK    3  A    between atoms: C8_11  and  S1_12
REMARK    4  A    between atoms: S1_12  and  C9_13
REMARK                            x       y       z     vdW  Elec       q    Type
REMARK                         _______ _______ _______ _____ _____    ______ ____
ROOT
ATOM      1  C1  UNL     1      17.652  14.684  -1.413  0.00  0.00    +0.000 C 
ATOM      2  C2  UNL     1      17.067  15.507  -0.252  0.00  0.00    +0.000 C 
ATOM      3  N1  UNL     1      18.003  16.442   0.380  0.00  0.00    +0.000 NA
ATOM      4  C3  UNL     1      19.174  15.799   0.979  0.00  0.00    +0.000 C 
ATOM      5  C4  UNL     1      20.147  15.243  -0.059  0.00  0.00    +0.000 C 
ATOM      6  C5  UNL     1      19.824  13.817  -0.497  0.00  0.00    +0.000 C 
ATOM      7  N2  UNL     1      18.456  13.554  -0.934  0.00  0.00    +0.000 N 
ATOM      8  C6  UNL     1      18.017  12.232  -0.898  0.00  0.00    +0.000 C 
ATOM      9  O1  UNL     1      18.757  11.311  -0.550  0.00  0.00    +0.000 OA
ATOM     10  H5  UNL     1      17.505  16.952   1.110  0.00  0.00    +0.000 HD
ENDROOT
BRANCH   8  11
ATOM     11  C7  UNL     1      16.580  11.965  -1.309  0.00  0.00    +0.000 C 
BRANCH  11  12
ATOM     12  C8  UNL     1      16.499  10.802  -2.293  0.00  0.00    +0.000 C 
BRANCH  12  13
ATOM     13  S1  UNL     1      17.218  11.243  -3.918  0.00  0.00    +0.000 S 
BRANCH  13  14
ATOM     14  C9  UNL     1      15.769  11.198  -4.956  0.00  0.00    +0.000 A 
ATOM     15  C10 UNL     1      15.828  11.504  -6.319  0.00  0.00    +0.000 A 
ATOM     16  C11 UNL     1      14.672  11.456  -7.104  0.00  0.00    +0.000 A 
ATOM     17  C12 UNL     1      13.454  11.092  -6.532  0.00  0.00    +0.000 A 
ATOM     18  C13 UNL     1      13.391  10.770  -5.179  0.00  0.00    +0.000 A 
ATOM     19  C14 UNL     1      14.545  10.818  -4.394  0.00  0.00    +0.000 A 
ENDBRANCH  13  14
ENDBRANCH  12  13
ENDBRANCH  11  12
ENDBRANCH   8  11
TORSDOF 4
ENDMDL
MODEL 5
REMARK VINA RESULT:    -5.125      3.393      4.789
REMARK INTER + INTRA:          -6.665
REMARK INTER:                  -6.349
REMARK INTRA:                  -0.316
REMARK UNBOUND:                -0.341
REMARK  Name = /home/anacleto/Desktop/manuscript_Mpro/naturecomm/supplementary_file_S2/6-chemical-library/molecular_docking/3D_ligand_structure/528.pdb
REMARK  4 active torsions:
REMARK  status: ('A' for Active; 'I' for Inactive)
REMARK    1  A    between atoms: C6_8  and  C7_10
REMARK    2  A    between atoms: C7_10  and  C8_11
REMARK    3  A    between atoms: C8_11  and  S1_12
REMARK    4  A    between atoms: S1_12  and  C9_13
REMARK                            x       y       z     vdW  Elec       q    Type
REMARK                         _______ _______ _______ _____ _____    ______ ____
ROOT
ATOM      1  C1  UNL     1      14.986  13.322  -4.718  0.00  0.00    +0.000 C 
ATOM      2  C2  UNL     1      15.690  13.393  -6.085  0.00  0.00    +0.000 C 
ATOM      3  N1  UNL     1      14.932  12.825  -7.204  0.00  0.00    +0.000 NA
ATOM      4  C3  UNL     1      14.628  11.401  -7.055  0.00  0.00    +0.000 C 
ATOM      5  C4  UNL     1      13.588  11.121  -5.972  0.00  0.00    +0.000 C 
ATOM      6  C5  UNL     1      14.188  10.944  -4.580  0.00  0.00    +0.000 C 
ATOM      7  N2  UNL     1      15.095  11.989  -4.114  0.00  0.00    +0.000 N 
ATOM      8  C6  UNL     1      15.985  11.654  -3.096  0.00  0.00    +0.000 C 
ATOM      9  O1  UNL     1      15.988  10.537  -2.577  0.00  0.00    +0.000 OA
ATOM     10  H5  UNL     1      15.476  12.953  -8.058  0.00  0.00    +0.000 HD
ENDROOT
BRANCH   8  11
ATOM     11  C7  UNL     1      16.959  12.726  -2.643  0.00  0.00    +0.000 C 
BRANCH  11  12
ATOM     12  C8  UNL     1      17.009  12.815  -1.120  0.00  0.00    +0.000 C 
BRANCH  12  13
ATOM     13  S1  UNL     1      16.656  14.513  -0.532  0.00  0.00    +0.000 S 
BRANCH  13  14
ATOM     14  C9  UNL     1      18.296  15.076  -0.117  0.00  0.00    +0.000 A 
ATOM     15  C10 UNL     1      19.361  14.186   0.051  0.00  0.00    +0.000 A 
ATOM     16  C11 UNL     1      20.635  14.662   0.374  0.00  0.00    +0.000 A 
ATOM     17  C12 UNL     1      20.853  16.030   0.522  0.00  0.00    +0.000 A 
ATOM     18  C13 UNL     1      19.800  16.924   0.339  0.00  0.00    +0.000 A 
ATOM     19  C14 UNL     1      18.527  16.450   0.016  0.00  0.00    +0.000 A 
ENDBRANCH  13  14
ENDBRANCH  12  13
ENDBRANCH  11  12
ENDBRANCH   8  11
TORSDOF 4
ENDMDL
MODEL 6
REMARK VINA RESULT:    -5.110     16.480     18.293
REMARK INTER + INTRA:          -6.646
REMARK INTER:                  -6.146
REMARK INTRA:                  -0.500
REMARK UNBOUND:                -0.341
REMARK  Name = /home/anacleto/Desktop/manuscript_Mpro/naturecomm/supplementary_file_S2/6-chemical-library/molecular_docking/3D_ligand_structure/528.pdb
REMARK  4 active torsions:
REMARK  status: ('A' for Active; 'I' for Inactive)
REMARK    1  A    between atoms: C6_8  and  C7_10
REMARK    2  A    between atoms: C7_10  and  C8_11
REMARK    3  A    between atoms: C8_11  and  S1_12
REMARK    4  A    between atoms: S1_12  and  C9_13
REMARK                            x       y       z     vdW  Elec       q    Type
REMARK                         _______ _______ _______ _____ _____    ______ ____
ROOT
ATOM      1  C1  UNL     1      19.345   6.499  11.223  0.00  0.00    +0.000 C 
ATOM      2  C2  UNL     1      20.874   6.477  11.398  0.00  0.00    +0.000 C 
ATOM      3  N1  UNL     1      21.598   7.520  10.663  0.00  0.00    +0.000 NA
ATOM      4  C3  UNL     1      21.425   7.455   9.211  0.00  0.00    +0.000 C 
ATOM      5  C4  UNL     1      20.022   7.856   8.758  0.00  0.00    +0.000 C 
ATOM      6  C5  UNL     1      19.031   6.695   8.738  0.00  0.00    +0.000 C 
ATOM      7  N2  UNL     1      18.930   5.892   9.953  0.00  0.00    +0.000 N 
ATOM      8  C6  UNL     1      18.409   4.606   9.826  0.00  0.00    +0.000 C 
ATOM      9  O1  UNL     1      18.013   4.169   8.745  0.00  0.00    +0.000 OA
ATOM     10  H5  UNL     1      22.592   7.430  10.875  0.00  0.00    +0.000 HD
ENDROOT
BRANCH   8  11
ATOM     11  C7  UNL     1      18.347   3.754  11.081  0.00  0.00    +0.000 C 
BRANCH  11  12
ATOM     12  C8  UNL     1      16.917   3.654  11.605  0.00  0.00    +0.000 C 
BRANCH  12  13
ATOM     13  S1  UNL     1      16.405   1.910  11.832  0.00  0.00    +0.000 S 
BRANCH  13  14
ATOM     14  C9  UNL     1      16.027   1.445  10.153  0.00  0.00    +0.000 A 
ATOM     15  C10 UNL     1      16.986   0.866   9.315  0.00  0.00    +0.000 A 
ATOM     16  C11 UNL     1      16.656   0.512   8.004  0.00  0.00    +0.000 A 
ATOM     17  C12 UNL     1      15.363   0.723   7.528  0.00  0.00    +0.000 A 
ATOM     18  C13 UNL     1      14.399   1.283   8.362  0.00  0.00    +0.000 A 
ATOM     19  C14 UNL     1      14.728   1.638   9.672  0.00  0.00    +0.000 A 
ENDBRANCH  13  14
ENDBRANCH  12  13
ENDBRANCH  11  12
ENDBRANCH   8  11
TORSDOF 4
ENDMDL
MODEL 7
REMARK VINA RESULT:    -4.911     16.399     17.799
REMARK INTER + INTRA:          -6.400
REMARK INTER:                  -6.169
REMARK INTRA:                  -0.231
REMARK UNBOUND:                -0.341
REMARK  Name = /home/anacleto/Desktop/manuscript_Mpro/naturecomm/supplementary_file_S2/6-chemical-library/molecular_docking/3D_ligand_structure/528.pdb
REMARK  4 active torsions:
REMARK  status: ('A' for Active; 'I' for Inactive)
REMARK    1  A    between atoms: C6_8  and  C7_10
REMARK    2  A    between atoms: C7_10  and  C8_11
REMARK    3  A    between atoms: C8_11  and  S1_12
REMARK    4  A    between atoms: S1_12  and  C9_13
REMARK                            x       y       z     vdW  Elec       q    Type
REMARK                         _______ _______ _______ _____ _____    ______ ____
ROOT
ATOM      1  C1  UNL     1      15.175   0.960  10.592  0.00  0.00    +0.000 C 
ATOM      2  C2  UNL     1      13.949   1.504  11.346  0.00  0.00    +0.000 C 
ATOM      3  N1  UNL     1      12.707   0.753  11.138  0.00  0.00    +0.000 NA
ATOM      4  C3  UNL     1      12.258   0.719   9.745  0.00  0.00    +0.000 C 
ATOM      5  C4  UNL     1      13.145  -0.146   8.852  0.00  0.00    +0.000 C 
ATOM      6  C5  UNL     1      14.330   0.608   8.253  0.00  0.00    +0.000 C 
ATOM      7  N2  UNL     1      15.172   1.358   9.180  0.00  0.00    +0.000 N 
ATOM      8  C6  UNL     1      15.946   2.387   8.648  0.00  0.00    +0.000 C 
ATOM      9  O1  UNL     1      15.956   2.637   7.442  0.00  0.00    +0.000 OA
ATOM     10  H5  UNL     1      11.974   1.181  11.704  0.00  0.00    +0.000 HD
ENDROOT
BRANCH   8  11
ATOM     11  C7  UNL     1      16.786   3.198   9.619  0.00  0.00    +0.000 C 
BRANCH  11  12
ATOM     12  C8  UNL     1      18.276   2.991   9.359  0.00  0.00    +0.000 C 
BRANCH  12  13
ATOM     13  S1  UNL     1      19.299   3.725  10.689  0.00  0.00    +0.000 S 
BRANCH  13  14
ATOM     14  C9  UNL     1      19.725   5.297   9.962  0.00  0.00    +0.000 A 
ATOM     15  C10 UNL     1      18.870   5.953   9.071  0.00  0.00    +0.000 A 
ATOM     16  C11 UNL     1      19.234   7.185   8.521  0.00  0.00    +0.000 A 
ATOM     17  C12 UNL     1      20.450   7.772   8.867  0.00  0.00    +0.000 A 
ATOM     18  C13 UNL     1      21.299   7.132   9.767  0.00  0.00    +0.000 A 
ATOM     19  C14 UNL     1      20.936   5.901  10.317  0.00  0.00    +0.000 A 
ENDBRANCH  13  14
ENDBRANCH  12  13
ENDBRANCH  11  12
ENDBRANCH   8  11
TORSDOF 4
ENDMDL
MODEL 8
REMARK VINA RESULT:    -4.898      3.672      6.988
REMARK INTER + INTRA:          -6.384
REMARK INTER:                  -6.043
REMARK INTRA:                  -0.341
REMARK UNBOUND:                -0.341
REMARK  Name = /home/anacleto/Desktop/manuscript_Mpro/naturecomm/supplementary_file_S2/6-chemical-library/molecular_docking/3D_ligand_structure/528.pdb
REMARK  4 active torsions:
REMARK  status: ('A' for Active; 'I' for Inactive)
REMARK    1  A    between atoms: C6_8  and  C7_10
REMARK    2  A    between atoms: C7_10  and  C8_11
REMARK    3  A    between atoms: C8_11  and  S1_12
REMARK    4  A    between atoms: S1_12  and  C9_13
REMARK                            x       y       z     vdW  Elec       q    Type
REMARK                         _______ _______ _______ _____ _____    ______ ____
ROOT
ATOM      1  C1  UNL     1      18.134  15.588  -1.722  0.00  0.00    +0.000 C 
ATOM      2  C2  UNL     1      18.852  16.905  -2.067  0.00  0.00    +0.000 C 
ATOM      3  N1  UNL     1      19.686  17.457  -0.995  0.00  0.00    +0.000 NA
ATOM      4  C3  UNL     1      18.946  17.787   0.225  0.00  0.00    +0.000 C 
ATOM      5  C4  UNL     1      18.468  16.552   0.986  0.00  0.00    +0.000 C 
ATOM      6  C5  UNL     1      17.106  16.039   0.525  0.00  0.00    +0.000 C 
ATOM      7  N2  UNL     1      16.935  15.814  -0.907  0.00  0.00    +0.000 N 
ATOM      8  C6  UNL     1      15.632  15.796  -1.399  0.00  0.00    +0.000 C 
ATOM      9  O1  UNL     1      14.655  15.925  -0.659  0.00  0.00    +0.000 OA
ATOM     10  H5  UNL     1      20.133  18.306  -1.341  0.00  0.00    +0.000 HD
ENDROOT
BRANCH   8  11
ATOM     11  C7  UNL     1      15.455  15.608  -2.895  0.00  0.00    +0.000 C 
BRANCH  11  12
ATOM     12  C8  UNL     1      14.386  14.562  -3.194  0.00  0.00    +0.000 C 
BRANCH  12  13
ATOM     13  S1  UNL     1      15.048  12.861  -3.050  0.00  0.00    +0.000 S 
BRANCH  13  14
ATOM     14  C9  UNL     1      14.672  12.211  -4.668  0.00  0.00    +0.000 A 
ATOM     15  C10 UNL     1      15.158  12.811  -5.834  0.00  0.00    +0.000 A 
ATOM     16  C11 UNL     1      14.845  12.274  -7.086  0.00  0.00    +0.000 A 
ATOM     17  C12 UNL     1      14.055  11.129  -7.178  0.00  0.00    +0.000 A 
ATOM     18  C13 UNL     1      13.583  10.517  -6.019  0.00  0.00    +0.000 A 
ATOM     19  C14 UNL     1      13.894  11.053  -4.768  0.00  0.00    +0.000 A 
ENDBRANCH  13  14
ENDBRANCH  12  13
ENDBRANCH  11  12
ENDBRANCH   8  11
TORSDOF 4
ENDMDL
MODEL 9
REMARK VINA RESULT:    -4.847      3.578      4.830
REMARK INTER + INTRA:          -6.321
REMARK INTER:                  -5.952
REMARK INTRA:                  -0.369
REMARK UNBOUND:                -0.341
REMARK  Name = /home/anacleto/Desktop/manuscript_Mpro/naturecomm/supplementary_file_S2/6-chemical-library/molecular_docking/3D_ligand_structure/528.pdb
REMARK  4 active torsions:
REMARK  status: ('A' for Active; 'I' for Inactive)
REMARK    1  A    between atoms: C6_8  and  C7_10
REMARK    2  A    between atoms: C7_10  and  C8_11
REMARK    3  A    between atoms: C8_11  and  S1_12
REMARK    4  A    between atoms: S1_12  and  C9_13
REMARK                            x       y       z     vdW  Elec       q    Type
REMARK                         _______ _______ _______ _____ _____    ______ ____
ROOT
ATOM      1  C1  UNL     1      16.563  12.907  -3.934  0.00  0.00    +0.000 C 
ATOM      2  C2  UNL     1      16.488  11.419  -3.551  0.00  0.00    +0.000 C 
ATOM      3  N1  UNL     1      15.828  10.557  -4.537  0.00  0.00    +0.000 NA
ATOM      4  C3  UNL     1      14.431  10.910  -4.795  0.00  0.00    +0.000 C 
ATOM      5  C4  UNL     1      14.277  12.218  -5.568  0.00  0.00    +0.000 C 
ATOM      6  C5  UNL     1      14.226  13.454  -4.673  0.00  0.00    +0.000 C 
ATOM      7  N2  UNL     1      15.294  13.601  -3.689  0.00  0.00    +0.000 N 
ATOM      8  C6  UNL     1      15.043  14.426  -2.594  0.00  0.00    +0.000 C 
ATOM      9  O1  UNL     1      13.982  15.039  -2.471  0.00  0.00    +0.000 OA
ATOM     10  H5  UNL     1      15.861   9.595  -4.197  0.00  0.00    +0.000 HD
ENDROOT
BRANCH   8  11
ATOM     11  C7  UNL     1      16.137  14.543  -1.547  0.00  0.00    +0.000 C 
BRANCH  11  12
ATOM     12  C8  UNL     1      16.151  15.936  -0.923  0.00  0.00    +0.000 C 
BRANCH  12  13
ATOM     13  S1  UNL     1      16.802  15.900   0.788  0.00  0.00    +0.000 S 
BRANCH  13  14
ATOM     14  C9  UNL     1      18.559  15.953   0.484  0.00  0.00    +0.000 A 
ATOM     15  C10 UNL     1      19.339  14.792   0.466  0.00  0.00    +0.000 A 
ATOM     16  C11 UNL     1      20.713  14.870   0.222  0.00  0.00    +0.000 A 
ATOM     17  C12 UNL     1      21.312  16.106  -0.014  0.00  0.00    +0.000 A 
ATOM     18  C13 UNL     1      20.538  17.264  -0.013  0.00  0.00    +0.000 A 
ATOM     19  C14 UNL     1      19.165  17.187   0.230  0.00  0.00    +0.000 A 
ENDBRANCH  13  14
ENDBRANCH  12  13
ENDBRANCH  11  12
ENDBRANCH   8  11
TORSDOF 4
ENDMDL
