MODEL 1
REMARK VINA RESULT:    -4.717      0.000      0.000
REMARK INTER + INTRA:          -5.835
REMARK INTER:                  -5.658
REMARK INTRA:                  -0.178
REMARK UNBOUND:                -0.291
REMARK  Name = /home/anacleto/Desktop/manuscript_Mpro/naturecomm/supplementary_file_S2/6-chemical-library/molecular_docking/3D_ligand_structure/1097.pdb
REMARK  3 active torsions:
REMARK  status: ('A' for Active; 'I' for Inactive)
REMARK    1  A    between atoms: C3_3  and  N1_4
REMARK    2  A    between atoms: C4_5  and  C5_7
REMARK    3  A    between atoms: C5_7  and  C6_8
REMARK                            x       y       z     vdW  Elec       q    Type
REMARK                         _______ _______ _______ _____ _____    ______ ____
ROOT
ATOM      1  N1  UNL     1      13.649  15.112  -3.238  0.00  0.00    +0.000 N 
ATOM      2  C4  UNL     1      14.609  14.125  -3.354  0.00  0.00    +0.000 C 
ATOM      3  O1  UNL     1      14.999  13.438  -2.411  0.00  0.00    +0.000 OA
ATOM      4  H6  UNL     1      13.273  15.528  -4.083  0.00  0.00    +0.000 HD
ENDROOT
BRANCH   1   7
ATOM      5  C1  UNL     1      13.139  16.694  -1.312  0.00  0.00    +0.000 C 
ATOM      6  C2  UNL     1      11.828  16.348  -1.954  0.00  0.00    +0.000 C 
ATOM      7  C3  UNL     1      12.971  15.371  -2.008  0.00  0.00    +0.000 C 
ENDBRANCH   1   7
BRANCH   2   8
ATOM      8  C5  UNL     1      15.200  13.982  -4.745  0.00  0.00    +0.000 C 
BRANCH   8   9
ATOM      9  C6  UNL     1      14.609  12.849  -5.538  0.00  0.00    +0.000 A 
ATOM     10  C7  UNL     1      15.187  12.421  -6.737  0.00  0.00    +0.000 A 
ATOM     11  C8  UNL     1      14.618  11.360  -7.437  0.00  0.00    +0.000 A 
ATOM     12  C9  UNL     1      13.485  10.762  -6.913  0.00  0.00    +0.000 A 
ATOM     13  N2  UNL     1      12.897  11.151  -5.760  0.00  0.00    +0.000 NA
ATOM     14  C10 UNL     1      13.464  12.187  -5.106  0.00  0.00    +0.000 A 
ENDBRANCH   8   9
ENDBRANCH   2   8
TORSDOF 3
ENDMDL
MODEL 2
REMARK VINA RESULT:    -4.376      3.740      6.069
REMARK INTER + INTRA:          -5.435
REMARK INTER:                  -5.218
REMARK INTRA:                  -0.217
REMARK UNBOUND:                -0.291
REMARK  Name = /home/anacleto/Desktop/manuscript_Mpro/naturecomm/supplementary_file_S2/6-chemical-library/molecular_docking/3D_ligand_structure/1097.pdb
REMARK  3 active torsions:
REMARK  status: ('A' for Active; 'I' for Inactive)
REMARK    1  A    between atoms: C3_3  and  N1_4
REMARK    2  A    between atoms: C4_5  and  C5_7
REMARK    3  A    between atoms: C5_7  and  C6_8
REMARK                            x       y       z     vdW  Elec       q    Type
REMARK                         _______ _______ _______ _____ _____    ______ ____
ROOT
ATOM      1  N1  UNL     1      14.625  10.775  -3.882  0.00  0.00    +0.000 N 
ATOM      2  C4  UNL     1      15.946  10.750  -3.475  0.00  0.00    +0.000 C 
ATOM      3  O1  UNL     1      16.900  10.775  -4.251  0.00  0.00    +0.000 OA
ATOM      4  H6  UNL     1      13.902  10.904  -3.182  0.00  0.00    +0.000 HD
ENDROOT
BRANCH   1   7
ATOM      5  C1  UNL     1      12.813  11.079  -5.641  0.00  0.00    +0.000 C 
ATOM      6  C2  UNL     1      13.773  12.221  -5.798  0.00  0.00    +0.000 C 
ATOM      7  C3  UNL     1      14.256  10.904  -5.256  0.00  0.00    +0.000 C 
ENDBRANCH   1   7
BRANCH   2   8
ATOM      8  C5  UNL     1      16.140  10.632  -1.974  0.00  0.00    +0.000 C 
BRANCH   8   9
ATOM      9  C6  UNL     1      17.027  11.700  -1.395  0.00  0.00    +0.000 A 
ATOM     10  C7  UNL     1      18.363  11.440  -1.071  0.00  0.00    +0.000 A 
ATOM     11  C8  UNL     1      19.157  12.457  -0.549  0.00  0.00    +0.000 A 
ATOM     12  C9  UNL     1      18.586  13.705  -0.366  0.00  0.00    +0.000 A 
ATOM     13  N2  UNL     1      17.300  13.992  -0.664  0.00  0.00    +0.000 NA
ATOM     14  C10 UNL     1      16.550  12.985  -1.161  0.00  0.00    +0.000 A 
ENDBRANCH   8   9
ENDBRANCH   2   8
TORSDOF 3
ENDMDL
MODEL 3
REMARK VINA RESULT:    -4.358     16.971     17.535
REMARK INTER + INTRA:          -5.414
REMARK INTER:                  -5.186
REMARK INTRA:                  -0.228
REMARK UNBOUND:                -0.291
REMARK  Name = /home/anacleto/Desktop/manuscript_Mpro/naturecomm/supplementary_file_S2/6-chemical-library/molecular_docking/3D_ligand_structure/1097.pdb
REMARK  3 active torsions:
REMARK  status: ('A' for Active; 'I' for Inactive)
REMARK    1  A    between atoms: C3_3  and  N1_4
REMARK    2  A    between atoms: C4_5  and  C5_7
REMARK    3  A    between atoms: C5_7  and  C6_8
REMARK                            x       y       z     vdW  Elec       q    Type
REMARK                         _______ _______ _______ _____ _____    ______ ____
ROOT
ATOM      1  N1  UNL     1      17.631   4.271   8.389  0.00  0.00    +0.000 N 
ATOM      2  C4  UNL     1      17.008   3.058   8.616  0.00  0.00    +0.000 C 
ATOM      3  O1  UNL     1      17.249   2.336   9.581  0.00  0.00    +0.000 OA
ATOM      4  H6  UNL     1      17.272   4.874   7.658  0.00  0.00    +0.000 HD
ENDROOT
BRANCH   1   7
ATOM      5  C1  UNL     1      20.017   4.971   8.926  0.00  0.00    +0.000 C 
ATOM      6  C2  UNL     1      19.157   6.190   9.080  0.00  0.00    +0.000 C 
ATOM      7  C3  UNL     1      18.571   4.824   9.312  0.00  0.00    +0.000 C 
ENDBRANCH   1   7
BRANCH   2   8
ATOM      8  C5  UNL     1      16.024   2.646   7.536  0.00  0.00    +0.000 C 
BRANCH   8   9
ATOM      9  C6  UNL     1      15.134   1.500   7.936  0.00  0.00    +0.000 A 
ATOM     10  C7  UNL     1      13.947   1.714   8.645  0.00  0.00    +0.000 A 
ATOM     11  C8  UNL     1      13.143   0.630   8.986  0.00  0.00    +0.000 A 
ATOM     12  C9  UNL     1      13.554  -0.636   8.605  0.00  0.00    +0.000 A 
ATOM     13  N2  UNL     1      14.694  -0.881   7.924  0.00  0.00    +0.000 NA
ATOM     14  C10 UNL     1      15.460   0.187   7.613  0.00  0.00    +0.000 A 
ENDBRANCH   8   9
ENDBRANCH   2   8
TORSDOF 3
ENDMDL
MODEL 4
REMARK VINA RESULT:    -4.031     17.821     18.713
REMARK INTER + INTRA:          -5.029
REMARK INTER:                  -4.721
REMARK INTRA:                  -0.308
REMARK UNBOUND:                -0.291
REMARK  Name = /home/anacleto/Desktop/manuscript_Mpro/naturecomm/supplementary_file_S2/6-chemical-library/molecular_docking/3D_ligand_structure/1097.pdb
REMARK  3 active torsions:
REMARK  status: ('A' for Active; 'I' for Inactive)
REMARK    1  A    between atoms: C3_3  and  N1_4
REMARK    2  A    between atoms: C4_5  and  C5_7
REMARK    3  A    between atoms: C5_7  and  C6_8
REMARK                            x       y       z     vdW  Elec       q    Type
REMARK                         _______ _______ _______ _____ _____    ______ ____
ROOT
ATOM      1  N1  UNL     1      21.264   8.074  12.808  0.00  0.00    +0.000 N 
ATOM      2  C4  UNL     1      20.031   7.616  13.234  0.00  0.00    +0.000 C 
ATOM      3  O1  UNL     1      19.819   7.177  14.363  0.00  0.00    +0.000 OA
ATOM      4  H6  UNL     1      21.324   8.559  11.919  0.00  0.00    +0.000 HD
ENDROOT
BRANCH   1   7
ATOM      5  C1  UNL     1      23.729   7.614  13.234  0.00  0.00    +0.000 C 
ATOM      6  C2  UNL     1      23.523   9.091  13.401  0.00  0.00    +0.000 C 
ATOM      7  C3  UNL     1      22.393   8.139  13.681  0.00  0.00    +0.000 C 
ENDBRANCH   1   7
BRANCH   2   8
ATOM      8  C5  UNL     1      18.948   7.644  12.171  0.00  0.00    +0.000 C 
BRANCH   8   9
ATOM      9  C6  UNL     1      19.294   6.857  10.937  0.00  0.00    +0.000 A 
ATOM     10  C7  UNL     1      19.445   7.481   9.694  0.00  0.00    +0.000 A 
ATOM     11  C8  UNL     1      19.779   6.721   8.577  0.00  0.00    +0.000 A 
ATOM     12  C9  UNL     1      19.949   5.357   8.740  0.00  0.00    +0.000 A 
ATOM     13  N2  UNL     1      19.807   4.719   9.922  0.00  0.00    +0.000 NA
ATOM     14  C10 UNL     1      19.476   5.479  10.988  0.00  0.00    +0.000 A 
ENDBRANCH   8   9
ENDBRANCH   2   8
TORSDOF 3
ENDMDL
MODEL 5
REMARK VINA RESULT:    -3.994     18.295     19.869
REMARK INTER + INTRA:          -4.985
REMARK INTER:                  -4.790
REMARK INTRA:                  -0.195
REMARK UNBOUND:                -0.291
REMARK  Name = /home/anacleto/Desktop/manuscript_Mpro/naturecomm/supplementary_file_S2/6-chemical-library/molecular_docking/3D_ligand_structure/1097.pdb
REMARK  3 active torsions:
REMARK  status: ('A' for Active; 'I' for Inactive)
REMARK    1  A    between atoms: C3_3  and  N1_4
REMARK    2  A    between atoms: C4_5  and  C5_7
REMARK    3  A    between atoms: C5_7  and  C6_8
REMARK                            x       y       z     vdW  Elec       q    Type
REMARK                         _______ _______ _______ _____ _____    ______ ____
ROOT
ATOM      1  N1  UNL     1      19.477   7.708  11.371  0.00  0.00    +0.000 N 
ATOM      2  C4  UNL     1      18.701   7.175  12.383  0.00  0.00    +0.000 C 
ATOM      3  O1  UNL     1      18.087   6.113  12.286  0.00  0.00    +0.000 OA
ATOM      4  H6  UNL     1      20.069   8.505  11.579  0.00  0.00    +0.000 HD
ENDROOT
BRANCH   1   7
ATOM      5  C1  UNL     1      19.795   7.794   8.849  0.00  0.00    +0.000 C 
ATOM      6  C2  UNL     1      21.008   7.123   9.421  0.00  0.00    +0.000 C 
ATOM      7  C3  UNL     1      19.688   7.023  10.135  0.00  0.00    +0.000 C 
ENDBRANCH   1   7
BRANCH   2   8
ATOM      8  C5  UNL     1      18.613   8.037  13.629  0.00  0.00    +0.000 C 
BRANCH   8   9
ATOM      9  C6  UNL     1      17.656   7.509  14.662  0.00  0.00    +0.000 A 
ATOM     10  C7  UNL     1      18.080   6.637  15.670  0.00  0.00    +0.000 A 
ATOM     11  C8  UNL     1      17.168   6.179  16.617  0.00  0.00    +0.000 A 
ATOM     12  C9  UNL     1      15.855   6.610  16.522  0.00  0.00    +0.000 A 
ATOM     13  N2  UNL     1      15.408   7.448  15.562  0.00  0.00    +0.000 NA
ATOM     14  C10 UNL     1      16.312   7.870  14.652  0.00  0.00    +0.000 A 
ENDBRANCH   8   9
ENDBRANCH   2   8
TORSDOF 3
ENDMDL
MODEL 6
REMARK VINA RESULT:    -3.928      3.967      4.958
REMARK INTER + INTRA:          -4.908
REMARK INTER:                  -4.630
REMARK INTRA:                  -0.278
REMARK UNBOUND:                -0.291
REMARK  Name = /home/anacleto/Desktop/manuscript_Mpro/naturecomm/supplementary_file_S2/6-chemical-library/molecular_docking/3D_ligand_structure/1097.pdb
REMARK  3 active torsions:
REMARK  status: ('A' for Active; 'I' for Inactive)
REMARK    1  A    between atoms: C3_3  and  N1_4
REMARK    2  A    between atoms: C4_5  and  C5_7
REMARK    3  A    between atoms: C5_7  and  C6_8
REMARK                            x       y       z     vdW  Elec       q    Type
REMARK                         _______ _______ _______ _____ _____    ______ ____
ROOT
ATOM      1  N1  UNL     1      17.938  12.762  -0.723  0.00  0.00    +0.000 N 
ATOM      2  C4  UNL     1      17.501  11.569  -1.268  0.00  0.00    +0.000 C 
ATOM      3  O1  UNL     1      18.253  10.711  -1.726  0.00  0.00    +0.000 OA
ATOM      4  H6  UNL     1      17.272  13.347  -0.231  0.00  0.00    +0.000 HD
ENDROOT
BRANCH   1   7
ATOM      5  C1  UNL     1      19.880  14.352  -1.137  0.00  0.00    +0.000 C 
ATOM      6  C2  UNL     1      19.780  14.159   0.347  0.00  0.00    +0.000 C 
ATOM      7  C3  UNL     1      19.326  13.068  -0.584  0.00  0.00    +0.000 C 
ENDBRANCH   1   7
BRANCH   2   8
ATOM      8  C5  UNL     1      15.991  11.413  -1.310  0.00  0.00    +0.000 C 
BRANCH   8   9
ATOM      9  C6  UNL     1      15.374  11.866  -2.606  0.00  0.00    +0.000 A 
ATOM     10  C7  UNL     1      15.030  13.204  -2.819  0.00  0.00    +0.000 A 
ATOM     11  C8  UNL     1      14.473  13.588  -4.036  0.00  0.00    +0.000 A 
ATOM     12  C9  UNL     1      14.278  12.615  -5.002  0.00  0.00    +0.000 A 
ATOM     13  N2  UNL     1      14.595  11.313  -4.831  0.00  0.00    +0.000 NA
ATOM     14  C10 UNL     1      15.126  10.967  -3.638  0.00  0.00    +0.000 A 
ENDBRANCH   8   9
ENDBRANCH   2   8
TORSDOF 3
ENDMDL
MODEL 7
REMARK VINA RESULT:    -3.926     18.099     19.908
REMARK INTER + INTRA:          -4.906
REMARK INTER:                  -4.615
REMARK INTRA:                  -0.291
REMARK UNBOUND:                -0.291
REMARK  Name = /home/anacleto/Desktop/manuscript_Mpro/naturecomm/supplementary_file_S2/6-chemical-library/molecular_docking/3D_ligand_structure/1097.pdb
REMARK  3 active torsions:
REMARK  status: ('A' for Active; 'I' for Inactive)
REMARK    1  A    between atoms: C3_3  and  N1_4
REMARK    2  A    between atoms: C4_5  and  C5_7
REMARK    3  A    between atoms: C5_7  and  C6_8
REMARK                            x       y       z     vdW  Elec       q    Type
REMARK                         _______ _______ _______ _____ _____    ______ ____
ROOT
ATOM      1  N1  UNL     1      25.105  14.890   9.665  0.00  0.00    +0.000 N 
ATOM      2  C4  UNL     1      24.381  16.031   9.958  0.00  0.00    +0.000 C 
ATOM      3  O1  UNL     1      24.673  17.151   9.543  0.00  0.00    +0.000 OA
ATOM      4  H6  UNL     1      24.718  13.988   9.917  0.00  0.00    +0.000 HD
ENDROOT
BRANCH   1   7
ATOM      5  C1  UNL     1      27.581  15.338   9.289  0.00  0.00    +0.000 C 
ATOM      6  C2  UNL     1      27.335  13.902   8.931  0.00  0.00    +0.000 C 
ATOM      7  C3  UNL     1      26.230  14.912   8.785  0.00  0.00    +0.000 C 
ENDBRANCH   1   7
BRANCH   2   8
ATOM      8  C5  UNL     1      23.206  15.806  10.894  0.00  0.00    +0.000 C 
BRANCH   8   9
ATOM      9  C6  UNL     1      23.250  16.658  12.133  0.00  0.00    +0.000 A 
ATOM     10  C7  UNL     1      22.205  17.529  12.454  0.00  0.00    +0.000 A 
ATOM     11  C8  UNL     1      22.275  18.292  13.617  0.00  0.00    +0.000 A 
ATOM     12  C9  UNL     1      23.394  18.158  14.421  0.00  0.00    +0.000 A 
ATOM     13  N2  UNL     1      24.424  17.330  14.141  0.00  0.00    +0.000 NA
ATOM     14  C10 UNL     1      24.334  16.608  13.004  0.00  0.00    +0.000 A 
ENDBRANCH   8   9
ENDBRANCH   2   8
TORSDOF 3
ENDMDL
MODEL 8
REMARK VINA RESULT:    -3.901      2.798      3.316
REMARK INTER + INTRA:          -4.876
REMARK INTER:                  -4.570
REMARK INTRA:                  -0.306
REMARK UNBOUND:                -0.291
REMARK  Name = /home/anacleto/Desktop/manuscript_Mpro/naturecomm/supplementary_file_S2/6-chemical-library/molecular_docking/3D_ligand_structure/1097.pdb
REMARK  3 active torsions:
REMARK  status: ('A' for Active; 'I' for Inactive)
REMARK    1  A    between atoms: C3_3  and  N1_4
REMARK    2  A    between atoms: C4_5  and  C5_7
REMARK    3  A    between atoms: C5_7  and  C6_8
REMARK                            x       y       z     vdW  Elec       q    Type
REMARK                         _______ _______ _______ _____ _____    ______ ____
ROOT
ATOM      1  N1  UNL     1      16.758  12.909  -2.266  0.00  0.00    +0.000 N 
ATOM      2  C4  UNL     1      15.510  12.650  -2.801  0.00  0.00    +0.000 C 
ATOM      3  O1  UNL     1      14.600  13.475  -2.842  0.00  0.00    +0.000 OA
ATOM      4  H6  UNL     1      17.499  12.231  -2.406  0.00  0.00    +0.000 HD
ENDROOT
BRANCH   1   7
ATOM      5  C1  UNL     1      16.835  14.575  -0.346  0.00  0.00    +0.000 C 
ATOM      6  C2  UNL     1      18.249  14.358  -0.794  0.00  0.00    +0.000 C 
ATOM      7  C3  UNL     1      17.119  14.200  -1.774  0.00  0.00    +0.000 C 
ENDBRANCH   1   7
BRANCH   2   8
ATOM      8  C5  UNL     1      15.321  11.226  -3.294  0.00  0.00    +0.000 C 
BRANCH   8   9
ATOM      9  C6  UNL     1      14.837  11.139  -4.716  0.00  0.00    +0.000 A 
ATOM     10  C7  UNL     1      13.557  10.664  -5.021  0.00  0.00    +0.000 A 
ATOM     11  C8  UNL     1      13.140  10.611  -6.348  0.00  0.00    +0.000 A 
ATOM     12  C9  UNL     1      14.020  11.036  -7.329  0.00  0.00    +0.000 A 
ATOM     13  N2  UNL     1      15.263  11.497  -7.072  0.00  0.00    +0.000 NA
ATOM     14  C10 UNL     1      15.646  11.530  -5.777  0.00  0.00    +0.000 A 
ENDBRANCH   8   9
ENDBRANCH   2   8
TORSDOF 3
ENDMDL
MODEL 9
REMARK VINA RESULT:    -3.896      2.139      2.413
REMARK INTER + INTRA:          -4.871
REMARK INTER:                  -4.684
REMARK INTRA:                  -0.186
REMARK UNBOUND:                -0.291
REMARK  Name = /home/anacleto/Desktop/manuscript_Mpro/naturecomm/supplementary_file_S2/6-chemical-library/molecular_docking/3D_ligand_structure/1097.pdb
REMARK  3 active torsions:
REMARK  status: ('A' for Active; 'I' for Inactive)
REMARK    1  A    between atoms: C3_3  and  N1_4
REMARK    2  A    between atoms: C4_5  and  C5_7
REMARK    3  A    between atoms: C5_7  and  C6_8
REMARK                            x       y       z     vdW  Elec       q    Type
REMARK                         _______ _______ _______ _____ _____    ______ ____
ROOT
ATOM      1  N1  UNL     1      13.423  15.521  -2.975  0.00  0.00    +0.000 N 
ATOM      2  C4  UNL     1      14.367  14.511  -2.998  0.00  0.00    +0.000 C 
ATOM      3  O1  UNL     1      15.241  14.373  -2.144  0.00  0.00    +0.000 OA
ATOM      4  H6  UNL     1      12.648  15.479  -3.627  0.00  0.00    +0.000 HD
ENDROOT
BRANCH   1   7
ATOM      5  C1  UNL     1      12.719  17.810  -2.120  0.00  0.00    +0.000 C 
ATOM      6  C2  UNL     1      12.018  16.791  -1.272  0.00  0.00    +0.000 C 
ATOM      7  C3  UNL     1      13.343  16.460  -1.902  0.00  0.00    +0.000 C 
ENDBRANCH   1   7
BRANCH   2   8
ATOM      8  C5  UNL     1      14.281  13.597  -4.207  0.00  0.00    +0.000 C 
BRANCH   8   9
ATOM      9  C6  UNL     1      15.480  12.704  -4.376  0.00  0.00    +0.000 A 
ATOM     10  C7  UNL     1      16.591  13.110  -5.120  0.00  0.00    +0.000 A 
ATOM     11  C8  UNL     1      17.688  12.261  -5.242  0.00  0.00    +0.000 A 
ATOM     12  C9  UNL     1      17.635  11.028  -4.614  0.00  0.00    +0.000 A 
ATOM     13  N2  UNL     1      16.577  10.601  -3.890  0.00  0.00    +0.000 NA
ATOM     14  C10 UNL     1      15.524  11.441  -3.795  0.00  0.00    +0.000 A 
ENDBRANCH   8   9
ENDBRANCH   2   8
TORSDOF 3
ENDMDL
