MODEL 1
REMARK VINA RESULT:    -4.921      0.000      0.000
REMARK INTER + INTRA:          -4.921
REMARK INTER:                  -4.921
REMARK INTRA:                   0.000
REMARK UNBOUND:                 0.000
REMARK  Name = /home/anacleto/Desktop/manuscript_Mpro/naturecomm/supplementary_file_S2/6-chemical-library/molecular_docking/3D_ligand_structure/1466.pdb
REMARK  0 active torsions:
REMARK  status: ('A' for Active; 'I' for Inactive)
REMARK                            x       y       z     vdW  Elec       q    Type
REMARK                         _______ _______ _______ _____ _____    ______ ____
ROOT
ATOM      1  N1  UNL     1      14.231  14.686  -3.917  0.00  0.00    +0.000 N 
ATOM      2  C1  UNL     1      14.798  15.304  -2.825  0.00  0.00    +0.000 A 
ATOM      3  N2  UNL     1      15.414  14.447  -2.030  0.00  0.00    +0.000 NA
ATOM      4  C2  UNL     1      15.244  13.216  -2.625  0.00  0.00    +0.000 A 
ATOM      5  C3  UNL     1      14.517  13.388  -3.779  0.00  0.00    +0.000 A 
ATOM      6  C4  UNL     1      14.200  12.338  -4.570  0.00  0.00    +0.000 A 
ATOM      7  C5  UNL     1      15.647  11.908  -2.298  0.00  0.00    +0.000 A 
ATOM      8  N3  UNL     1      15.341  10.815  -3.081  0.00  0.00    +0.000 NA
ATOM      9  C6  UNL     1      14.625  11.091  -4.189  0.00  0.00    +0.000 A 
ATOM     10  N4  UNL     1      14.174  10.231  -5.153  0.00  0.00    +0.000 N 
ATOM     11  C7  UNL     1      13.477  10.942  -6.117  0.00  0.00    +0.000 A 
ATOM     12  C8  UNL     1      13.476  12.287  -5.776  0.00  0.00    +0.000 A 
ATOM     13  H1  UNL     1      13.712  15.136  -4.657  0.00  0.00    +0.000 HD
ATOM     14  H4  UNL     1      14.336   9.234  -5.142  0.00  0.00    +0.000 HD
ENDROOT
TORSDOF 0
ENDMDL
MODEL 2
REMARK VINA RESULT:    -4.802      1.187      4.114
REMARK INTER + INTRA:          -4.802
REMARK INTER:                  -4.802
REMARK INTRA:                   0.000
REMARK UNBOUND:                 0.000
REMARK  Name = /home/anacleto/Desktop/manuscript_Mpro/naturecomm/supplementary_file_S2/6-chemical-library/molecular_docking/3D_ligand_structure/1466.pdb
REMARK  0 active torsions:
REMARK  status: ('A' for Active; 'I' for Inactive)
REMARK                            x       y       z     vdW  Elec       q    Type
REMARK                         _______ _______ _______ _____ _____    ______ ____
ROOT
ATOM      1  N1  UNL     1      14.209  10.454  -4.265  0.00  0.00    +0.000 N 
ATOM      2  C1  UNL     1      13.498  10.805  -5.391  0.00  0.00    +0.000 A 
ATOM      3  N2  UNL     1      13.528  12.107  -5.615  0.00  0.00    +0.000 NA
ATOM      4  C2  UNL     1      14.290  12.632  -4.595  0.00  0.00    +0.000 A 
ATOM      5  C3  UNL     1      14.696  11.601  -3.781  0.00  0.00    +0.000 A 
ATOM      6  C4  UNL     1      15.464  11.830  -2.692  0.00  0.00    +0.000 A 
ATOM      7  C5  UNL     1      14.703  13.934  -4.254  0.00  0.00    +0.000 A 
ATOM      8  N3  UNL     1      15.486  14.202  -3.150  0.00  0.00    +0.000 NA
ATOM      9  C6  UNL     1      15.829  13.123  -2.418  0.00  0.00    +0.000 A 
ATOM     10  N4  UNL     1      16.589  13.066  -1.283  0.00  0.00    +0.000 N 
ATOM     11  C7  UNL     1      16.690  11.749  -0.860  0.00  0.00    +0.000 A 
ATOM     12  C8  UNL     1      15.985  10.937  -1.737  0.00  0.00    +0.000 A 
ATOM     13  H1  UNL     1      14.327   9.521  -3.898  0.00  0.00    +0.000 HD
ATOM     14  H4  UNL     1      17.002  13.873  -0.838  0.00  0.00    +0.000 HD
ENDROOT
TORSDOF 0
ENDMDL
MODEL 3
REMARK VINA RESULT:    -4.654      1.764      3.242
REMARK INTER + INTRA:          -4.654
REMARK INTER:                  -4.654
REMARK INTRA:                   0.000
REMARK UNBOUND:                 0.000
REMARK  Name = /home/anacleto/Desktop/manuscript_Mpro/naturecomm/supplementary_file_S2/6-chemical-library/molecular_docking/3D_ligand_structure/1466.pdb
REMARK  0 active torsions:
REMARK  status: ('A' for Active; 'I' for Inactive)
REMARK                            x       y       z     vdW  Elec       q    Type
REMARK                         _______ _______ _______ _____ _____    ______ ____
ROOT
ATOM      1  N1  UNL     1      17.125   9.941  -4.108  0.00  0.00    +0.000 N 
ATOM      2  C1  UNL     1      17.961   9.847  -3.018  0.00  0.00    +0.000 A 
ATOM      3  N2  UNL     1      17.712  10.780  -2.115  0.00  0.00    +0.000 NA
ATOM      4  C2  UNL     1      16.670  11.515  -2.634  0.00  0.00    +0.000 A 
ATOM      5  C3  UNL     1      16.327  10.984  -3.854  0.00  0.00    +0.000 A 
ATOM      6  C4  UNL     1      15.325  11.513  -4.593  0.00  0.00    +0.000 A 
ATOM      7  C5  UNL     1      15.940  12.631  -2.182  0.00  0.00    +0.000 A 
ATOM      8  N3  UNL     1      14.913  13.196  -2.910  0.00  0.00    +0.000 NA
ATOM      9  C6  UNL     1      14.658  12.600  -4.091  0.00  0.00    +0.000 A 
ATOM     10  N4  UNL     1      13.713  12.924  -5.026  0.00  0.00    +0.000 N 
ATOM     11  C7  UNL     1      13.800  12.045  -6.094  0.00  0.00    +0.000 A 
ATOM     12  C8  UNL     1      14.817  11.133  -5.849  0.00  0.00    +0.000 A 
ATOM     13  H1  UNL     1      17.128   9.340  -4.919  0.00  0.00    +0.000 HD
ATOM     14  H4  UNL     1      13.063  13.691  -4.931  0.00  0.00    +0.000 HD
ENDROOT
TORSDOF 0
ENDMDL
MODEL 4
REMARK VINA RESULT:    -4.403     15.065     16.754
REMARK INTER + INTRA:          -4.403
REMARK INTER:                  -4.403
REMARK INTRA:                   0.000
REMARK UNBOUND:                 0.000
REMARK  Name = /home/anacleto/Desktop/manuscript_Mpro/naturecomm/supplementary_file_S2/6-chemical-library/molecular_docking/3D_ligand_structure/1466.pdb
REMARK  0 active torsions:
REMARK  status: ('A' for Active; 'I' for Inactive)
REMARK                            x       y       z     vdW  Elec       q    Type
REMARK                         _______ _______ _______ _____ _____    ______ ____
ROOT
ATOM      1  N1  UNL     1      19.434   8.221  12.234  0.00  0.00    +0.000 N 
ATOM      2  C1  UNL     1      19.192   7.975  13.567  0.00  0.00    +0.000 A 
ATOM      3  N2  UNL     1      18.725   6.756  13.772  0.00  0.00    +0.000 NA
ATOM      4  C2  UNL     1      18.660   6.179  12.524  0.00  0.00    +0.000 A 
ATOM      5  C3  UNL     1      19.098   7.095  11.598  0.00  0.00    +0.000 A 
ATOM      6  C4  UNL     1      19.141   6.794  10.280  0.00  0.00    +0.000 A 
ATOM      7  C5  UNL     1      18.256   4.916  12.050  0.00  0.00    +0.000 A 
ATOM      8  N3  UNL     1      18.286   4.576  10.714  0.00  0.00    +0.000 NA
ATOM      9  C6  UNL     1      18.732   5.544   9.889  0.00  0.00    +0.000 A 
ATOM     10  N4  UNL     1      18.877   5.511   8.530  0.00  0.00    +0.000 N 
ATOM     11  C7  UNL     1      19.370   6.729   8.087  0.00  0.00    +0.000 A 
ATOM     12  C8  UNL     1      19.549   7.568   9.178  0.00  0.00    +0.000 A 
ATOM     13  H1  UNL     1      19.791   9.079  11.839  0.00  0.00    +0.000 HD
ATOM     14  H4  UNL     1      18.652   4.711   7.956  0.00  0.00    +0.000 HD
ENDROOT
TORSDOF 0
ENDMDL
MODEL 5
REMARK VINA RESULT:    -4.372      4.654      7.157
REMARK INTER + INTRA:          -4.372
REMARK INTER:                  -4.372
REMARK INTRA:                   0.000
REMARK UNBOUND:                 0.000
REMARK  Name = /home/anacleto/Desktop/manuscript_Mpro/naturecomm/supplementary_file_S2/6-chemical-library/molecular_docking/3D_ligand_structure/1466.pdb
REMARK  0 active torsions:
REMARK  status: ('A' for Active; 'I' for Inactive)
REMARK                            x       y       z     vdW  Elec       q    Type
REMARK                         _______ _______ _______ _____ _____    ______ ____
ROOT
ATOM      1  N1  UNL     1      19.078  12.301  -0.731  0.00  0.00    +0.000 N 
ATOM      2  C1  UNL     1      17.910  11.642  -1.040  0.00  0.00    +0.000 A 
ATOM      3  N2  UNL     1      16.845  12.407  -0.870  0.00  0.00    +0.000 NA
ATOM      4  C2  UNL     1      17.336  13.616  -0.431  0.00  0.00    +0.000 A 
ATOM      5  C3  UNL     1      18.705  13.528  -0.353  0.00  0.00    +0.000 A 
ATOM      6  C4  UNL     1      19.454  14.579   0.052  0.00  0.00    +0.000 A 
ATOM      7  C5  UNL     1      16.741  14.841  -0.071  0.00  0.00    +0.000 A 
ATOM      8  N3  UNL     1      17.473  15.932   0.347  0.00  0.00    +0.000 NA
ATOM      9  C6  UNL     1      18.807  15.741   0.388  0.00  0.00    +0.000 A 
ATOM     10  N4  UNL     1      19.787  16.622   0.755  0.00  0.00    +0.000 N 
ATOM     11  C7  UNL     1      21.025  16.007   0.648  0.00  0.00    +0.000 A 
ATOM     12  C8  UNL     1      20.847  14.705   0.202  0.00  0.00    +0.000 A 
ATOM     13  H1  UNL     1      20.012  11.921  -0.785  0.00  0.00    +0.000 HD
ATOM     14  H4  UNL     1      19.611  17.570   1.056  0.00  0.00    +0.000 HD
ENDROOT
TORSDOF 0
ENDMDL
MODEL 6
REMARK VINA RESULT:    -4.369      2.662      4.356
REMARK INTER + INTRA:          -4.369
REMARK INTER:                  -4.369
REMARK INTRA:                   0.000
REMARK UNBOUND:                 0.000
REMARK  Name = /home/anacleto/Desktop/manuscript_Mpro/naturecomm/supplementary_file_S2/6-chemical-library/molecular_docking/3D_ligand_structure/1466.pdb
REMARK  0 active torsions:
REMARK  status: ('A' for Active; 'I' for Inactive)
REMARK                            x       y       z     vdW  Elec       q    Type
REMARK                         _______ _______ _______ _____ _____    ______ ____
ROOT
ATOM      1  N1  UNL     1      14.010  10.462  -4.266  0.00  0.00    +0.000 N 
ATOM      2  C1  UNL     1      13.412  10.600  -5.498  0.00  0.00    +0.000 A 
ATOM      3  N2  UNL     1      14.238  11.099  -6.401  0.00  0.00    +0.000 NA
ATOM      4  C2  UNL     1      15.427  11.295  -5.734  0.00  0.00    +0.000 A 
ATOM      5  C3  UNL     1      15.263  10.898  -4.428  0.00  0.00    +0.000 A 
ATOM      6  C4  UNL     1      16.279  10.980  -3.538  0.00  0.00    +0.000 A 
ATOM      7  C5  UNL     1      16.690  11.790  -6.111  0.00  0.00    +0.000 A 
ATOM      8  N3  UNL     1      17.746  11.888  -5.229  0.00  0.00    +0.000 NA
ATOM      9  C6  UNL     1      17.482  11.474  -3.974  0.00  0.00    +0.000 A 
ATOM     10  N4  UNL     1      18.313  11.446  -2.889  0.00  0.00    +0.000 N 
ATOM     11  C7  UNL     1      17.628  10.942  -1.794  0.00  0.00    +0.000 A 
ATOM     12  C8  UNL     1      16.329  10.635  -2.175  0.00  0.00    +0.000 A 
ATOM     13  H1  UNL     1      13.578  10.104  -3.426  0.00  0.00    +0.000 HD
ATOM     14  H4  UNL     1      19.275  11.752  -2.906  0.00  0.00    +0.000 HD
ENDROOT
TORSDOF 0
ENDMDL
MODEL 7
REMARK VINA RESULT:    -4.350     14.738     16.452
REMARK INTER + INTRA:          -4.350
REMARK INTER:                  -4.350
REMARK INTRA:                   0.000
REMARK UNBOUND:                 0.000
REMARK  Name = /home/anacleto/Desktop/manuscript_Mpro/naturecomm/supplementary_file_S2/6-chemical-library/molecular_docking/3D_ligand_structure/1466.pdb
REMARK  0 active torsions:
REMARK  status: ('A' for Active; 'I' for Inactive)
REMARK                            x       y       z     vdW  Elec       q    Type
REMARK                         _______ _______ _______ _____ _____    ______ ____
ROOT
ATOM      1  N1  UNL     1      17.692   4.216   8.460  0.00  0.00    +0.000 N 
ATOM      2  C1  UNL     1      17.136   3.108   9.058  0.00  0.00    +0.000 A 
ATOM      3  N2  UNL     1      17.391   3.060  10.354  0.00  0.00    +0.000 NA
ATOM      4  C2  UNL     1      18.144   4.183  10.616  0.00  0.00    +0.000 A 
ATOM      5  C3  UNL     1      18.315   4.875   9.441  0.00  0.00    +0.000 A 
ATOM      6  C4  UNL     1      19.021   6.029   9.404  0.00  0.00    +0.000 A 
ATOM      7  C5  UNL     1      18.730   4.718  11.779  0.00  0.00    +0.000 A 
ATOM      8  N3  UNL     1      19.456   5.891  11.777  0.00  0.00    +0.000 NA
ATOM      9  C6  UNL     1      19.565   6.491  10.575  0.00  0.00    +0.000 A 
ATOM     10  N4  UNL     1      20.213   7.652  10.254  0.00  0.00    +0.000 N 
ATOM     11  C7  UNL     1      20.071   7.901   8.897  0.00  0.00    +0.000 A 
ATOM     12  C8  UNL     1      19.316   6.886   8.328  0.00  0.00    +0.000 A 
ATOM     13  H1  UNL     1      17.631   4.464   7.482  0.00  0.00    +0.000 HD
ATOM     14  H4  UNL     1      20.713   8.223  10.920  0.00  0.00    +0.000 HD
ENDROOT
TORSDOF 0
ENDMDL
MODEL 8
REMARK VINA RESULT:    -4.332      2.461      3.144
REMARK INTER + INTRA:          -4.332
REMARK INTER:                  -4.332
REMARK INTRA:                   0.000
REMARK UNBOUND:                 0.000
REMARK  Name = /home/anacleto/Desktop/manuscript_Mpro/naturecomm/supplementary_file_S2/6-chemical-library/molecular_docking/3D_ligand_structure/1466.pdb
REMARK  0 active torsions:
REMARK  status: ('A' for Active; 'I' for Inactive)
REMARK                            x       y       z     vdW  Elec       q    Type
REMARK                         _______ _______ _______ _____ _____    ______ ____
ROOT
ATOM      1  N1  UNL     1      15.038  11.215  -2.762  0.00  0.00    +0.000 N 
ATOM      2  C1  UNL     1      15.891  10.887  -1.732  0.00  0.00    +0.000 A 
ATOM      3  N2  UNL     1      17.096  10.563  -2.166  0.00  0.00    +0.000 NA
ATOM      4  C2  UNL     1      17.032  10.682  -3.536  0.00  0.00    +0.000 A 
ATOM      5  C3  UNL     1      15.762  11.082  -3.878  0.00  0.00    +0.000 A 
ATOM      6  C4  UNL     1      15.414  11.281  -5.170  0.00  0.00    +0.000 A 
ATOM      7  C5  UNL     1      17.956  10.486  -4.580  0.00  0.00    +0.000 A 
ATOM      8  N3  UNL     1      17.635  10.678  -5.907  0.00  0.00    +0.000 NA
ATOM      9  C6  UNL     1      16.365  11.070  -6.135  0.00  0.00    +0.000 A 
ATOM     10  N4  UNL     1      15.754  11.339  -7.328  0.00  0.00    +0.000 N 
ATOM     11  C7  UNL     1      14.438  11.711  -7.101  0.00  0.00    +0.000 A 
ATOM     12  C8  UNL     1      14.190  11.684  -5.735  0.00  0.00    +0.000 A 
ATOM     13  H1  UNL     1      14.072  11.494  -2.674  0.00  0.00    +0.000 HD
ATOM     14  H4  UNL     1      16.211  11.269  -8.226  0.00  0.00    +0.000 HD
ENDROOT
TORSDOF 0
ENDMDL
MODEL 9
REMARK VINA RESULT:    -4.310     17.495     18.346
REMARK INTER + INTRA:          -4.310
REMARK INTER:                  -4.310
REMARK INTRA:                   0.000
REMARK UNBOUND:                 0.000
REMARK  Name = /home/anacleto/Desktop/manuscript_Mpro/naturecomm/supplementary_file_S2/6-chemical-library/molecular_docking/3D_ligand_structure/1466.pdb
REMARK  0 active torsions:
REMARK  status: ('A' for Active; 'I' for Inactive)
REMARK                            x       y       z     vdW  Elec       q    Type
REMARK                         _______ _______ _______ _____ _____    ______ ____
ROOT
ATOM      1  N1  UNL     1      23.298  19.132  11.788  0.00  0.00    +0.000 N 
ATOM      2  C1  UNL     1      22.401  19.413  12.794  0.00  0.00    +0.000 A 
ATOM      3  N2  UNL     1      21.866  18.319  13.307  0.00  0.00    +0.000 NA
ATOM      4  C2  UNL     1      22.435  17.277  12.608  0.00  0.00    +0.000 A 
ATOM      5  C3  UNL     1      23.308  17.799  11.684  0.00  0.00    +0.000 A 
ATOM      6  C4  UNL     1      24.013  16.996  10.854  0.00  0.00    +0.000 A 
ATOM      7  C5  UNL     1      22.301  15.876  12.659  0.00  0.00    +0.000 A 
ATOM      8  N3  UNL     1      23.003  15.029  11.828  0.00  0.00    +0.000 NA
ATOM      9  C6  UNL     1      23.832  15.641  10.959  0.00  0.00    +0.000 A 
ATOM     10  N4  UNL     1      24.652  15.080  10.019  0.00  0.00    +0.000 N 
ATOM     11  C7  UNL     1      25.331  16.081   9.341  0.00  0.00    +0.000 A 
ATOM     12  C8  UNL     1      24.946  17.314   9.850  0.00  0.00    +0.000 A 
ATOM     13  H1  UNL     1      23.827  19.804  11.252  0.00  0.00    +0.000 HD
ATOM     14  H4  UNL     1      24.734  14.086   9.860  0.00  0.00    +0.000 HD
ENDROOT
TORSDOF 0
ENDMDL
