MODEL 1
REMARK VINA RESULT:    -4.314      0.000      0.000
REMARK INTER + INTRA:          -5.235
REMARK INTER:                  -5.101
REMARK INTRA:                  -0.134
REMARK UNBOUND:                -0.164
REMARK  Name = /home/anacleto/Desktop/manuscript_Mpro/naturecomm/supplementary_file_S2/6-chemical-library/molecular_docking/3D_ligand_structure/1031.pdb
REMARK  3 active torsions:
REMARK  status: ('A' for Active; 'I' for Inactive)
REMARK    1  A    between atoms: C2_5  and  C3_6
REMARK    2  A    between atoms: C3_6  and  S1_7
REMARK    3  A    between atoms: S1_7  and  C4_8
REMARK                            x       y       z     vdW  Elec       q    Type
REMARK                         _______ _______ _______ _____ _____    ______ ____
ROOT
ATOM      1  S1  UNL     1     -24.662   5.655 -39.425  0.00  0.00    +0.000 S 
ENDROOT
BRANCH   1   2
ATOM      2  C4  UNL     1     -25.897   4.476 -38.912  0.00  0.00    +0.000 A 
ATOM      3  C5  UNL     1     -25.495   3.214 -38.461  0.00  0.00    +0.000 A 
ATOM      4  C6  UNL     1     -26.447   2.275 -38.059  0.00  0.00    +0.000 A 
ATOM      5  C7  UNL     1     -27.804   2.589 -38.113  0.00  0.00    +0.000 A 
ATOM      6  C8  UNL     1     -28.210   3.841 -38.574  0.00  0.00    +0.000 A 
ATOM      7  C9  UNL     1     -27.259   4.781 -38.976  0.00  0.00    +0.000 A 
ENDBRANCH   1   2
BRANCH   1   8
ATOM      8  C3  UNL     1     -23.542   5.592 -37.984  0.00  0.00    +0.000 C 
BRANCH   8  13
ATOM      9  O1  UNL     1     -21.234   6.282 -38.306  0.00  0.00    +0.000 OA
ATOM     10  N1  UNL     1     -20.464   7.448 -38.277  0.00  0.00    +0.000 NA
ATOM     11  C1  UNL     1     -21.358   8.391 -37.971  0.00  0.00    +0.000 A 
ATOM     12  N2  UNL     1     -22.642   7.955 -37.810  0.00  0.00    +0.000 NA
ATOM     13  C2  UNL     1     -22.514   6.660 -38.007  0.00  0.00    +0.000 A 
ENDBRANCH   8  13
ENDBRANCH   1   8
TORSDOF 3
ENDMDL
MODEL 2
REMARK VINA RESULT:    -4.207      3.220      6.120
REMARK INTER + INTRA:          -5.108
REMARK INTER:                  -4.959
REMARK INTRA:                  -0.149
REMARK UNBOUND:                -0.164
REMARK  Name = /home/anacleto/Desktop/manuscript_Mpro/naturecomm/supplementary_file_S2/6-chemical-library/molecular_docking/3D_ligand_structure/1031.pdb
REMARK  3 active torsions:
REMARK  status: ('A' for Active; 'I' for Inactive)
REMARK    1  A    between atoms: C2_5  and  C3_6
REMARK    2  A    between atoms: C3_6  and  S1_7
REMARK    3  A    between atoms: S1_7  and  C4_8
REMARK                            x       y       z     vdW  Elec       q    Type
REMARK                         _______ _______ _______ _____ _____    ______ ____
ROOT
ATOM      1  S1  UNL     1     -25.032   6.538 -39.040  0.00  0.00    +0.000 S 
ENDROOT
BRANCH   1   2
ATOM      2  C4  UNL     1     -23.523   7.243 -38.403  0.00  0.00    +0.000 A 
ATOM      3  C5  UNL     1     -22.345   6.491 -38.442  0.00  0.00    +0.000 A 
ATOM      4  C6  UNL     1     -21.154   7.024 -37.945  0.00  0.00    +0.000 A 
ATOM      5  C7  UNL     1     -21.136   8.306 -37.399  0.00  0.00    +0.000 A 
ATOM      6  C8  UNL     1     -22.312   9.055 -37.346  0.00  0.00    +0.000 A 
ATOM      7  C9  UNL     1     -23.503   8.524 -37.843  0.00  0.00    +0.000 A 
ENDBRANCH   1   2
BRANCH   1   8
ATOM      8  C3  UNL     1     -24.690   4.763 -38.780  0.00  0.00    +0.000 C 
BRANCH   8  13
ATOM      9  O1  UNL     1     -25.753   2.666 -38.166  0.00  0.00    +0.000 OA
ATOM     10  N1  UNL     1     -27.037   2.137 -38.005  0.00  0.00    +0.000 NA
ATOM     11  C1  UNL     1     -27.827   3.171 -38.303  0.00  0.00    +0.000 A 
ATOM     12  N2  UNL     1     -27.183   4.329 -38.631  0.00  0.00    +0.000 NA
ATOM     13  C2  UNL     1     -25.920   3.968 -38.551  0.00  0.00    +0.000 A 
ENDBRANCH   8  13
ENDBRANCH   1   8
TORSDOF 3
ENDMDL
MODEL 3
REMARK VINA RESULT:    -4.202     17.414     18.694
REMARK INTER + INTRA:          -5.103
REMARK INTER:                  -4.950
REMARK INTRA:                  -0.153
REMARK UNBOUND:                -0.164
REMARK  Name = /home/anacleto/Desktop/manuscript_Mpro/naturecomm/supplementary_file_S2/6-chemical-library/molecular_docking/3D_ligand_structure/1031.pdb
REMARK  3 active torsions:
REMARK  status: ('A' for Active; 'I' for Inactive)
REMARK    1  A    between atoms: C2_5  and  C3_6
REMARK    2  A    between atoms: C3_6  and  S1_7
REMARK    3  A    between atoms: S1_7  and  C4_8
REMARK                            x       y       z     vdW  Elec       q    Type
REMARK                         _______ _______ _______ _____ _____    ______ ____
ROOT
ATOM      1  S1  UNL     1     -38.493  -2.378 -26.121  0.00  0.00    +0.000 S 
ENDROOT
BRANCH   1   2
ATOM      2  C4  UNL     1     -38.395  -1.083 -27.343  0.00  0.00    +0.000 A 
ATOM      3  C5  UNL     1     -37.252  -0.980 -28.143  0.00  0.00    +0.000 A 
ATOM      4  C6  UNL     1     -37.154   0.029 -29.102  0.00  0.00    +0.000 A 
ATOM      5  C7  UNL     1     -38.192   0.946 -29.260  0.00  0.00    +0.000 A 
ATOM      6  C8  UNL     1     -39.328   0.855 -28.456  0.00  0.00    +0.000 A 
ATOM      7  C9  UNL     1     -39.428  -0.154 -27.497  0.00  0.00    +0.000 A 
ENDBRANCH   1   2
BRANCH   1   8
ATOM      8  C3  UNL     1     -37.265  -1.772 -24.913  0.00  0.00    +0.000 C 
BRANCH   8  13
ATOM      9  O1  UNL     1     -34.886  -1.397 -25.239  0.00  0.00    +0.000 OA
ATOM     10  N1  UNL     1     -33.719  -2.133 -25.461  0.00  0.00    +0.000 NA
ATOM     11  C1  UNL     1     -34.159  -3.394 -25.486  0.00  0.00    +0.000 A 
ATOM     12  N2  UNL     1     -35.501  -3.553 -25.288  0.00  0.00    +0.000 NA
ATOM     13  C2  UNL     1     -35.904  -2.307 -25.159  0.00  0.00    +0.000 A 
ENDBRANCH   8  13
ENDBRANCH   1   8
TORSDOF 3
ENDMDL
MODEL 4
REMARK VINA RESULT:    -4.102     26.597     27.515
REMARK INTER + INTRA:          -4.985
REMARK INTER:                  -4.816
REMARK INTRA:                  -0.168
REMARK UNBOUND:                -0.164
REMARK  Name = /home/anacleto/Desktop/manuscript_Mpro/naturecomm/supplementary_file_S2/6-chemical-library/molecular_docking/3D_ligand_structure/1031.pdb
REMARK  3 active torsions:
REMARK  status: ('A' for Active; 'I' for Inactive)
REMARK    1  A    between atoms: C2_5  and  C3_6
REMARK    2  A    between atoms: C3_6  and  S1_7
REMARK    3  A    between atoms: S1_7  and  C4_8
REMARK                            x       y       z     vdW  Elec       q    Type
REMARK                         _______ _______ _______ _____ _____    ______ ____
ROOT
ATOM      1  S1  UNL     1     -38.804   5.219 -13.793  0.00  0.00    +0.000 S 
ENDROOT
BRANCH   1   2
ATOM      2  C4  UNL     1     -38.694   6.864 -14.474  0.00  0.00    +0.000 A 
ATOM      3  C5  UNL     1     -37.546   7.239 -15.179  0.00  0.00    +0.000 A 
ATOM      4  C6  UNL     1     -37.440   8.524 -15.716  0.00  0.00    +0.000 A 
ATOM      5  C7  UNL     1     -38.476   9.441 -15.544  0.00  0.00    +0.000 A 
ATOM      6  C8  UNL     1     -39.617   9.075 -14.830  0.00  0.00    +0.000 A 
ATOM      7  C9  UNL     1     -39.725   7.791 -14.293  0.00  0.00    +0.000 A 
ENDBRANCH   1   2
BRANCH   1   8
ATOM      8  C3  UNL     1     -37.359   4.444 -14.597  0.00  0.00    +0.000 C 
BRANCH   8  13
ATOM      9  O1  UNL     1     -37.242   2.886 -16.459  0.00  0.00    +0.000 OA
ATOM     10  N1  UNL     1     -37.637   1.584 -16.776  0.00  0.00    +0.000 NA
ATOM     11  C1  UNL     1     -38.247   1.175 -15.660  0.00  0.00    +0.000 A 
ATOM     12  N2  UNL     1     -38.278   2.082 -14.640  0.00  0.00    +0.000 NA
ATOM     13  C2  UNL     1     -37.668   3.116 -15.180  0.00  0.00    +0.000 A 
ENDBRANCH   8  13
ENDBRANCH   1   8
TORSDOF 3
ENDMDL
MODEL 5
REMARK VINA RESULT:    -4.096     17.812     18.903
REMARK INTER + INTRA:          -4.978
REMARK INTER:                  -4.763
REMARK INTRA:                  -0.215
REMARK UNBOUND:                -0.164
REMARK  Name = /home/anacleto/Desktop/manuscript_Mpro/naturecomm/supplementary_file_S2/6-chemical-library/molecular_docking/3D_ligand_structure/1031.pdb
REMARK  3 active torsions:
REMARK  status: ('A' for Active; 'I' for Inactive)
REMARK    1  A    between atoms: C2_5  and  C3_6
REMARK    2  A    between atoms: C3_6  and  S1_7
REMARK    3  A    between atoms: S1_7  and  C4_8
REMARK                            x       y       z     vdW  Elec       q    Type
REMARK                         _______ _______ _______ _____ _____    ______ ____
ROOT
ATOM      1  S1  UNL     1     -37.934  -2.204 -25.605  0.00  0.00    +0.000 S 
ENDROOT
BRANCH   1   2
ATOM      2  C4  UNL     1     -36.305  -2.916 -25.461  0.00  0.00    +0.000 A 
ATOM      3  C5  UNL     1     -35.184  -2.121 -25.723  0.00  0.00    +0.000 A 
ATOM      4  C6  UNL     1     -33.900  -2.661 -25.620  0.00  0.00    +0.000 A 
ATOM      5  C7  UNL     1     -33.731  -3.998 -25.265  0.00  0.00    +0.000 A 
ATOM      6  C8  UNL     1     -34.846  -4.797 -25.015  0.00  0.00    +0.000 A 
ATOM      7  C9  UNL     1     -36.130  -4.259 -25.117  0.00  0.00    +0.000 A 
ENDBRANCH   1   2
BRANCH   1   8
ATOM      8  C3  UNL     1     -38.171  -2.311 -27.412  0.00  0.00    +0.000 C 
BRANCH   8  13
ATOM      9  O1  UNL     1     -36.965  -0.480 -28.459  0.00  0.00    +0.000 OA
ATOM     10  N1  UNL     1     -37.227   0.756 -29.056  0.00  0.00    +0.000 NA
ATOM     11  C1  UNL     1     -38.555   0.858 -28.967  0.00  0.00    +0.000 A 
ATOM     12  N2  UNL     1     -39.188  -0.201 -28.380  0.00  0.00    +0.000 NA
ATOM     13  C2  UNL     1     -38.176  -0.983 -28.071  0.00  0.00    +0.000 A 
ENDBRANCH   8  13
ENDBRANCH   1   8
TORSDOF 3
ENDMDL
MODEL 6
REMARK VINA RESULT:    -4.039      1.857      2.472
REMARK INTER + INTRA:          -4.912
REMARK INTER:                  -4.749
REMARK INTRA:                  -0.163
REMARK UNBOUND:                -0.164
REMARK  Name = /home/anacleto/Desktop/manuscript_Mpro/naturecomm/supplementary_file_S2/6-chemical-library/molecular_docking/3D_ligand_structure/1031.pdb
REMARK  3 active torsions:
REMARK  status: ('A' for Active; 'I' for Inactive)
REMARK    1  A    between atoms: C2_5  and  C3_6
REMARK    2  A    between atoms: C3_6  and  S1_7
REMARK    3  A    between atoms: S1_7  and  C4_8
REMARK                            x       y       z     vdW  Elec       q    Type
REMARK                         _______ _______ _______ _____ _____    ______ ____
ROOT
ATOM      1  S1  UNL     1     -23.522   6.656 -39.982  0.00  0.00    +0.000 S 
ENDROOT
BRANCH   1   2
ATOM      2  C4  UNL     1     -24.356   5.085 -39.855  0.00  0.00    +0.000 A 
ATOM      3  C5  UNL     1     -24.559   4.321 -41.008  0.00  0.00    +0.000 A 
ATOM      4  C6  UNL     1     -25.214   3.090 -40.930  0.00  0.00    +0.000 A 
ATOM      5  C7  UNL     1     -25.676   2.622 -39.701  0.00  0.00    +0.000 A 
ATOM      6  C8  UNL     1     -25.488   3.387 -38.550  0.00  0.00    +0.000 A 
ATOM      7  C9  UNL     1     -24.833   4.617 -38.627  0.00  0.00    +0.000 A 
ENDBRANCH   1   2
BRANCH   1   8
ATOM      8  C3  UNL     1     -22.411   6.546 -38.536  0.00  0.00    +0.000 C 
BRANCH   8  13
ATOM      9  O1  UNL     1     -23.415   8.583 -37.671  0.00  0.00    +0.000 OA
ATOM     10  N1  UNL     1     -23.044   9.726 -36.958  0.00  0.00    +0.000 NA
ATOM     11  C1  UNL     1     -21.739   9.537 -36.745  0.00  0.00    +0.000 A 
ATOM     12  N2  UNL     1     -21.224   8.373 -37.242  0.00  0.00    +0.000 NA
ATOM     13  C2  UNL     1     -22.280   7.833 -37.813  0.00  0.00    +0.000 A 
ENDBRANCH   8  13
ENDBRANCH   1   8
TORSDOF 3
ENDMDL
MODEL 7
REMARK VINA RESULT:    -3.811     13.665     14.676
REMARK INTER + INTRA:          -4.643
REMARK INTER:                  -4.483
REMARK INTRA:                  -0.160
REMARK UNBOUND:                -0.164
REMARK  Name = /home/anacleto/Desktop/manuscript_Mpro/naturecomm/supplementary_file_S2/6-chemical-library/molecular_docking/3D_ligand_structure/1031.pdb
REMARK  3 active torsions:
REMARK  status: ('A' for Active; 'I' for Inactive)
REMARK    1  A    between atoms: C2_5  and  C3_6
REMARK    2  A    between atoms: C3_6  and  S1_7
REMARK    3  A    between atoms: S1_7  and  C4_8
REMARK                            x       y       z     vdW  Elec       q    Type
REMARK                         _______ _______ _______ _____ _____    ______ ____
ROOT
ATOM      1  S1  UNL     1     -23.778  -3.630 -28.693  0.00  0.00    +0.000 S 
ENDROOT
BRANCH   1   2
ATOM      2  C4  UNL     1     -25.384  -3.990 -28.007  0.00  0.00    +0.000 A 
ATOM      3  C5  UNL     1     -26.524  -3.447 -28.609  0.00  0.00    +0.000 A 
ATOM      4  C6  UNL     1     -27.790  -3.714 -28.085  0.00  0.00    +0.000 A 
ATOM      5  C7  UNL     1     -27.922  -4.517 -26.953  0.00  0.00    +0.000 A 
ATOM      6  C8  UNL     1     -26.787  -5.050 -26.342  0.00  0.00    +0.000 A 
ATOM      7  C9  UNL     1     -25.521  -4.784 -26.865  0.00  0.00    +0.000 A 
ENDBRANCH   1   2
BRANCH   1   8
ATOM      8  C3  UNL     1     -22.915  -5.198 -28.329  0.00  0.00    +0.000 C 
BRANCH   8  13
ATOM      9  O1  UNL     1     -20.972  -3.746 -28.192  0.00  0.00    +0.000 OA
ATOM     10  N1  UNL     1     -19.619  -3.818 -27.850  0.00  0.00    +0.000 NA
ATOM     11  C1  UNL     1     -19.459  -5.103 -27.523  0.00  0.00    +0.000 A 
ATOM     12  N2  UNL     1     -20.582  -5.875 -27.606  0.00  0.00    +0.000 NA
ATOM     13  C2  UNL     1     -21.475  -5.008 -28.035  0.00  0.00    +0.000 A 
ENDBRANCH   8  13
ENDBRANCH   1   8
TORSDOF 3
ENDMDL
MODEL 8
REMARK VINA RESULT:    -3.761     13.735     15.144
REMARK INTER + INTRA:          -4.584
REMARK INTER:                  -4.420
REMARK INTRA:                  -0.164
REMARK UNBOUND:                -0.164
REMARK  Name = /home/anacleto/Desktop/manuscript_Mpro/naturecomm/supplementary_file_S2/6-chemical-library/molecular_docking/3D_ligand_structure/1031.pdb
REMARK  3 active torsions:
REMARK  status: ('A' for Active; 'I' for Inactive)
REMARK    1  A    between atoms: C2_5  and  C3_6
REMARK    2  A    between atoms: C3_6  and  S1_7
REMARK    3  A    between atoms: S1_7  and  C4_8
REMARK                            x       y       z     vdW  Elec       q    Type
REMARK                         _______ _______ _______ _____ _____    ______ ____
ROOT
ATOM      1  S1  UNL     1     -23.641  -5.122 -29.706  0.00  0.00    +0.000 S 
ENDROOT
BRANCH   1   2
ATOM      2  C4  UNL     1     -22.013  -5.164 -28.979  0.00  0.00    +0.000 A 
ATOM      3  C5  UNL     1     -21.847  -4.774 -27.646  0.00  0.00    +0.000 A 
ATOM      4  C6  UNL     1     -20.580  -4.796 -27.061  0.00  0.00    +0.000 A 
ATOM      5  C7  UNL     1     -19.472  -5.198 -27.806  0.00  0.00    +0.000 A 
ATOM      6  C8  UNL     1     -19.632  -5.575 -29.139  0.00  0.00    +0.000 A 
ATOM      7  C9  UNL     1     -20.898  -5.555 -29.726  0.00  0.00    +0.000 A 
ENDBRANCH   1   2
BRANCH   1   8
ATOM      8  C3  UNL     1     -24.339  -3.672 -28.843  0.00  0.00    +0.000 C 
BRANCH   8  13
ATOM      9  O1  UNL     1     -26.657  -2.943 -28.887  0.00  0.00    +0.000 OA
ATOM     10  N1  UNL     1     -27.902  -3.342 -28.395  0.00  0.00    +0.000 NA
ATOM     11  C1  UNL     1     -27.614  -4.456 -27.716  0.00  0.00    +0.000 A 
ATOM     12  N2  UNL     1     -26.300  -4.830 -27.729  0.00  0.00    +0.000 NA
ATOM     13  C2  UNL     1     -25.753  -3.867 -28.441  0.00  0.00    +0.000 A 
ENDBRANCH   8  13
ENDBRANCH   1   8
TORSDOF 3
ENDMDL
MODEL 9
REMARK VINA RESULT:    -3.743     14.847     15.837
REMARK INTER + INTRA:          -4.563
REMARK INTER:                  -4.331
REMARK INTRA:                  -0.232
REMARK UNBOUND:                -0.164
REMARK  Name = /home/anacleto/Desktop/manuscript_Mpro/naturecomm/supplementary_file_S2/6-chemical-library/molecular_docking/3D_ligand_structure/1031.pdb
REMARK  3 active torsions:
REMARK  status: ('A' for Active; 'I' for Inactive)
REMARK    1  A    between atoms: C2_5  and  C3_6
REMARK    2  A    between atoms: C3_6  and  S1_7
REMARK    3  A    between atoms: S1_7  and  C4_8
REMARK                            x       y       z     vdW  Elec       q    Type
REMARK                         _______ _______ _______ _____ _____    ______ ____
ROOT
ATOM      1  S1  UNL     1     -23.982  -5.951 -27.084  0.00  0.00    +0.000 S 
ENDROOT
BRANCH   1   2
ATOM      2  C4  UNL     1     -25.495  -5.052 -27.371  0.00  0.00    +0.000 A 
ATOM      3  C5  UNL     1     -26.656  -5.427 -26.688  0.00  0.00    +0.000 A 
ATOM      4  C6  UNL     1     -27.851  -4.738 -26.903  0.00  0.00    +0.000 A 
ATOM      5  C7  UNL     1     -27.894  -3.677 -27.806  0.00  0.00    +0.000 A 
ATOM      6  C8  UNL     1     -26.741  -3.308 -28.499  0.00  0.00    +0.000 A 
ATOM      7  C9  UNL     1     -25.545  -3.996 -28.286  0.00  0.00    +0.000 A 
ENDBRANCH   1   2
BRANCH   1   8
ATOM      8  C3  UNL     1     -22.882  -4.578 -26.595  0.00  0.00    +0.000 C 
BRANCH   8  13
ATOM      9  O1  UNL     1     -23.941  -3.264 -24.847  0.00  0.00    +0.000 OA
ATOM     10  N1  UNL     1     -23.886  -3.107 -23.460  0.00  0.00    +0.000 NA
ATOM     11  C1  UNL     1     -22.943  -3.980 -23.096  0.00  0.00    +0.000 A 
ATOM     12  N2  UNL     1     -22.386  -4.702 -24.112  0.00  0.00    +0.000 NA
ATOM     13  C2  UNL     1     -23.014  -4.218 -25.163  0.00  0.00    +0.000 A 
ENDBRANCH   8  13
ENDBRANCH   1   8
TORSDOF 3
ENDMDL
