MODEL 1
REMARK VINA RESULT:    -3.633      0.000      0.000
REMARK INTER + INTRA:          -3.936
REMARK INTER:                  -3.847
REMARK INTRA:                  -0.089
REMARK UNBOUND:                -0.090
REMARK  Name = /home/anacleto/Desktop/manuscript_Mpro/naturecomm/supplementary_file_S2/6-chemical-library/molecular_docking/3D_ligand_structure/1399.pdb
REMARK  1 active torsions:
REMARK  status: ('A' for Active; 'I' for Inactive)
REMARK    1  A    between atoms: C4_4  and  C5_5
REMARK                            x       y       z     vdW  Elec       q    Type
REMARK                         _______ _______ _______ _____ _____    ______ ____
ROOT
ATOM      1  C5  UNL     1      19.175   6.699  11.272  0.00  0.00    +0.000 A 
ATOM      2  N1  UNL     1      18.864   7.838  11.975  0.00  0.00    +0.000 NA
ATOM      3  C6  UNL     1      18.000   7.387  12.849  0.00  0.00    +0.000 A 
ATOM      4  O1  UNL     1      17.751   6.058  12.743  0.00  0.00    +0.000 OA
ATOM      5  N2  UNL     1      18.537   5.595  11.687  0.00  0.00    +0.000 NA
ENDROOT
BRANCH   1   9
ATOM      6  C1  UNL     1      19.984   5.629   9.016  0.00  0.00    +0.000 C 
ATOM      7  C2  UNL     1      19.251   6.672   8.153  0.00  0.00    +0.000 C 
ATOM      8  C3  UNL     1      19.932   7.773   8.988  0.00  0.00    +0.000 C 
ATOM      9  C4  UNL     1      20.199   6.721  10.088  0.00  0.00    +0.000 C 
ENDBRANCH   1   9
TORSDOF 1
ENDMDL
MODEL 2
REMARK VINA RESULT:    -3.596     15.948     17.167
REMARK INTER + INTRA:          -3.897
REMARK INTER:                  -3.803
REMARK INTRA:                  -0.094
REMARK UNBOUND:                -0.090
REMARK  Name = /home/anacleto/Desktop/manuscript_Mpro/naturecomm/supplementary_file_S2/6-chemical-library/molecular_docking/3D_ligand_structure/1399.pdb
REMARK  1 active torsions:
REMARK  status: ('A' for Active; 'I' for Inactive)
REMARK    1  A    between atoms: C4_4  and  C5_5
REMARK                            x       y       z     vdW  Elec       q    Type
REMARK                         _______ _______ _______ _____ _____    ______ ____
ROOT
ATOM      1  C5  UNL     1      15.352  11.347  -4.815  0.00  0.00    +0.000 A 
ATOM      2  N1  UNL     1      16.641  11.027  -5.170  0.00  0.00    +0.000 NA
ATOM      3  C6  UNL     1      17.105  10.512  -4.059  0.00  0.00    +0.000 A 
ATOM      4  O1  UNL     1      16.206  10.487  -3.044  0.00  0.00    +0.000 OA
ATOM      5  N2  UNL     1      15.031  11.047  -3.548  0.00  0.00    +0.000 NA
ENDROOT
BRANCH   1   9
ATOM      6  C1  UNL     1      14.437  11.449  -7.273  0.00  0.00    +0.000 C 
ATOM      7  C2  UNL     1      13.220  10.561  -6.953  0.00  0.00    +0.000 C 
ATOM      8  C3  UNL     1      12.903  11.501  -5.775  0.00  0.00    +0.000 C 
ATOM      9  C4  UNL     1      14.362  12.006  -5.833  0.00  0.00    +0.000 C 
ENDBRANCH   1   9
TORSDOF 1
ENDMDL
MODEL 3
REMARK VINA RESULT:    -3.329     14.963     16.130
REMARK INTER + INTRA:          -3.614
REMARK INTER:                  -3.606
REMARK INTRA:                  -0.008
REMARK UNBOUND:                -0.090
REMARK  Name = /home/anacleto/Desktop/manuscript_Mpro/naturecomm/supplementary_file_S2/6-chemical-library/molecular_docking/3D_ligand_structure/1399.pdb
REMARK  1 active torsions:
REMARK  status: ('A' for Active; 'I' for Inactive)
REMARK    1  A    between atoms: C4_4  and  C5_5
REMARK                            x       y       z     vdW  Elec       q    Type
REMARK                         _______ _______ _______ _____ _____    ______ ____
ROOT
ATOM      1  C5  UNL     1      15.297  11.467  -3.644  0.00  0.00    +0.000 A 
ATOM      2  N1  UNL     1      15.950  10.549  -2.857  0.00  0.00    +0.000 NA
ATOM      3  C6  UNL     1      16.095  11.210  -1.737  0.00  0.00    +0.000 A 
ATOM      4  O1  UNL     1      15.582  12.465  -1.765  0.00  0.00    +0.000 OA
ATOM      5  N2  UNL     1      15.047  12.640  -3.042  0.00  0.00    +0.000 NA
ENDROOT
BRANCH   1   9
ATOM      6  C1  UNL     1      13.514  10.446  -5.277  0.00  0.00    +0.000 C 
ATOM      7  C2  UNL     1      12.901  11.818  -5.612  0.00  0.00    +0.000 C 
ATOM      8  C3  UNL     1      14.320  12.320  -5.938  0.00  0.00    +0.000 C 
ATOM      9  C4  UNL     1      14.886  11.139  -5.118  0.00  0.00    +0.000 C 
ENDBRANCH   1   9
TORSDOF 1
ENDMDL
MODEL 4
REMARK VINA RESULT:    -3.271      7.040      7.840
REMARK INTER + INTRA:          -3.552
REMARK INTER:                  -3.461
REMARK INTRA:                  -0.092
REMARK UNBOUND:                -0.090
REMARK  Name = /home/anacleto/Desktop/manuscript_Mpro/naturecomm/supplementary_file_S2/6-chemical-library/molecular_docking/3D_ligand_structure/1399.pdb
REMARK  1 active torsions:
REMARK  status: ('A' for Active; 'I' for Inactive)
REMARK    1  A    between atoms: C4_4  and  C5_5
REMARK                            x       y       z     vdW  Elec       q    Type
REMARK                         _______ _______ _______ _____ _____    ______ ____
ROOT
ATOM      1  C5  UNL     1      14.379   0.744   8.325  0.00  0.00    +0.000 A 
ATOM      2  N1  UNL     1      14.246  -0.485   8.925  0.00  0.00    +0.000 NA
ATOM      3  C6  UNL     1      13.043  -0.406   9.435  0.00  0.00    +0.000 A 
ATOM      4  O1  UNL     1      12.418   0.774   9.196  0.00  0.00    +0.000 OA
ATOM      5  N2  UNL     1      13.312   1.546   8.452  0.00  0.00    +0.000 NA
ENDROOT
BRANCH   1   9
ATOM      6  C1  UNL     1      16.071   2.635   7.655  0.00  0.00    +0.000 C 
ATOM      7  C2  UNL     1      17.067   2.264   8.769  0.00  0.00    +0.000 C 
ATOM      8  C3  UNL     1      17.013   0.808   8.269  0.00  0.00    +0.000 C 
ATOM      9  C4  UNL     1      15.684   1.143   7.556  0.00  0.00    +0.000 C 
ENDBRANCH   1   9
TORSDOF 1
ENDMDL
MODEL 5
REMARK VINA RESULT:    -3.192     17.052     17.934
REMARK INTER + INTRA:          -3.468
REMARK INTER:                  -3.387
REMARK INTRA:                  -0.082
REMARK UNBOUND:                -0.090
REMARK  Name = /home/anacleto/Desktop/manuscript_Mpro/naturecomm/supplementary_file_S2/6-chemical-library/molecular_docking/3D_ligand_structure/1399.pdb
REMARK  1 active torsions:
REMARK  status: ('A' for Active; 'I' for Inactive)
REMARK    1  A    between atoms: C4_4  and  C5_5
REMARK                            x       y       z     vdW  Elec       q    Type
REMARK                         _______ _______ _______ _____ _____    ______ ____
ROOT
ATOM      1  C5  UNL     1      15.197  11.416  -6.210  0.00  0.00    +0.000 A 
ATOM      2  N1  UNL     1      14.667  10.959  -5.027  0.00  0.00    +0.000 NA
ATOM      3  C6  UNL     1      13.448  10.642  -5.384  0.00  0.00    +0.000 A 
ATOM      4  O1  UNL     1      13.180  10.864  -6.695  0.00  0.00    +0.000 OA
ATOM      5  N2  UNL     1      14.351  11.383  -7.250  0.00  0.00    +0.000 NA
ENDROOT
BRANCH   1   9
ATOM      6  C1  UNL     1      17.570  11.555  -5.099  0.00  0.00    +0.000 C 
ATOM      7  C2  UNL     1      18.123  10.373  -5.918  0.00  0.00    +0.000 C 
ATOM      8  C3  UNL     1      17.620  11.080  -7.190  0.00  0.00    +0.000 C 
ATOM      9  C4  UNL     1      16.675  11.923  -6.304  0.00  0.00    +0.000 C 
ENDBRANCH   1   9
TORSDOF 1
ENDMDL
MODEL 6
REMARK VINA RESULT:    -3.178     10.400     11.412
REMARK INTER + INTRA:          -3.454
REMARK INTER:                  -3.364
REMARK INTRA:                  -0.090
REMARK UNBOUND:                -0.090
REMARK  Name = /home/anacleto/Desktop/manuscript_Mpro/naturecomm/supplementary_file_S2/6-chemical-library/molecular_docking/3D_ligand_structure/1399.pdb
REMARK  1 active torsions:
REMARK  status: ('A' for Active; 'I' for Inactive)
REMARK    1  A    between atoms: C4_4  and  C5_5
REMARK                            x       y       z     vdW  Elec       q    Type
REMARK                         _______ _______ _______ _____ _____    ______ ____
ROOT
ATOM      1  C5  UNL     1      24.135  16.174  10.363  0.00  0.00    +0.000 A 
ATOM      2  N1  UNL     1      25.001  15.177   9.982  0.00  0.00    +0.000 NA
ATOM      3  C6  UNL     1      25.895  15.845   9.297  0.00  0.00    +0.000 A 
ATOM      4  O1  UNL     1      25.652  17.177   9.224  0.00  0.00    +0.000 OA
ATOM      5  N2  UNL     1      24.473  17.400   9.938  0.00  0.00    +0.000 NA
ENDROOT
BRANCH   1   9
ATOM      6  C1  UNL     1      23.125  15.021  12.494  0.00  0.00    +0.000 C 
ATOM      7  C2  UNL     1      23.144  16.322  13.318  0.00  0.00    +0.000 C 
ATOM      8  C3  UNL     1      22.399  17.011  12.159  0.00  0.00    +0.000 C 
ATOM      9  C4  UNL     1      22.867  15.870  11.229  0.00  0.00    +0.000 C 
ENDBRANCH   1   9
TORSDOF 1
ENDMDL
MODEL 7
REMARK VINA RESULT:    -3.159     16.000     17.041
REMARK INTER + INTRA:          -3.434
REMARK INTER:                  -3.345
REMARK INTRA:                  -0.089
REMARK UNBOUND:                -0.090
REMARK  Name = /home/anacleto/Desktop/manuscript_Mpro/naturecomm/supplementary_file_S2/6-chemical-library/molecular_docking/3D_ligand_structure/1399.pdb
REMARK  1 active torsions:
REMARK  status: ('A' for Active; 'I' for Inactive)
REMARK    1  A    between atoms: C4_4  and  C5_5
REMARK                            x       y       z     vdW  Elec       q    Type
REMARK                         _______ _______ _______ _____ _____    ______ ____
ROOT
ATOM      1  C5  UNL     1      14.766  11.033  -4.999  0.00  0.00    +0.000 A 
ATOM      2  N1  UNL     1      15.233  11.482  -6.211  0.00  0.00    +0.000 NA
ATOM      3  C6  UNL     1      14.195  11.292  -6.986  0.00  0.00    +0.000 A 
ATOM      4  O1  UNL     1      13.120  10.762  -6.350  0.00  0.00    +0.000 OA
ATOM      5  N2  UNL     1      13.501  10.588  -5.018  0.00  0.00    +0.000 NA
ENDROOT
BRANCH   1   9
ATOM      6  C1  UNL     1      16.883  12.002  -3.789  0.00  0.00    +0.000 C 
ATOM      7  C2  UNL     1      16.070  13.054  -3.011  0.00  0.00    +0.000 C 
ATOM      8  C3  UNL     1      15.137  11.920  -2.546  0.00  0.00    +0.000 C 
ATOM      9  C4  UNL     1      15.662  11.058  -3.716  0.00  0.00    +0.000 C 
ENDBRANCH   1   9
TORSDOF 1
ENDMDL
MODEL 8
REMARK VINA RESULT:    -3.052      8.352      9.218
REMARK INTER + INTRA:          -3.321
REMARK INTER:                  -3.231
REMARK INTRA:                  -0.089
REMARK UNBOUND:                -0.090
REMARK  Name = /home/anacleto/Desktop/manuscript_Mpro/naturecomm/supplementary_file_S2/6-chemical-library/molecular_docking/3D_ligand_structure/1399.pdb
REMARK  1 active torsions:
REMARK  status: ('A' for Active; 'I' for Inactive)
REMARK    1  A    between atoms: C4_4  and  C5_5
REMARK                            x       y       z     vdW  Elec       q    Type
REMARK                         _______ _______ _______ _____ _____    ______ ____
ROOT
ATOM      1  C5  UNL     1      14.180   0.226   8.097  0.00  0.00    +0.000 A 
ATOM      2  N1  UNL     1      13.805  -1.094   8.023  0.00  0.00    +0.000 NA
ATOM      3  C6  UNL     1      14.798  -1.617   7.348  0.00  0.00    +0.000 A 
ATOM      4  O1  UNL     1      15.759  -0.725   6.999  0.00  0.00    +0.000 OA
ATOM      5  N2  UNL     1      15.346   0.511   7.500  0.00  0.00    +0.000 NA
ENDROOT
BRANCH   1   9
ATOM      6  C1  UNL     1      12.271   0.708   9.832  0.00  0.00    +0.000 C 
ATOM      7  C2  UNL     1      13.260   1.024  10.970  0.00  0.00    +0.000 C 
ATOM      8  C3  UNL     1      13.962   2.013  10.021  0.00  0.00    +0.000 C 
ATOM      9  C4  UNL     1      13.294   1.289   8.831  0.00  0.00    +0.000 C 
ENDBRANCH   1   9
TORSDOF 1
ENDMDL
MODEL 9
REMARK VINA RESULT:    -2.895      2.075      3.810
REMARK INTER + INTRA:          -3.155
REMARK INTER:                  -3.065
REMARK INTRA:                  -0.090
REMARK UNBOUND:                -0.090
REMARK  Name = /home/anacleto/Desktop/manuscript_Mpro/naturecomm/supplementary_file_S2/6-chemical-library/molecular_docking/3D_ligand_structure/1399.pdb
REMARK  1 active torsions:
REMARK  status: ('A' for Active; 'I' for Inactive)
REMARK    1  A    between atoms: C4_4  and  C5_5
REMARK                            x       y       z     vdW  Elec       q    Type
REMARK                         _______ _______ _______ _____ _____    ______ ____
ROOT
ATOM      1  C5  UNL     1      19.627   6.872  11.175  0.00  0.00    +0.000 A 
ATOM      2  N1  UNL     1      20.972   6.896  10.894  0.00  0.00    +0.000 NA
ATOM      3  C6  UNL     1      21.075   5.947   9.998  0.00  0.00    +0.000 A 
ATOM      4  O1  UNL     1      19.900   5.337   9.701  0.00  0.00    +0.000 OA
ATOM      5  N2  UNL     1      18.929   5.955  10.489  0.00  0.00    +0.000 NA
ENDROOT
BRANCH   1   9
ATOM      6  C1  UNL     1      17.750   7.306  12.957  0.00  0.00    +0.000 C 
ATOM      7  C2  UNL     1      18.663   6.942  14.142  0.00  0.00    +0.000 C 
ATOM      8  C3  UNL     1      19.702   7.934  13.586  0.00  0.00    +0.000 C 
ATOM      9  C4  UNL     1      18.991   7.853  12.217  0.00  0.00    +0.000 C 
ENDBRANCH   1   9
TORSDOF 1
ENDMDL
