MODEL 1
REMARK VINA RESULT:    -4.586      0.000      0.000
REMARK INTER + INTRA:          -5.310
REMARK INTER:                  -5.070
REMARK INTRA:                  -0.241
REMARK UNBOUND:                -0.188
REMARK  Name = /home/anacleto/Desktop/manuscript_Mpro/naturecomm/supplementary_file_S2/6-chemical-library/molecular_docking/3D_ligand_structure/1117.pdb
REMARK  2 active torsions:
REMARK  status: ('A' for Active; 'I' for Inactive)
REMARK    1  A    between atoms: N2_6  and  C4_7
REMARK    2  A    between atoms: C4_7  and  C5_8
REMARK                            x       y       z     vdW  Elec       q    Type
REMARK                         _______ _______ _______ _____ _____    ______ ____
ROOT
ATOM      1  N1  UNL     1      14.523  15.841  -2.109  0.00  0.00    +0.000 NA
ATOM      2  O1  UNL     1      15.260  15.749  -0.943  0.00  0.00    +0.000 OA
ATOM      3  C1  UNL     1      16.147  14.732  -1.055  0.00  0.00    +0.000 A 
ATOM      4  C2  UNL     1      16.012  14.145  -2.286  0.00  0.00    +0.000 A 
ATOM      5  C3  UNL     1      14.983  14.880  -2.915  0.00  0.00    +0.000 A 
ATOM      6  N2  UNL     1      14.494  14.654  -4.156  0.00  0.00    +0.000 N 
ATOM      7  H3  UNL     1      13.857  15.374  -4.489  0.00  0.00    +0.000 HD
ENDROOT
BRANCH   6   8
ATOM      8  C4  UNL     1      15.305  14.067  -5.206  0.00  0.00    +0.000 C 
BRANCH   8   9
ATOM      9  C5  UNL     1      14.609  12.867  -5.790  0.00  0.00    +0.000 A 
ATOM     10  C6  UNL     1      15.030  12.285  -6.990  0.00  0.00    +0.000 A 
ATOM     11  C7  UNL     1      14.347  11.188  -7.505  0.00  0.00    +0.000 A 
ATOM     12  C8  UNL     1      13.254  10.709  -6.802  0.00  0.00    +0.000 A 
ATOM     13  N3  UNL     1      12.811  11.247  -5.645  0.00  0.00    +0.000 NA
ATOM     14  C9  UNL     1      13.497  12.310  -5.167  0.00  0.00    +0.000 A 
ENDBRANCH   8   9
ENDBRANCH   6   8
TORSDOF 2
ENDMDL
MODEL 2
REMARK VINA RESULT:    -4.538      3.345      5.125
REMARK INTER + INTRA:          -5.257
REMARK INTER:                  -4.971
REMARK INTRA:                  -0.286
REMARK UNBOUND:                -0.188
REMARK  Name = /home/anacleto/Desktop/manuscript_Mpro/naturecomm/supplementary_file_S2/6-chemical-library/molecular_docking/3D_ligand_structure/1117.pdb
REMARK  2 active torsions:
REMARK  status: ('A' for Active; 'I' for Inactive)
REMARK    1  A    between atoms: N2_6  and  C4_7
REMARK    2  A    between atoms: C4_7  and  C5_8
REMARK                            x       y       z     vdW  Elec       q    Type
REMARK                         _______ _______ _______ _____ _____    ______ ____
ROOT
ATOM      1  N1  UNL     1      12.367  11.434  -5.795  0.00  0.00    +0.000 NA
ATOM      2  O1  UNL     1      12.404  10.517  -6.827  0.00  0.00    +0.000 OA
ATOM      3  C1  UNL     1      13.576  10.642  -7.494  0.00  0.00    +0.000 A 
ATOM      4  C2  UNL     1      14.324  11.633  -6.915  0.00  0.00    +0.000 A 
ATOM      5  C3  UNL     1      13.525  12.098  -5.847  0.00  0.00    +0.000 A 
ATOM      6  N2  UNL     1      13.852  13.092  -4.989  0.00  0.00    +0.000 N 
ATOM      7  H3  UNL     1      13.214  13.186  -4.201  0.00  0.00    +0.000 HD
ENDROOT
BRANCH   6   8
ATOM      8  C4  UNL     1      15.231  13.399  -4.658  0.00  0.00    +0.000 C 
BRANCH   8   9
ATOM      9  C5  UNL     1      15.790  12.348  -3.740  0.00  0.00    +0.000 A 
ATOM     10  C6  UNL     1      16.796  11.468  -4.155  0.00  0.00    +0.000 A 
ATOM     11  C7  UNL     1      17.272  10.498  -3.280  0.00  0.00    +0.000 A 
ATOM     12  C8  UNL     1      16.721  10.432  -2.012  0.00  0.00    +0.000 A 
ATOM     13  N3  UNL     1      15.744  11.256  -1.575  0.00  0.00    +0.000 NA
ATOM     14  C9  UNL     1      15.303  12.192  -2.446  0.00  0.00    +0.000 A 
ENDBRANCH   8   9
ENDBRANCH   6   8
TORSDOF 2
ENDMDL
MODEL 3
REMARK VINA RESULT:    -4.534      3.227      5.976
REMARK INTER + INTRA:          -5.252
REMARK INTER:                  -5.010
REMARK INTRA:                  -0.242
REMARK UNBOUND:                -0.188
REMARK  Name = /home/anacleto/Desktop/manuscript_Mpro/naturecomm/supplementary_file_S2/6-chemical-library/molecular_docking/3D_ligand_structure/1117.pdb
REMARK  2 active torsions:
REMARK  status: ('A' for Active; 'I' for Inactive)
REMARK    1  A    between atoms: N2_6  and  C4_7
REMARK    2  A    between atoms: C4_7  and  C5_8
REMARK                            x       y       z     vdW  Elec       q    Type
REMARK                         _______ _______ _______ _____ _____    ______ ____
ROOT
ATOM      1  N1  UNL     1      13.275  10.592  -5.115  0.00  0.00    +0.000 NA
ATOM      2  O1  UNL     1      13.157  10.965  -6.441  0.00  0.00    +0.000 OA
ATOM      3  C1  UNL     1      14.320  11.525  -6.852  0.00  0.00    +0.000 A 
ATOM      4  C2  UNL     1      15.214  11.527  -5.815  0.00  0.00    +0.000 A 
ATOM      5  C3  UNL     1      14.515  10.926  -4.745  0.00  0.00    +0.000 A 
ATOM      6  N2  UNL     1      14.999  10.719  -3.499  0.00  0.00    +0.000 N 
ATOM      7  H3  UNL     1      14.399  10.145  -2.911  0.00  0.00    +0.000 HD
ENDROOT
BRANCH   6   8
ATOM      8  C4  UNL     1      16.415  10.526  -3.247  0.00  0.00    +0.000 C 
BRANCH   8   9
ATOM      9  C5  UNL     1      16.918  11.570  -2.288  0.00  0.00    +0.000 A 
ATOM     10  C6  UNL     1      18.142  11.430  -1.624  0.00  0.00    +0.000 A 
ATOM     11  C7  UNL     1      18.561  12.409  -0.730  0.00  0.00    +0.000 A 
ATOM     12  C8  UNL     1      17.736  13.501  -0.521  0.00  0.00    +0.000 A 
ATOM     13  N3  UNL     1      16.545  13.670  -1.135  0.00  0.00    +0.000 NA
ATOM     14  C9  UNL     1      16.165  12.704  -2.002  0.00  0.00    +0.000 A 
ENDBRANCH   8   9
ENDBRANCH   6   8
TORSDOF 2
ENDMDL
MODEL 4
REMARK VINA RESULT:    -4.454      2.946      5.887
REMARK INTER + INTRA:          -5.163
REMARK INTER:                  -4.894
REMARK INTRA:                  -0.269
REMARK UNBOUND:                -0.188
REMARK  Name = /home/anacleto/Desktop/manuscript_Mpro/naturecomm/supplementary_file_S2/6-chemical-library/molecular_docking/3D_ligand_structure/1117.pdb
REMARK  2 active torsions:
REMARK  status: ('A' for Active; 'I' for Inactive)
REMARK    1  A    between atoms: N2_6  and  C4_7
REMARK    2  A    between atoms: C4_7  and  C5_8
REMARK                            x       y       z     vdW  Elec       q    Type
REMARK                         _______ _______ _______ _____ _____    ______ ____
ROOT
ATOM      1  N1  UNL     1      13.224  10.388  -5.283  0.00  0.00    +0.000 NA
ATOM      2  O1  UNL     1      13.257  10.625  -6.645  0.00  0.00    +0.000 OA
ATOM      3  C1  UNL     1      14.346  11.373  -6.941  0.00  0.00    +0.000 A 
ATOM      4  C2  UNL     1      15.044  11.635  -5.792  0.00  0.00    +0.000 A 
ATOM      5  C3  UNL     1      14.303  10.991  -4.776  0.00  0.00    +0.000 A 
ATOM      6  N2  UNL     1      14.607  10.983  -3.458  0.00  0.00    +0.000 N 
ATOM      7  H3  UNL     1      14.037  10.348  -2.904  0.00  0.00    +0.000 HD
ENDROOT
BRANCH   6   8
ATOM      8  C4  UNL     1      15.974  11.097  -2.984  0.00  0.00    +0.000 C 
BRANCH   8   9
ATOM      9  C5  UNL     1      16.137  12.348  -2.166  0.00  0.00    +0.000 A 
ATOM     10  C6  UNL     1      15.492  13.542  -2.510  0.00  0.00    +0.000 A 
ATOM     11  C7  UNL     1      15.685  14.681  -1.737  0.00  0.00    +0.000 A 
ATOM     12  C8  UNL     1      16.526  14.594  -0.641  0.00  0.00    +0.000 A 
ATOM     13  N3  UNL     1      17.172  13.465  -0.279  0.00  0.00    +0.000 NA
ATOM     14  C9  UNL     1      16.963  12.372  -1.047  0.00  0.00    +0.000 A 
ENDBRANCH   8   9
ENDBRANCH   6   8
TORSDOF 2
ENDMDL
MODEL 5
REMARK VINA RESULT:    -4.394     16.033     17.304
REMARK INTER + INTRA:          -5.096
REMARK INTER:                  -4.871
REMARK INTRA:                  -0.225
REMARK UNBOUND:                -0.188
REMARK  Name = /home/anacleto/Desktop/manuscript_Mpro/naturecomm/supplementary_file_S2/6-chemical-library/molecular_docking/3D_ligand_structure/1117.pdb
REMARK  2 active torsions:
REMARK  status: ('A' for Active; 'I' for Inactive)
REMARK    1  A    between atoms: N2_6  and  C4_7
REMARK    2  A    between atoms: C4_7  and  C5_8
REMARK                            x       y       z     vdW  Elec       q    Type
REMARK                         _______ _______ _______ _____ _____    ______ ____
ROOT
ATOM      1  N1  UNL     1      15.586   2.943  10.105  0.00  0.00    +0.000 NA
ATOM      2  O1  UNL     1      14.748   2.161   9.334  0.00  0.00    +0.000 OA
ATOM      3  C1  UNL     1      15.277   2.028   8.094  0.00  0.00    +0.000 A 
ATOM      4  C2  UNL     1      16.463   2.711   8.031  0.00  0.00    +0.000 A 
ATOM      5  C3  UNL     1      16.619   3.266   9.321  0.00  0.00    +0.000 A 
ATOM      6  N2  UNL     1      17.650   4.039   9.732  0.00  0.00    +0.000 N 
ATOM      7  H3  UNL     1      17.658   4.223  10.732  0.00  0.00    +0.000 HD
ENDROOT
BRANCH   6   8
ATOM      8  C4  UNL     1      18.976   3.921   9.153  0.00  0.00    +0.000 C 
BRANCH   8   9
ATOM      9  C5  UNL     1      19.655   5.263   9.137  0.00  0.00    +0.000 A 
ATOM     10  C6  UNL     1      19.092   6.364   8.484  0.00  0.00    +0.000 A 
ATOM     11  C7  UNL     1      19.763   7.583   8.477  0.00  0.00    +0.000 A 
ATOM     12  C8  UNL     1      20.986   7.660   9.121  0.00  0.00    +0.000 A 
ATOM     13  N3  UNL     1      21.568   6.619   9.755  0.00  0.00    +0.000 NA
ATOM     14  C9  UNL     1      20.891   5.448   9.749  0.00  0.00    +0.000 A 
ENDBRANCH   8   9
ENDBRANCH   6   8
TORSDOF 2
ENDMDL
MODEL 6
REMARK VINA RESULT:    -4.378     15.852     16.690
REMARK INTER + INTRA:          -5.078
REMARK INTER:                  -4.900
REMARK INTRA:                  -0.178
REMARK UNBOUND:                -0.188
REMARK  Name = /home/anacleto/Desktop/manuscript_Mpro/naturecomm/supplementary_file_S2/6-chemical-library/molecular_docking/3D_ligand_structure/1117.pdb
REMARK  2 active torsions:
REMARK  status: ('A' for Active; 'I' for Inactive)
REMARK    1  A    between atoms: N2_6  and  C4_7
REMARK    2  A    between atoms: C4_7  and  C5_8
REMARK                            x       y       z     vdW  Elec       q    Type
REMARK                         _______ _______ _______ _____ _____    ______ ____
ROOT
ATOM      1  N1  UNL     1      19.186   6.699   8.077  0.00  0.00    +0.000 NA
ATOM      2  O1  UNL     1      19.866   7.610   8.862  0.00  0.00    +0.000 OA
ATOM      3  C1  UNL     1      19.823   7.207  10.154  0.00  0.00    +0.000 A 
ATOM      4  C2  UNL     1      19.123   6.032  10.240  0.00  0.00    +0.000 A 
ATOM      5  C3  UNL     1      18.746   5.749   8.908  0.00  0.00    +0.000 A 
ATOM      6  N2  UNL     1      18.024   4.681   8.499  0.00  0.00    +0.000 N 
ATOM      7  H3  UNL     1      17.977   4.574   7.489  0.00  0.00    +0.000 HD
ENDROOT
BRANCH   6   8
ATOM      8  C4  UNL     1      18.045   3.420   9.216  0.00  0.00    +0.000 C 
BRANCH   8   9
ATOM      9  C5  UNL     1      16.757   2.676   8.995  0.00  0.00    +0.000 A 
ATOM     10  C6  UNL     1      16.536   1.912   7.843  0.00  0.00    +0.000 A 
ATOM     11  C7  UNL     1      15.323   1.255   7.670  0.00  0.00    +0.000 A 
ATOM     12  C8  UNL     1      14.359   1.388   8.655  0.00  0.00    +0.000 A 
ATOM     13  N3  UNL     1      14.530   2.120   9.777  0.00  0.00    +0.000 NA
ATOM     14  C9  UNL     1      15.720   2.745   9.920  0.00  0.00    +0.000 A 
ENDBRANCH   8   9
ENDBRANCH   6   8
TORSDOF 2
ENDMDL
MODEL 7
REMARK VINA RESULT:    -4.244     16.037     18.023
REMARK INTER + INTRA:          -4.929
REMARK INTER:                  -4.671
REMARK INTRA:                  -0.257
REMARK UNBOUND:                -0.188
REMARK  Name = /home/anacleto/Desktop/manuscript_Mpro/naturecomm/supplementary_file_S2/6-chemical-library/molecular_docking/3D_ligand_structure/1117.pdb
REMARK  2 active torsions:
REMARK  status: ('A' for Active; 'I' for Inactive)
REMARK    1  A    between atoms: N2_6  and  C4_7
REMARK    2  A    between atoms: C4_7  and  C5_8
REMARK                            x       y       z     vdW  Elec       q    Type
REMARK                         _______ _______ _______ _____ _____    ______ ____
ROOT
ATOM      1  N1  UNL     1      16.600   8.015  14.362  0.00  0.00    +0.000 NA
ATOM      2  O1  UNL     1      15.730   7.125  14.964  0.00  0.00    +0.000 OA
ATOM      3  C1  UNL     1      15.968   5.879  14.489  0.00  0.00    +0.000 A 
ATOM      4  C2  UNL     1      16.990   5.927  13.579  0.00  0.00    +0.000 A 
ATOM      5  C3  UNL     1      17.360   7.289  13.535  0.00  0.00    +0.000 A 
ATOM      6  N2  UNL     1      18.332   7.822  12.760  0.00  0.00    +0.000 N 
ATOM      7  H3  UNL     1      18.547   8.793  12.973  0.00  0.00    +0.000 HD
ENDROOT
BRANCH   6   8
ATOM      8  C4  UNL     1      19.487   7.051  12.339  0.00  0.00    +0.000 C 
BRANCH   8   9
ATOM      9  C5  UNL     1      19.380   6.714  10.877  0.00  0.00    +0.000 A 
ATOM     10  C6  UNL     1      19.690   7.648   9.882  0.00  0.00    +0.000 A 
ATOM     11  C7  UNL     1      19.560   7.301   8.541  0.00  0.00    +0.000 A 
ATOM     12  C8  UNL     1      19.114   6.027   8.235  0.00  0.00    +0.000 A 
ATOM     13  N3  UNL     1      18.798   5.099   9.164  0.00  0.00    +0.000 NA
ATOM     14  C9  UNL     1      18.937   5.463  10.459  0.00  0.00    +0.000 A 
ENDBRANCH   8   9
ENDBRANCH   6   8
TORSDOF 2
ENDMDL
MODEL 8
REMARK VINA RESULT:    -4.133      2.448      2.554
REMARK INTER + INTRA:          -4.805
REMARK INTER:                  -4.617
REMARK INTRA:                  -0.188
REMARK UNBOUND:                -0.188
REMARK  Name = /home/anacleto/Desktop/manuscript_Mpro/naturecomm/supplementary_file_S2/6-chemical-library/molecular_docking/3D_ligand_structure/1117.pdb
REMARK  2 active torsions:
REMARK  status: ('A' for Active; 'I' for Inactive)
REMARK    1  A    between atoms: N2_6  and  C4_7
REMARK    2  A    between atoms: C4_7  and  C5_8
REMARK                            x       y       z     vdW  Elec       q    Type
REMARK                         _______ _______ _______ _____ _____    ______ ____
ROOT
ATOM      1  N1  UNL     1      17.094  13.583  -1.036  0.00  0.00    +0.000 NA
ATOM      2  O1  UNL     1      18.217  13.456  -0.241  0.00  0.00    +0.000 OA
ATOM      3  C1  UNL     1      19.061  12.558  -0.801  0.00  0.00    +0.000 A 
ATOM      4  C2  UNL     1      18.514  12.085  -1.964  0.00  0.00    +0.000 A 
ATOM      5  C3  UNL     1      17.280  12.763  -2.074  0.00  0.00    +0.000 A 
ATOM      6  N2  UNL     1      16.378  12.609  -3.071  0.00  0.00    +0.000 N 
ATOM      7  H3  UNL     1      15.619  13.286  -3.051  0.00  0.00    +0.000 HD
ENDROOT
BRANCH   6   8
ATOM      8  C4  UNL     1      16.774  12.221  -4.412  0.00  0.00    +0.000 C 
BRANCH   8   9
ATOM      9  C5  UNL     1      15.590  11.680  -5.166  0.00  0.00    +0.000 A 
ATOM     10  C6  UNL     1      15.467  11.835  -6.551  0.00  0.00    +0.000 A 
ATOM     11  C7  UNL     1      14.347  11.336  -7.207  0.00  0.00    +0.000 A 
ATOM     12  C8  UNL     1      13.376  10.700  -6.453  0.00  0.00    +0.000 A 
ATOM     13  N3  UNL     1      13.452  10.537  -5.114  0.00  0.00    +0.000 NA
ATOM     14  C9  UNL     1      14.554  11.029  -4.504  0.00  0.00    +0.000 A 
ENDBRANCH   8   9
ENDBRANCH   6   8
TORSDOF 2
ENDMDL
MODEL 9
REMARK VINA RESULT:    -4.074      2.967      6.218
REMARK INTER + INTRA:          -4.738
REMARK INTER:                  -4.575
REMARK INTRA:                  -0.163
REMARK UNBOUND:                -0.188
REMARK  Name = /home/anacleto/Desktop/manuscript_Mpro/naturecomm/supplementary_file_S2/6-chemical-library/molecular_docking/3D_ligand_structure/1117.pdb
REMARK  2 active torsions:
REMARK  status: ('A' for Active; 'I' for Inactive)
REMARK    1  A    between atoms: N2_6  and  C4_7
REMARK    2  A    between atoms: C4_7  and  C5_8
REMARK                            x       y       z     vdW  Elec       q    Type
REMARK                         _______ _______ _______ _____ _____    ______ ____
ROOT
ATOM      1  N1  UNL     1      14.244  13.058  -4.829  0.00  0.00    +0.000 NA
ATOM      2  O1  UNL     1      13.454  12.149  -5.507  0.00  0.00    +0.000 OA
ATOM      3  C1  UNL     1      13.720  10.901  -5.053  0.00  0.00    +0.000 A 
ATOM      4  C2  UNL     1      14.677  10.968  -4.075  0.00  0.00    +0.000 A 
ATOM      5  C3  UNL     1      14.972  12.345  -3.965  0.00  0.00    +0.000 A 
ATOM      6  N2  UNL     1      15.877  12.897  -3.124  0.00  0.00    +0.000 N 
ATOM      7  H3  UNL     1      15.845  13.913  -3.088  0.00  0.00    +0.000 HD
ENDROOT
BRANCH   6   8
ATOM      8  C4  UNL     1      16.220  12.282  -1.854  0.00  0.00    +0.000 C 
BRANCH   8   9
ATOM      9  C5  UNL     1      17.257  13.107  -1.143  0.00  0.00    +0.000 A 
ATOM     10  C6  UNL     1      18.546  12.619  -0.901  0.00  0.00    +0.000 A 
ATOM     11  C7  UNL     1      19.469  13.407  -0.223  0.00  0.00    +0.000 A 
ATOM     12  C8  UNL     1      19.071  14.663   0.202  0.00  0.00    +0.000 A 
ATOM     13  N3  UNL     1      17.836  15.167  -0.004  0.00  0.00    +0.000 NA
ATOM     14  C9  UNL     1      16.960  14.381  -0.669  0.00  0.00    +0.000 A 
ENDBRANCH   8   9
ENDBRANCH   6   8
TORSDOF 2
ENDMDL
