MODEL 1
REMARK VINA RESULT:    -4.138      0.000      0.000
REMARK INTER + INTRA:          -4.988
REMARK INTER:                  -4.864
REMARK INTRA:                  -0.124
REMARK UNBOUND:                -0.124
REMARK  Name = /home/anacleto/Desktop/manuscript_Mpro/naturecomm/supplementary_file_S2/6-chemical-library/molecular_docking/3D_ligand_structure/1375.pdb
REMARK  3 active torsions:
REMARK  status: ('A' for Active; 'I' for Inactive)
REMARK    1  A    between atoms: C3_3  and  N1_4
REMARK    2  A    between atoms: N1_4  and  C4_5
REMARK    3  A    between atoms: C4_5  and  C5_6
REMARK                            x       y       z     vdW  Elec       q    Type
REMARK                         _______ _______ _______ _____ _____    ______ ____
ROOT
ATOM      1  C4  UNL     1     -37.551   4.789 -14.499  0.00  0.00    +0.000 C 
ENDROOT
BRANCH   1   2
ATOM      2  C5  UNL     1     -37.630   3.486 -15.224  0.00  0.00    +0.000 A 
ATOM      3  N2  UNL     1     -38.081   2.336 -14.765  0.00  0.00    +0.000 NA
ATOM      4  C6  UNL     1     -37.953   1.447 -15.801  0.00  0.00    +0.000 A 
ATOM      5  C7  UNL     1     -37.414   2.060 -16.906  0.00  0.00    +0.000 A 
ATOM      6  N3  UNL     1     -37.212   3.357 -16.527  0.00  0.00    +0.000 N 
ATOM      7  H11 UNL     1     -36.801   4.101 -17.075  0.00  0.00    +0.000 HD
ENDBRANCH   1   2
BRANCH   1   8
ATOM      8  N1  UNL     1     -37.401   5.899 -15.451  0.00  0.00    +0.000 NA
ATOM      9  H6  UNL     1     -36.410   5.954 -15.695  0.00  0.00    +0.000 HD
BRANCH   8  12
ATOM     10  C1  UNL     1     -37.534   8.448 -15.608  0.00  0.00    +0.000 C 
ATOM     11  C2  UNL     1     -36.877   8.137 -14.293  0.00  0.00    +0.000 C 
ATOM     12  C3  UNL     1     -37.864   7.171 -14.886  0.00  0.00    +0.000 C 
ENDBRANCH   8  12
ENDBRANCH   1   8
TORSDOF 3
ENDMDL
MODEL 2
REMARK VINA RESULT:    -3.869      1.042      4.909
REMARK INTER + INTRA:          -4.672
REMARK INTER:                  -4.551
REMARK INTRA:                  -0.121
REMARK UNBOUND:                -0.124
REMARK  Name = /home/anacleto/Desktop/manuscript_Mpro/naturecomm/supplementary_file_S2/6-chemical-library/molecular_docking/3D_ligand_structure/1375.pdb
REMARK  3 active torsions:
REMARK  status: ('A' for Active; 'I' for Inactive)
REMARK    1  A    between atoms: C3_3  and  N1_4
REMARK    2  A    between atoms: N1_4  and  C4_5
REMARK    3  A    between atoms: C4_5  and  C5_6
REMARK                            x       y       z     vdW  Elec       q    Type
REMARK                         _______ _______ _______ _____ _____    ______ ____
ROOT
ATOM      1  C4  UNL     1     -37.588   3.548 -14.808  0.00  0.00    +0.000 C 
ENDROOT
BRANCH   1   2
ATOM      2  C5  UNL     1     -37.791   4.999 -14.521  0.00  0.00    +0.000 A 
ATOM      3  N2  UNL     1     -38.277   5.542 -13.423  0.00  0.00    +0.000 NA
ATOM      4  C6  UNL     1     -38.259   6.895 -13.638  0.00  0.00    +0.000 A 
ATOM      5  C7  UNL     1     -37.760   7.185 -14.885  0.00  0.00    +0.000 A 
ATOM      6  N3  UNL     1     -37.465   5.971 -15.438  0.00  0.00    +0.000 N 
ATOM      7  H11 UNL     1     -37.103   5.787 -16.364  0.00  0.00    +0.000 HD
ENDBRANCH   1   2
BRANCH   1   8
ATOM      8  N1  UNL     1     -37.365   3.334 -16.245  0.00  0.00    +0.000 NA
ATOM      9  H6  UNL     1     -38.037   3.922 -16.745  0.00  0.00    +0.000 HD
BRANCH   8  12
ATOM     10  C1  UNL     1     -36.663   1.358 -17.708  0.00  0.00    +0.000 C 
ATOM     11  C2  UNL     1     -38.130   1.567 -17.952  0.00  0.00    +0.000 C 
ATOM     12  C3  UNL     1     -37.532   1.927 -16.621  0.00  0.00    +0.000 C 
ENDBRANCH   8  12
ENDBRANCH   1   8
TORSDOF 3
ENDMDL
MODEL 3
REMARK VINA RESULT:    -3.714     28.307     29.350
REMARK INTER + INTRA:          -4.489
REMARK INTER:                  -4.279
REMARK INTRA:                  -0.210
REMARK UNBOUND:                -0.124
REMARK  Name = /home/anacleto/Desktop/manuscript_Mpro/naturecomm/supplementary_file_S2/6-chemical-library/molecular_docking/3D_ligand_structure/1375.pdb
REMARK  3 active torsions:
REMARK  status: ('A' for Active; 'I' for Inactive)
REMARK    1  A    between atoms: C3_3  and  N1_4
REMARK    2  A    between atoms: N1_4  and  C4_5
REMARK    3  A    between atoms: C4_5  and  C5_6
REMARK                            x       y       z     vdW  Elec       q    Type
REMARK                         _______ _______ _______ _____ _____    ______ ____
ROOT
ATOM      1  C4  UNL     1     -21.128   9.843 -37.209  0.00  0.00    +0.000 C 
ENDROOT
BRANCH   1   2
ATOM      2  C5  UNL     1     -19.988  10.272 -38.071  0.00  0.00    +0.000 A 
ATOM      3  N2  UNL     1     -20.020  11.110 -39.089  0.00  0.00    +0.000 NA
ATOM      4  C6  UNL     1     -18.731  11.184 -39.548  0.00  0.00    +0.000 A 
ATOM      5  C7  UNL     1     -17.901  10.380 -38.807  0.00  0.00    +0.000 A 
ATOM      6  N3  UNL     1     -18.712   9.804 -37.870  0.00  0.00    +0.000 N 
ATOM      7  H11 UNL     1     -18.453   9.127 -37.164  0.00  0.00    +0.000 HD
ENDBRANCH   1   2
BRANCH   1   8
ATOM      8  N1  UNL     1     -21.079   8.392 -36.975  0.00  0.00    +0.000 NA
ATOM      9  H6  UNL     1     -20.092   8.125 -36.950  0.00  0.00    +0.000 HD
BRANCH   8  12
ATOM     10  C1  UNL     1     -21.953   6.158 -37.860  0.00  0.00    +0.000 C 
ATOM     11  C2  UNL     1     -21.037   6.706 -38.918  0.00  0.00    +0.000 C 
ATOM     12  C3  UNL     1     -21.789   7.645 -38.017  0.00  0.00    +0.000 C 
ENDBRANCH   8  12
ENDBRANCH   1   8
TORSDOF 3
ENDMDL
MODEL 4
REMARK VINA RESULT:    -3.607     30.386     31.277
REMARK INTER + INTRA:          -4.364
REMARK INTER:                  -4.256
REMARK INTRA:                  -0.108
REMARK UNBOUND:                -0.124
REMARK  Name = /home/anacleto/Desktop/manuscript_Mpro/naturecomm/supplementary_file_S2/6-chemical-library/molecular_docking/3D_ligand_structure/1375.pdb
REMARK  3 active torsions:
REMARK  status: ('A' for Active; 'I' for Inactive)
REMARK    1  A    between atoms: C3_3  and  N1_4
REMARK    2  A    between atoms: N1_4  and  C4_5
REMARK    3  A    between atoms: C4_5  and  C5_6
REMARK                            x       y       z     vdW  Elec       q    Type
REMARK                         _______ _______ _______ _____ _____    ______ ____
ROOT
ATOM      1  C4  UNL     1     -17.987   8.711 -38.956  0.00  0.00    +0.000 C 
ENDROOT
BRANCH   1   2
ATOM      2  C5  UNL     1     -16.775   9.479 -39.367  0.00  0.00    +0.000 A 
ATOM      3  N2  UNL     1     -16.728  10.592 -40.072  0.00  0.00    +0.000 NA
ATOM      4  C6  UNL     1     -15.398  10.908 -40.178  0.00  0.00    +0.000 A 
ATOM      5  C7  UNL     1     -14.622   9.976 -39.534  0.00  0.00    +0.000 A 
ATOM      6  N3  UNL     1     -15.508   9.072 -39.021  0.00  0.00    +0.000 N 
ATOM      7  H11 UNL     1     -15.298   8.227 -38.505  0.00  0.00    +0.000 HD
ENDBRANCH   1   2
BRANCH   1   8
ATOM      8  N1  UNL     1     -18.783   9.482 -37.990  0.00  0.00    +0.000 NA
ATOM      9  H6  UNL     1     -18.502   9.174 -37.056  0.00  0.00    +0.000 HD
BRANCH   8  12
ATOM     10  C1  UNL     1     -21.091   9.035 -36.985  0.00  0.00    +0.000 C 
ATOM     11  C2  UNL     1     -20.837   7.932 -37.972  0.00  0.00    +0.000 C 
ATOM     12  C3  UNL     1     -20.222   9.287 -38.186  0.00  0.00    +0.000 C 
ENDBRANCH   8  12
ENDBRANCH   1   8
TORSDOF 3
ENDMDL
MODEL 5
REMARK VINA RESULT:    -3.577     21.789     23.783
REMARK INTER + INTRA:          -4.328
REMARK INTER:                  -4.193
REMARK INTRA:                  -0.135
REMARK UNBOUND:                -0.124
REMARK  Name = /home/anacleto/Desktop/manuscript_Mpro/naturecomm/supplementary_file_S2/6-chemical-library/molecular_docking/3D_ligand_structure/1375.pdb
REMARK  3 active torsions:
REMARK  status: ('A' for Active; 'I' for Inactive)
REMARK    1  A    between atoms: C3_3  and  N1_4
REMARK    2  A    between atoms: N1_4  and  C4_5
REMARK    3  A    between atoms: C4_5  and  C5_6
REMARK                            x       y       z     vdW  Elec       q    Type
REMARK                         _______ _______ _______ _____ _____    ______ ____
ROOT
ATOM      1  C4  UNL     1     -35.353  -4.603 -36.718  0.00  0.00    +0.000 C 
ENDROOT
BRANCH   1   2
ATOM      2  C5  UNL     1     -34.445  -5.506 -37.485  0.00  0.00    +0.000 A 
ATOM      3  N2  UNL     1     -34.727  -6.692 -37.987  0.00  0.00    +0.000 NA
ATOM      4  C6  UNL     1     -33.578  -7.117 -38.602  0.00  0.00    +0.000 A 
ATOM      5  C7  UNL     1     -32.580  -6.182 -38.471  0.00  0.00    +0.000 A 
ATOM      6  N3  UNL     1     -33.143  -5.162 -37.758  0.00  0.00    +0.000 N 
ATOM      7  H11 UNL     1     -32.697  -4.310 -37.445  0.00  0.00    +0.000 HD
ENDBRANCH   1   2
BRANCH   1   8
ATOM      8  N1  UNL     1     -34.664  -3.350 -36.376  0.00  0.00    +0.000 NA
ATOM      9  H6  UNL     1     -34.374  -3.424 -35.398  0.00  0.00    +0.000 HD
BRANCH   8  12
ATOM     10  C1  UNL     1     -35.358  -0.995 -35.661  0.00  0.00    +0.000 C 
ATOM     11  C2  UNL     1     -36.590  -1.849 -35.564  0.00  0.00    +0.000 C 
ATOM     12  C3  UNL     1     -35.525  -2.180 -36.572  0.00  0.00    +0.000 C 
ENDBRANCH   8  12
ENDBRANCH   1   8
TORSDOF 3
ENDMDL
MODEL 6
REMARK VINA RESULT:    -3.547     25.184     26.166
REMARK INTER + INTRA:          -4.293
REMARK INTER:                  -4.167
REMARK INTRA:                  -0.126
REMARK UNBOUND:                -0.124
REMARK  Name = /home/anacleto/Desktop/manuscript_Mpro/naturecomm/supplementary_file_S2/6-chemical-library/molecular_docking/3D_ligand_structure/1375.pdb
REMARK  3 active torsions:
REMARK  status: ('A' for Active; 'I' for Inactive)
REMARK    1  A    between atoms: C3_3  and  N1_4
REMARK    2  A    between atoms: N1_4  and  C4_5
REMARK    3  A    between atoms: C4_5  and  C5_6
REMARK                            x       y       z     vdW  Elec       q    Type
REMARK                         _______ _______ _______ _____ _____    ______ ____
ROOT
ATOM      1  C4  UNL     1     -25.324   5.162 -38.950  0.00  0.00    +0.000 C 
ENDROOT
BRANCH   1   2
ATOM      2  C5  UNL     1     -26.227   4.037 -38.564  0.00  0.00    +0.000 A 
ATOM      3  N2  UNL     1     -27.523   3.934 -38.783  0.00  0.00    +0.000 NA
ATOM      4  C6  UNL     1     -27.893   2.726 -38.251  0.00  0.00    +0.000 A 
ATOM      5  C7  UNL     1     -26.813   2.084 -37.697  0.00  0.00    +0.000 A 
ATOM      6  N3  UNL     1     -25.758   2.928 -37.902  0.00  0.00    +0.000 N 
ATOM      7  H11 UNL     1     -24.800   2.800 -37.602  0.00  0.00    +0.000 HD
ENDBRANCH   1   2
BRANCH   1   8
ATOM      8  N1  UNL     1     -24.123   5.172 -38.102  0.00  0.00    +0.000 NA
ATOM      9  H6  UNL     1     -24.402   5.543 -37.191  0.00  0.00    +0.000 HD
BRANCH   8  12
ATOM     10  C1  UNL     1     -21.811   6.238 -37.870  0.00  0.00    +0.000 C 
ATOM     11  C2  UNL     1     -22.770   7.361 -38.147  0.00  0.00    +0.000 C 
ATOM     12  C3  UNL     1     -23.050   5.985 -38.683  0.00  0.00    +0.000 C 
ENDBRANCH   8  12
ENDBRANCH   1   8
TORSDOF 3
ENDMDL
MODEL 7
REMARK VINA RESULT:    -3.527     31.739     32.540
REMARK INTER + INTRA:          -4.269
REMARK INTER:                  -4.172
REMARK INTRA:                  -0.098
REMARK UNBOUND:                -0.124
REMARK  Name = /home/anacleto/Desktop/manuscript_Mpro/naturecomm/supplementary_file_S2/6-chemical-library/molecular_docking/3D_ligand_structure/1375.pdb
REMARK  3 active torsions:
REMARK  status: ('A' for Active; 'I' for Inactive)
REMARK    1  A    between atoms: C3_3  and  N1_4
REMARK    2  A    between atoms: N1_4  and  C4_5
REMARK    3  A    between atoms: C4_5  and  C5_6
REMARK                            x       y       z     vdW  Elec       q    Type
REMARK                         _______ _______ _______ _____ _____    ______ ____
ROOT
ATOM      1  C4  UNL     1     -16.175  10.149 -39.408  0.00  0.00    +0.000 C 
ENDROOT
BRANCH   1   2
ATOM      2  C5  UNL     1     -17.483   9.437 -39.300  0.00  0.00    +0.000 A 
ATOM      3  N2  UNL     1     -18.040   8.637 -40.188  0.00  0.00    +0.000 NA
ATOM      4  C6  UNL     1     -19.223   8.230 -39.629  0.00  0.00    +0.000 A 
ATOM      5  C7  UNL     1     -19.395   8.790 -38.387  0.00  0.00    +0.000 A 
ATOM      6  N3  UNL     1     -18.282   9.556 -38.188  0.00  0.00    +0.000 N 
ATOM      7  H11 UNL     1     -18.072  10.142 -37.391  0.00  0.00    +0.000 HD
ENDBRANCH   1   2
BRANCH   1   8
ATOM      8  N1  UNL     1     -15.066   9.239 -39.088  0.00  0.00    +0.000 NA
ATOM      9  H6  UNL     1     -14.748   9.472 -38.145  0.00  0.00    +0.000 HD
BRANCH   8  12
ATOM     10  C1  UNL     1     -12.578   9.629 -39.532  0.00  0.00    +0.000 C 
ATOM     11  C2  UNL     1     -13.317  10.694 -40.290  0.00  0.00    +0.000 C 
ATOM     12  C3  UNL     1     -13.964   9.360 -40.048  0.00  0.00    +0.000 C 
ENDBRANCH   8  12
ENDBRANCH   1   8
TORSDOF 3
ENDMDL
MODEL 8
REMARK VINA RESULT:    -3.421     29.521     30.354
REMARK INTER + INTRA:          -4.145
REMARK INTER:                  -3.996
REMARK INTRA:                  -0.149
REMARK UNBOUND:                -0.124
REMARK  Name = /home/anacleto/Desktop/manuscript_Mpro/naturecomm/supplementary_file_S2/6-chemical-library/molecular_docking/3D_ligand_structure/1375.pdb
REMARK  3 active torsions:
REMARK  status: ('A' for Active; 'I' for Inactive)
REMARK    1  A    between atoms: C3_3  and  N1_4
REMARK    2  A    between atoms: N1_4  and  C4_5
REMARK    3  A    between atoms: C4_5  and  C5_6
REMARK                            x       y       z     vdW  Elec       q    Type
REMARK                         _______ _______ _______ _____ _____    ______ ____
ROOT
ATOM      1  C4  UNL     1     -18.505   7.975 -39.367  0.00  0.00    +0.000 C 
ENDROOT
BRANCH   1   2
ATOM      2  C5  UNL     1     -19.726   8.166 -38.531  0.00  0.00    +0.000 A 
ATOM      3  N2  UNL     1     -20.737   7.332 -38.381  0.00  0.00    +0.000 NA
ATOM      4  C6  UNL     1     -21.601   7.950 -37.515  0.00  0.00    +0.000 A 
ATOM      5  C7  UNL     1     -21.117   9.178 -37.135  0.00  0.00    +0.000 A 
ATOM      6  N3  UNL     1     -19.924   9.305 -37.787  0.00  0.00    +0.000 N 
ATOM      7  H11 UNL     1     -19.294  10.096 -37.771  0.00  0.00    +0.000 HD
ENDBRANCH   1   2
BRANCH   1   8
ATOM      8  N1  UNL     1     -17.358   8.675 -38.771  0.00  0.00    +0.000 NA
ATOM      9  H6  UNL     1     -17.716   9.223 -37.985  0.00  0.00    +0.000 HD
BRANCH   8  12
ATOM     10  C1  UNL     1     -15.215   9.825 -39.563  0.00  0.00    +0.000 C 
ATOM     11  C2  UNL     1     -16.222  10.915 -39.333  0.00  0.00    +0.000 C 
ATOM     12  C3  UNL     1     -16.682   9.544 -39.740  0.00  0.00    +0.000 C 
ENDBRANCH   8  12
ENDBRANCH   1   8
TORSDOF 3
ENDMDL
MODEL 9
REMARK VINA RESULT:    -3.316     25.688     27.158
REMARK INTER + INTRA:          -4.021
REMARK INTER:                  -3.897
REMARK INTRA:                  -0.124
REMARK UNBOUND:                -0.124
REMARK  Name = /home/anacleto/Desktop/manuscript_Mpro/naturecomm/supplementary_file_S2/6-chemical-library/molecular_docking/3D_ligand_structure/1375.pdb
REMARK  3 active torsions:
REMARK  status: ('A' for Active; 'I' for Inactive)
REMARK    1  A    between atoms: C3_3  and  N1_4
REMARK    2  A    between atoms: N1_4  and  C4_5
REMARK    3  A    between atoms: C4_5  and  C5_6
REMARK                            x       y       z     vdW  Elec       q    Type
REMARK                         _______ _______ _______ _____ _____    ______ ____
ROOT
ATOM      1  C4  UNL     1     -24.983   5.347 -39.099  0.00  0.00    +0.000 C 
ENDROOT
BRANCH   1   2
ATOM      2  C5  UNL     1     -23.621   5.940 -38.951  0.00  0.00    +0.000 A 
ATOM      3  N2  UNL     1     -22.983   6.712 -39.808  0.00  0.00    +0.000 NA
ATOM      4  C6  UNL     1     -21.779   7.002 -39.220  0.00  0.00    +0.000 A 
ATOM      5  C7  UNL     1     -21.678   6.398 -37.991  0.00  0.00    +0.000 A 
ATOM      6  N3  UNL     1     -22.856   5.725 -37.830  0.00  0.00    +0.000 N 
ATOM      7  H11 UNL     1     -23.129   5.139 -37.052  0.00  0.00    +0.000 HD
ENDBRANCH   1   2
BRANCH   1   8
ATOM      8  N1  UNL     1     -25.135   4.181 -38.215  0.00  0.00    +0.000 NA
ATOM      9  H6  UNL     1     -24.477   3.470 -38.540  0.00  0.00    +0.000 HD
BRANCH   8  12
ATOM     10  C1  UNL     1     -26.750   2.250 -37.766  0.00  0.00    +0.000 C 
ATOM     11  C2  UNL     1     -26.901   2.601 -39.219  0.00  0.00    +0.000 C 
ATOM     12  C3  UNL     1     -26.506   3.660 -38.228  0.00  0.00    +0.000 C 
ENDBRANCH   8  12
ENDBRANCH   1   8
TORSDOF 3
ENDMDL
