MODEL 1
REMARK VINA RESULT:    -4.652      0.000      0.000
REMARK INTER + INTRA:          -5.657
REMARK INTER:                  -5.444
REMARK INTRA:                  -0.213
REMARK UNBOUND:                -0.189
REMARK  Name = /home/anacleto/Desktop/manuscript_Mpro/naturecomm/supplementary_file_S2/6-chemical-library/molecular_docking/3D_ligand_structure/1037.pdb
REMARK  3 active torsions:
REMARK  status: ('A' for Active; 'I' for Inactive)
REMARK    1  A    between atoms: C3_5  and  C4_6
REMARK    2  A    between atoms: C4_6  and  N2_7
REMARK    3  A    between atoms: N2_7  and  C5_8
REMARK                            x       y       z     vdW  Elec       q    Type
REMARK                         _______ _______ _______ _____ _____    ______ ____
ROOT
ATOM      1  N2  UNL     1      15.003  10.739  -3.180  0.00  0.00    +0.000 N 
ATOM      2  H5  UNL     1      14.357  10.081  -2.744  0.00  0.00    +0.000 HD
ENDROOT
BRANCH   1   3
ATOM      3  C5  UNL     1      14.706  10.954  -4.528  0.00  0.00    +0.000 A 
ATOM      4  C6  UNL     1      15.711  11.468  -5.361  0.00  0.00    +0.000 A 
ATOM      5  C7  UNL     1      15.503  11.644  -6.732  0.00  0.00    +0.000 A 
ATOM      6  C8  UNL     1      14.288  11.280  -7.302  0.00  0.00    +0.000 A 
ATOM      7  C9  UNL     1      13.292  10.728  -6.502  0.00  0.00    +0.000 A 
ATOM      8  C10 UNL     1      13.508  10.553  -5.131  0.00  0.00    +0.000 A 
ENDBRANCH   1   3
BRANCH   1   9
ATOM      9  C4  UNL     1      16.374  10.411  -2.788  0.00  0.00    +0.000 C 
BRANCH   9  14
ATOM     10  N1  UNL     1      18.315  11.212  -1.437  0.00  0.00    +0.000 NA
ATOM     11  C1  UNL     1      18.713  12.233  -0.712  0.00  0.00    +0.000 A 
ATOM     12  S1  UNL     1      17.613  13.540  -0.577  0.00  0.00    +0.000 S 
ATOM     13  C2  UNL     1      16.501  12.682  -1.560  0.00  0.00    +0.000 A 
ATOM     14  C3  UNL     1      17.036  11.462  -1.933  0.00  0.00    +0.000 A 
ENDBRANCH   9  14
ENDBRANCH   1   9
TORSDOF 3
ENDMDL
MODEL 2
REMARK VINA RESULT:    -4.643     14.195     15.410
REMARK INTER + INTRA:          -5.646
REMARK INTER:                  -5.505
REMARK INTRA:                  -0.142
REMARK UNBOUND:                -0.189
REMARK  Name = /home/anacleto/Desktop/manuscript_Mpro/naturecomm/supplementary_file_S2/6-chemical-library/molecular_docking/3D_ligand_structure/1037.pdb
REMARK  3 active torsions:
REMARK  status: ('A' for Active; 'I' for Inactive)
REMARK    1  A    between atoms: C3_5  and  C4_6
REMARK    2  A    between atoms: C4_6  and  N2_7
REMARK    3  A    between atoms: N2_7  and  C5_8
REMARK                            x       y       z     vdW  Elec       q    Type
REMARK                         _______ _______ _______ _____ _____    ______ ____
ROOT
ATOM      1  N2  UNL     1      18.023   4.775   8.450  0.00  0.00    +0.000 N 
ATOM      2  H5  UNL     1      17.962   4.415   7.497  0.00  0.00    +0.000 HD
ENDROOT
BRANCH   1   3
ATOM      3  C5  UNL     1      19.125   5.616   8.626  0.00  0.00    +0.000 A 
ATOM      4  C6  UNL     1      18.906   7.000   8.695  0.00  0.00    +0.000 A 
ATOM      5  C7  UNL     1      19.954   7.893   8.937  0.00  0.00    +0.000 A 
ATOM      6  C8  UNL     1      21.242   7.412   9.144  0.00  0.00    +0.000 A 
ATOM      7  C9  UNL     1      21.474   6.040   9.123  0.00  0.00    +0.000 A 
ATOM      8  C10 UNL     1      20.420   5.151   8.882  0.00  0.00    +0.000 A 
ENDBRANCH   1   3
BRANCH   1   9
ATOM      9  C4  UNL     1      17.788   3.686   9.398  0.00  0.00    +0.000 C 
BRANCH   9  14
ATOM     10  N1  UNL     1      16.668   2.071   7.858  0.00  0.00    +0.000 NA
ATOM     11  C1  UNL     1      15.560   1.378   7.721  0.00  0.00    +0.000 A 
ATOM     12  S1  UNL     1      14.403   1.546   8.975  0.00  0.00    +0.000 S 
ATOM     13  C2  UNL     1      15.455   2.640   9.774  0.00  0.00    +0.000 A 
ATOM     14  C3  UNL     1      16.618   2.805   9.043  0.00  0.00    +0.000 A 
ENDBRANCH   9  14
ENDBRANCH   1   9
TORSDOF 3
ENDMDL
MODEL 3
REMARK VINA RESULT:    -4.443     14.396     16.405
REMARK INTER + INTRA:          -5.412
REMARK INTER:                  -5.171
REMARK INTRA:                  -0.241
REMARK UNBOUND:                -0.189
REMARK  Name = /home/anacleto/Desktop/manuscript_Mpro/naturecomm/supplementary_file_S2/6-chemical-library/molecular_docking/3D_ligand_structure/1037.pdb
REMARK  3 active torsions:
REMARK  status: ('A' for Active; 'I' for Inactive)
REMARK    1  A    between atoms: C3_5  and  C4_6
REMARK    2  A    between atoms: C4_6  and  N2_7
REMARK    3  A    between atoms: N2_7  and  C5_8
REMARK                            x       y       z     vdW  Elec       q    Type
REMARK                         _______ _______ _______ _____ _____    ______ ____
ROOT
ATOM      1  N2  UNL     1      21.826   7.584  10.974  0.00  0.00    +0.000 N 
ATOM      2  H5  UNL     1      21.615   8.574  11.096  0.00  0.00    +0.000 HD
ENDROOT
BRANCH   1   3
ATOM      3  C5  UNL     1      21.021   6.990   9.998  0.00  0.00    +0.000 A 
ATOM      4  C6  UNL     1      19.912   7.705   9.520  0.00  0.00    +0.000 A 
ATOM      5  C7  UNL     1      19.104   7.199   8.497  0.00  0.00    +0.000 A 
ATOM      6  C8  UNL     1      19.409   5.975   7.912  0.00  0.00    +0.000 A 
ATOM      7  C9  UNL     1      20.530   5.270   8.341  0.00  0.00    +0.000 A 
ATOM      8  C10 UNL     1      21.335   5.782   9.364  0.00  0.00    +0.000 A 
ENDBRANCH   1   3
BRANCH   1   9
ATOM      9  C4  UNL     1      21.957   6.947  12.284  0.00  0.00    +0.000 C 
BRANCH   9  14
ATOM     10  N1  UNL     1      20.426   8.126  13.865  0.00  0.00    +0.000 NA
ATOM     11  C1  UNL     1      19.299   7.963  14.522  0.00  0.00    +0.000 A 
ATOM     12  S1  UNL     1      18.497   6.466  14.287  0.00  0.00    +0.000 S 
ATOM     13  C2  UNL     1      19.753   5.980  13.227  0.00  0.00    +0.000 A 
ATOM     14  C3  UNL     1      20.698   6.984  13.113  0.00  0.00    +0.000 A 
ENDBRANCH   9  14
ENDBRANCH   1   9
TORSDOF 3
ENDMDL
MODEL 4
REMARK VINA RESULT:    -4.365     14.261     15.735
REMARK INTER + INTRA:          -5.320
REMARK INTER:                  -5.096
REMARK INTRA:                  -0.224
REMARK UNBOUND:                -0.189
REMARK  Name = /home/anacleto/Desktop/manuscript_Mpro/naturecomm/supplementary_file_S2/6-chemical-library/molecular_docking/3D_ligand_structure/1037.pdb
REMARK  3 active torsions:
REMARK  status: ('A' for Active; 'I' for Inactive)
REMARK    1  A    between atoms: C3_5  and  C4_6
REMARK    2  A    between atoms: C4_6  and  N2_7
REMARK    3  A    between atoms: N2_7  and  C5_8
REMARK                            x       y       z     vdW  Elec       q    Type
REMARK                         _______ _______ _______ _____ _____    ______ ____
ROOT
ATOM      1  N2  UNL     1      17.999   4.664   8.428  0.00  0.00    +0.000 N 
ATOM      2  H5  UNL     1      17.942   4.448   7.432  0.00  0.00    +0.000 HD
ENDROOT
BRANCH   1   3
ATOM      3  C5  UNL     1      19.037   5.556   8.714  0.00  0.00    +0.000 A 
ATOM      4  C6  UNL     1      20.327   5.040   8.910  0.00  0.00    +0.000 A 
ATOM      5  C7  UNL     1      21.421   5.880   9.133  0.00  0.00    +0.000 A 
ATOM      6  C8  UNL     1      21.249   7.260   9.135  0.00  0.00    +0.000 A 
ATOM      7  C9  UNL     1      19.986   7.795   8.898  0.00  0.00    +0.000 A 
ATOM      8  C10 UNL     1      18.894   6.948   8.675  0.00  0.00    +0.000 A 
ENDBRANCH   1   3
BRANCH   1   9
ATOM      9  C4  UNL     1      17.875   3.431   9.204  0.00  0.00    +0.000 C 
BRANCH   9  14
ATOM     10  N1  UNL     1      15.561   3.133  10.094  0.00  0.00    +0.000 NA
ATOM     11  C1  UNL     1      14.852   3.287  11.190  0.00  0.00    +0.000 A 
ATOM     12  S1  UNL     1      15.693   3.882  12.559  0.00  0.00    +0.000 S 
ATOM     13  C2  UNL     1      17.128   3.953  11.623  0.00  0.00    +0.000 A 
ATOM     14  C3  UNL     1      16.881   3.516  10.334  0.00  0.00    +0.000 A 
ENDBRANCH   9  14
ENDBRANCH   1   9
TORSDOF 3
ENDMDL
MODEL 5
REMARK VINA RESULT:    -4.259      2.347      2.999
REMARK INTER + INTRA:          -5.195
REMARK INTER:                  -4.990
REMARK INTRA:                  -0.206
REMARK UNBOUND:                -0.189
REMARK  Name = /home/anacleto/Desktop/manuscript_Mpro/naturecomm/supplementary_file_S2/6-chemical-library/molecular_docking/3D_ligand_structure/1037.pdb
REMARK  3 active torsions:
REMARK  status: ('A' for Active; 'I' for Inactive)
REMARK    1  A    between atoms: C3_5  and  C4_6
REMARK    2  A    between atoms: C4_6  and  N2_7
REMARK    3  A    between atoms: N2_7  and  C5_8
REMARK                            x       y       z     vdW  Elec       q    Type
REMARK                         _______ _______ _______ _____ _____    ______ ____
ROOT
ATOM      1  N2  UNL     1      14.768  14.411  -4.578  0.00  0.00    +0.000 N 
ATOM      2  H5  UNL     1      14.545  15.281  -5.061  0.00  0.00    +0.000 HD
ENDROOT
BRANCH   1   3
ATOM      3  C5  UNL     1      14.594  13.293  -5.398  0.00  0.00    +0.000 A 
ATOM      4  C6  UNL     1      13.483  12.466  -5.175  0.00  0.00    +0.000 A 
ATOM      5  C7  UNL     1      13.212  11.370  -6.000  0.00  0.00    +0.000 A 
ATOM      6  C8  UNL     1      14.036  11.099  -7.087  0.00  0.00    +0.000 A 
ATOM      7  C9  UNL     1      15.119  11.932  -7.352  0.00  0.00    +0.000 A 
ATOM      8  C10 UNL     1      15.384  13.027  -6.523  0.00  0.00    +0.000 A 
ENDBRANCH   1   3
BRANCH   1   9
ATOM      9  C4  UNL     1      14.169  14.425  -3.244  0.00  0.00    +0.000 C 
BRANCH   9  14
ATOM     10  N1  UNL     1      16.070  13.535  -1.892  0.00  0.00    +0.000 NA
ATOM     11  C1  UNL     1      16.845  13.844  -0.877  0.00  0.00    +0.000 A 
ATOM     12  S1  UNL     1      16.561  15.367  -0.144  0.00  0.00    +0.000 S 
ATOM     13  C2  UNL     1      15.292  15.647  -1.262  0.00  0.00    +0.000 A 
ATOM     14  C3  UNL     1      15.168  14.572  -2.124  0.00  0.00    +0.000 A 
ENDBRANCH   9  14
ENDBRANCH   1   9
TORSDOF 3
ENDMDL
MODEL 6
REMARK VINA RESULT:    -4.237     14.059     15.131
REMARK INTER + INTRA:          -5.169
REMARK INTER:                  -5.031
REMARK INTRA:                  -0.138
REMARK UNBOUND:                -0.189
REMARK  Name = /home/anacleto/Desktop/manuscript_Mpro/naturecomm/supplementary_file_S2/6-chemical-library/molecular_docking/3D_ligand_structure/1037.pdb
REMARK  3 active torsions:
REMARK  status: ('A' for Active; 'I' for Inactive)
REMARK    1  A    between atoms: C3_5  and  C4_6
REMARK    2  A    between atoms: C4_6  and  N2_7
REMARK    3  A    between atoms: N2_7  and  C5_8
REMARK                            x       y       z     vdW  Elec       q    Type
REMARK                         _______ _______ _______ _____ _____    ______ ____
ROOT
ATOM      1  N2  UNL     1      17.354   4.052   8.553  0.00  0.00    +0.000 N 
ATOM      2  H5  UNL     1      16.972   4.959   8.281  0.00  0.00    +0.000 HD
ENDROOT
BRANCH   1   3
ATOM      3  C5  UNL     1      16.367   3.065   8.620  0.00  0.00    +0.000 A 
ATOM      4  C6  UNL     1      16.299   2.116   7.588  0.00  0.00    +0.000 A 
ATOM      5  C7  UNL     1      15.381   1.063   7.626  0.00  0.00    +0.000 A 
ATOM      6  C8  UNL     1      14.529   0.922   8.716  0.00  0.00    +0.000 A 
ATOM      7  C9  UNL     1      14.610   1.826   9.771  0.00  0.00    +0.000 A 
ATOM      8  C10 UNL     1      15.532   2.878   9.727  0.00  0.00    +0.000 A 
ENDBRANCH   1   3
BRANCH   1   9
ATOM      9  C4  UNL     1      18.275   4.226   9.675  0.00  0.00    +0.000 C 
BRANCH   9  14
ATOM     10  N1  UNL     1      20.053   5.720  10.592  0.00  0.00    +0.000 NA
ATOM     11  C1  UNL     1      20.658   6.864  10.360  0.00  0.00    +0.000 A 
ATOM     12  S1  UNL     1      20.149   7.720   8.966  0.00  0.00    +0.000 S 
ATOM     13  C2  UNL     1      19.018   6.474   8.636  0.00  0.00    +0.000 A 
ATOM     14  C3  UNL     1      19.102   5.485   9.600  0.00  0.00    +0.000 A 
ENDBRANCH   9  14
ENDBRANCH   1   9
TORSDOF 3
ENDMDL
MODEL 7
REMARK VINA RESULT:    -4.233     14.588     16.678
REMARK INTER + INTRA:          -5.165
REMARK INTER:                  -4.955
REMARK INTRA:                  -0.210
REMARK UNBOUND:                -0.189
REMARK  Name = /home/anacleto/Desktop/manuscript_Mpro/naturecomm/supplementary_file_S2/6-chemical-library/molecular_docking/3D_ligand_structure/1037.pdb
REMARK  3 active torsions:
REMARK  status: ('A' for Active; 'I' for Inactive)
REMARK    1  A    between atoms: C3_5  and  C4_6
REMARK    2  A    between atoms: C4_6  and  N2_7
REMARK    3  A    between atoms: N2_7  and  C5_8
REMARK                            x       y       z     vdW  Elec       q    Type
REMARK                         _______ _______ _______ _____ _____    ______ ____
ROOT
ATOM      1  N2  UNL     1      19.240   6.593  12.237  0.00  0.00    +0.000 N 
ATOM      2  H5  UNL     1      20.204   6.635  12.570  0.00  0.00    +0.000 HD
ENDROOT
BRANCH   1   3
ATOM      3  C5  UNL     1      19.169   6.449  10.848  0.00  0.00    +0.000 A 
ATOM      4  C6  UNL     1      19.584   7.520  10.042  0.00  0.00    +0.000 A 
ATOM      5  C7  UNL     1      19.603   7.419   8.648  0.00  0.00    +0.000 A 
ATOM      6  C8  UNL     1      19.232   6.229   8.033  0.00  0.00    +0.000 A 
ATOM      7  C9  UNL     1      18.858   5.140   8.815  0.00  0.00    +0.000 A 
ATOM      8  C10 UNL     1      18.843   5.247  10.210  0.00  0.00    +0.000 A 
ENDBRANCH   1   3
BRANCH   1   9
ATOM      9  C4  UNL     1      18.450   7.634  12.894  0.00  0.00    +0.000 C 
BRANCH   9  14
ATOM     10  N1  UNL     1      16.636   7.960  14.578  0.00  0.00    +0.000 NA
ATOM     11  C1  UNL     1      15.651   7.320  15.168  0.00  0.00    +0.000 A 
ATOM     12  S1  UNL     1      15.420   5.688  14.697  0.00  0.00    +0.000 S 
ATOM     13  C2  UNL     1      16.745   5.831  13.618  0.00  0.00    +0.000 A 
ATOM     14  C3  UNL     1      17.275   7.107  13.679  0.00  0.00    +0.000 A 
ENDBRANCH   9  14
ENDBRANCH   1   9
TORSDOF 3
ENDMDL
MODEL 8
REMARK VINA RESULT:    -4.176      2.381      2.752
REMARK INTER + INTRA:          -5.097
REMARK INTER:                  -4.908
REMARK INTRA:                  -0.189
REMARK UNBOUND:                -0.189
REMARK  Name = /home/anacleto/Desktop/manuscript_Mpro/naturecomm/supplementary_file_S2/6-chemical-library/molecular_docking/3D_ligand_structure/1037.pdb
REMARK  3 active torsions:
REMARK  status: ('A' for Active; 'I' for Inactive)
REMARK    1  A    between atoms: C3_5  and  C4_6
REMARK    2  A    between atoms: C4_6  and  N2_7
REMARK    3  A    between atoms: N2_7  and  C5_8
REMARK                            x       y       z     vdW  Elec       q    Type
REMARK                         _______ _______ _______ _____ _____    ______ ____
ROOT
ATOM      1  N2  UNL     1      14.756  14.519  -4.459  0.00  0.00    +0.000 N 
ATOM      2  H5  UNL     1      14.478  15.420  -4.848  0.00  0.00    +0.000 HD
ENDROOT
BRANCH   1   3
ATOM      3  C5  UNL     1      14.611  13.479  -5.382  0.00  0.00    +0.000 A 
ATOM      4  C6  UNL     1      15.579  13.338  -6.388  0.00  0.00    +0.000 A 
ATOM      5  C7  UNL     1      15.531  12.282  -7.302  0.00  0.00    +0.000 A 
ATOM      6  C8  UNL     1      14.525  11.327  -7.208  0.00  0.00    +0.000 A 
ATOM      7  C9  UNL     1      13.580  11.423  -6.191  0.00  0.00    +0.000 A 
ATOM      8  C10 UNL     1      13.634  12.482  -5.278  0.00  0.00    +0.000 A 
ENDBRANCH   1   3
BRANCH   1   9
ATOM      9  C4  UNL     1      14.196  14.372  -3.116  0.00  0.00    +0.000 C 
BRANCH   9  14
ATOM     10  N1  UNL     1      16.111  13.549  -1.740  0.00  0.00    +0.000 NA
ATOM     11  C1  UNL     1      16.888  13.903  -0.742  0.00  0.00    +0.000 A 
ATOM     12  S1  UNL     1      16.596  15.451  -0.067  0.00  0.00    +0.000 S 
ATOM     13  C2  UNL     1      15.320  15.679  -1.189  0.00  0.00    +0.000 A 
ATOM     14  C3  UNL     1      15.199  14.570  -2.008  0.00  0.00    +0.000 A 
ENDBRANCH   9  14
ENDBRANCH   1   9
TORSDOF 3
ENDMDL
MODEL 9
REMARK VINA RESULT:    -4.158      1.641      2.246
REMARK INTER + INTRA:          -5.076
REMARK INTER:                  -4.791
REMARK INTRA:                  -0.285
REMARK UNBOUND:                -0.189
REMARK  Name = /home/anacleto/Desktop/manuscript_Mpro/naturecomm/supplementary_file_S2/6-chemical-library/molecular_docking/3D_ligand_structure/1037.pdb
REMARK  3 active torsions:
REMARK  status: ('A' for Active; 'I' for Inactive)
REMARK    1  A    between atoms: C3_5  and  C4_6
REMARK    2  A    between atoms: C4_6  and  N2_7
REMARK    3  A    between atoms: N2_7  and  C5_8
REMARK                            x       y       z     vdW  Elec       q    Type
REMARK                         _______ _______ _______ _____ _____    ______ ____
ROOT
ATOM      1  N2  UNL     1      15.755  10.698  -3.407  0.00  0.00    +0.000 N 
ATOM      2  H5  UNL     1      16.773  10.640  -3.443  0.00  0.00    +0.000 HD
ENDROOT
BRANCH   1   3
ATOM      3  C5  UNL     1      15.197  10.952  -4.663  0.00  0.00    +0.000 A 
ATOM      4  C6  UNL     1      16.050  11.331  -5.710  0.00  0.00    +0.000 A 
ATOM      5  C7  UNL     1      15.567  11.534  -7.006  0.00  0.00    +0.000 A 
ATOM      6  C8  UNL     1      14.220  11.333  -7.285  0.00  0.00    +0.000 A 
ATOM      7  C9  UNL     1      13.364  10.915  -6.271  0.00  0.00    +0.000 A 
ATOM      8  C10 UNL     1      13.854  10.712  -4.976  0.00  0.00    +0.000 A 
ENDBRANCH   1   3
BRANCH   1   9
ATOM      9  C4  UNL     1      15.353  11.514  -2.262  0.00  0.00    +0.000 C 
BRANCH   9  14
ATOM     10  N1  UNL     1      14.608  13.876  -2.577  0.00  0.00    +0.000 NA
ATOM     11  C1  UNL     1      15.078  15.097  -2.703  0.00  0.00    +0.000 A 
ATOM     12  S1  UNL     1      16.783  15.260  -2.636  0.00  0.00    +0.000 S 
ATOM     13  C2  UNL     1      16.919  13.564  -2.426  0.00  0.00    +0.000 A 
ATOM     14  C3  UNL     1      15.665  12.982  -2.415  0.00  0.00    +0.000 A 
ENDBRANCH   9  14
ENDBRANCH   1   9
TORSDOF 3
ENDMDL
