MODEL 1
REMARK VINA RESULT:    -3.878      0.000      0.000
REMARK INTER + INTRA:          -3.878
REMARK INTER:                  -3.878
REMARK INTRA:                   0.000
REMARK UNBOUND:                 0.000
REMARK  Name = /home/anacleto/Desktop/manuscript_Mpro/naturecomm/supplementary_file_S2/6-chemical-library/molecular_docking/3D_ligand_structure/74.pdb
REMARK  0 active torsions:
REMARK  status: ('A' for Active; 'I' for Inactive)
REMARK                            x       y       z     vdW  Elec       q    Type
REMARK                         _______ _______ _______ _____ _____    ______ ____
ROOT
ATOM      1  O1  UNL     1     -38.950   9.477 -15.727  0.00  0.00    +0.000 OA
ATOM      2  C1  UNL     1     -37.974   8.906 -15.269  0.00  0.00    +0.000 A 
ATOM      3  N1  UNL     1     -37.792   8.504 -13.963  0.00  0.00    +0.000 NA
ATOM      4  C2  UNL     1     -36.548   8.151 -13.916  0.00  0.00    +0.000 A 
ATOM      5  N2  UNL     1     -35.824   8.279 -15.070  0.00  0.00    +0.000 N 
ATOM      6  N3  UNL     1     -36.828   8.613 -15.997  0.00  0.00    +0.000 N 
ATOM      7  H2  UNL     1     -35.270   7.460 -15.315  0.00  0.00    +0.000 HD
ATOM      8  H3  UNL     1     -36.613   9.271 -16.738  0.00  0.00    +0.000 HD
ENDROOT
TORSDOF 0
ENDMDL
MODEL 2
REMARK VINA RESULT:    -3.839     16.177     16.450
REMARK INTER + INTRA:          -3.839
REMARK INTER:                  -3.839
REMARK INTRA:                   0.000
REMARK UNBOUND:                 0.000
REMARK  Name = /home/anacleto/Desktop/manuscript_Mpro/naturecomm/supplementary_file_S2/6-chemical-library/molecular_docking/3D_ligand_structure/74.pdb
REMARK  0 active torsions:
REMARK  status: ('A' for Active; 'I' for Inactive)
REMARK                            x       y       z     vdW  Elec       q    Type
REMARK                         _______ _______ _______ _____ _____    ______ ____
ROOT
ATOM      1  O1  UNL     1     -34.242  -5.521 -25.170  0.00  0.00    +0.000 OA
ATOM      2  C1  UNL     1     -34.036  -4.319 -25.133  0.00  0.00    +0.000 A 
ATOM      3  N1  UNL     1     -34.857  -3.326 -25.623  0.00  0.00    +0.000 NA
ATOM      4  C2  UNL     1     -34.133  -2.257 -25.550  0.00  0.00    +0.000 A 
ATOM      5  N2  UNL     1     -32.862  -2.402 -25.064  0.00  0.00    +0.000 N 
ATOM      6  N3  UNL     1     -32.878  -3.740 -24.630  0.00  0.00    +0.000 N 
ATOM      7  H2  UNL     1     -32.601  -1.723 -24.351  0.00  0.00    +0.000 HD
ATOM      8  H3  UNL     1     -32.040  -4.301 -24.736  0.00  0.00    +0.000 HD
ENDROOT
TORSDOF 0
ENDMDL
MODEL 3
REMARK VINA RESULT:    -3.721      1.862      2.297
REMARK INTER + INTRA:          -3.721
REMARK INTER:                  -3.721
REMARK INTRA:                   0.000
REMARK UNBOUND:                 0.000
REMARK  Name = /home/anacleto/Desktop/manuscript_Mpro/naturecomm/supplementary_file_S2/6-chemical-library/molecular_docking/3D_ligand_structure/74.pdb
REMARK  0 active torsions:
REMARK  status: ('A' for Active; 'I' for Inactive)
REMARK                            x       y       z     vdW  Elec       q    Type
REMARK                         _______ _______ _______ _____ _____    ______ ____
ROOT
ATOM      1  O1  UNL     1     -37.583   6.410 -14.995  0.00  0.00    +0.000 OA
ATOM      2  C1  UNL     1     -37.816   7.587 -15.213  0.00  0.00    +0.000 A 
ATOM      3  N1  UNL     1     -38.910   8.305 -14.780  0.00  0.00    +0.000 NA
ATOM      4  C2  UNL     1     -38.827   9.422 -15.427  0.00  0.00    +0.000 A 
ATOM      5  N2  UNL     1     -37.778   9.559 -16.294  0.00  0.00    +0.000 N 
ATOM      6  N3  UNL     1     -37.024   8.407 -16.007  0.00  0.00    +0.000 N 
ATOM      7  H2  UNL     1     -37.268  10.437 -16.207  0.00  0.00    +0.000 HD
ATOM      8  H3  UNL     1     -36.544   7.932 -16.764  0.00  0.00    +0.000 HD
ENDROOT
TORSDOF 0
ENDMDL
MODEL 4
REMARK VINA RESULT:    -3.458     15.329     15.588
REMARK INTER + INTRA:          -3.458
REMARK INTER:                  -3.458
REMARK INTRA:                   0.000
REMARK UNBOUND:                 0.000
REMARK  Name = /home/anacleto/Desktop/manuscript_Mpro/naturecomm/supplementary_file_S2/6-chemical-library/molecular_docking/3D_ligand_structure/74.pdb
REMARK  0 active torsions:
REMARK  status: ('A' for Active; 'I' for Inactive)
REMARK                            x       y       z     vdW  Elec       q    Type
REMARK                         _______ _______ _______ _____ _____    ______ ____
ROOT
ATOM      1  O1  UNL     1     -36.237  -1.963 -25.269  0.00  0.00    +0.000 OA
ATOM      2  C1  UNL     1     -35.096  -2.385 -25.356  0.00  0.00    +0.000 A 
ATOM      3  N1  UNL     1     -34.702  -3.705 -25.341  0.00  0.00    +0.000 NA
ATOM      4  C2  UNL     1     -33.414  -3.646 -25.243  0.00  0.00    +0.000 A 
ATOM      5  N2  UNL     1     -32.855  -2.399 -25.171  0.00  0.00    +0.000 N 
ATOM      6  N3  UNL     1     -33.968  -1.577 -25.425  0.00  0.00    +0.000 N 
ATOM      7  H2  UNL     1     -32.063  -2.254 -25.796  0.00  0.00    +0.000 HD
ATOM      8  H3  UNL     1     -34.046  -0.692 -24.937  0.00  0.00    +0.000 HD
ENDROOT
TORSDOF 0
ENDMDL
MODEL 5
REMARK VINA RESULT:    -3.382     30.289     30.673
REMARK INTER + INTRA:          -3.382
REMARK INTER:                  -3.382
REMARK INTRA:                   0.000
REMARK UNBOUND:                 0.000
REMARK  Name = /home/anacleto/Desktop/manuscript_Mpro/naturecomm/supplementary_file_S2/6-chemical-library/molecular_docking/3D_ligand_structure/74.pdb
REMARK  0 active torsions:
REMARK  status: ('A' for Active; 'I' for Inactive)
REMARK                            x       y       z     vdW  Elec       q    Type
REMARK                         _______ _______ _______ _____ _____    ______ ____
ROOT
ATOM      1  O1  UNL     1     -18.464  -6.230 -36.956  0.00  0.00    +0.000 OA
ATOM      2  C1  UNL     1     -19.026  -5.508 -36.150  0.00  0.00    +0.000 A 
ATOM      3  N1  UNL     1     -18.581  -5.178 -34.887  0.00  0.00    +0.000 NA
ATOM      4  C2  UNL     1     -19.593  -4.581 -34.346  0.00  0.00    +0.000 A 
ATOM      5  N2  UNL     1     -20.725  -4.468 -35.106  0.00  0.00    +0.000 N 
ATOM      6  N3  UNL     1     -20.272  -4.929 -36.355  0.00  0.00    +0.000 N 
ATOM      7  H2  UNL     1     -21.137  -3.536 -35.117  0.00  0.00    +0.000 HD
ATOM      8  H3  UNL     1     -20.902  -5.470 -36.938  0.00  0.00    +0.000 HD
ENDROOT
TORSDOF 0
ENDMDL
MODEL 6
REMARK VINA RESULT:    -3.333     25.316     25.347
REMARK INTER + INTRA:          -3.333
REMARK INTER:                  -3.333
REMARK INTRA:                   0.000
REMARK UNBOUND:                 0.000
REMARK  Name = /home/anacleto/Desktop/manuscript_Mpro/naturecomm/supplementary_file_S2/6-chemical-library/molecular_docking/3D_ligand_structure/74.pdb
REMARK  0 active torsions:
REMARK  status: ('A' for Active; 'I' for Inactive)
REMARK                            x       y       z     vdW  Elec       q    Type
REMARK                         _______ _______ _______ _____ _____    ______ ____
ROOT
ATOM      1  O1  UNL     1     -19.896  -3.674 -28.184  0.00  0.00    +0.000 OA
ATOM      2  C1  UNL     1     -19.103  -3.858 -27.275  0.00  0.00    +0.000 A 
ATOM      3  N1  UNL     1     -19.123  -4.886 -26.358  0.00  0.00    +0.000 NA
ATOM      4  C2  UNL     1     -18.233  -4.544 -25.484  0.00  0.00    +0.000 A 
ATOM      5  N2  UNL     1     -17.589  -3.354 -25.691  0.00  0.00    +0.000 N 
ATOM      6  N3  UNL     1     -18.052  -3.001 -26.971  0.00  0.00    +0.000 N 
ATOM      7  H2  UNL     1     -16.575  -3.399 -25.598  0.00  0.00    +0.000 HD
ATOM      8  H3  UNL     1     -18.224  -2.024 -27.180  0.00  0.00    +0.000 HD
ENDROOT
TORSDOF 0
ENDMDL
MODEL 7
REMARK VINA RESULT:    -3.247     19.995     20.364
REMARK INTER + INTRA:          -3.247
REMARK INTER:                  -3.247
REMARK INTRA:                   0.000
REMARK UNBOUND:                 0.000
REMARK  Name = /home/anacleto/Desktop/manuscript_Mpro/naturecomm/supplementary_file_S2/6-chemical-library/molecular_docking/3D_ligand_structure/74.pdb
REMARK  0 active torsions:
REMARK  status: ('A' for Active; 'I' for Inactive)
REMARK                            x       y       z     vdW  Elec       q    Type
REMARK                         _______ _______ _______ _____ _____    ______ ____
ROOT
ATOM      1  O1  UNL     1     -28.624  -5.435 -26.311  0.00  0.00    +0.000 OA
ATOM      2  C1  UNL     1     -28.027  -4.643 -27.022  0.00  0.00    +0.000 A 
ATOM      3  N1  UNL     1     -26.924  -4.907 -27.805  0.00  0.00    +0.000 NA
ATOM      4  C2  UNL     1     -26.529  -3.738 -28.192  0.00  0.00    +0.000 A 
ATOM      5  N2  UNL     1     -27.245  -2.662 -27.743  0.00  0.00    +0.000 N 
ATOM      6  N3  UNL     1     -28.335  -3.291 -27.115  0.00  0.00    +0.000 N 
ATOM      7  H2  UNL     1     -27.496  -1.989 -28.465  0.00  0.00    +0.000 HD
ATOM      8  H3  UNL     1     -28.719  -2.882 -26.270  0.00  0.00    +0.000 HD
ENDROOT
TORSDOF 0
ENDMDL
MODEL 8
REMARK VINA RESULT:    -3.211     20.551     20.911
REMARK INTER + INTRA:          -3.211
REMARK INTER:                  -3.211
REMARK INTRA:                   0.000
REMARK UNBOUND:                 0.000
REMARK  Name = /home/anacleto/Desktop/manuscript_Mpro/naturecomm/supplementary_file_S2/6-chemical-library/molecular_docking/3D_ligand_structure/74.pdb
REMARK  0 active torsions:
REMARK  status: ('A' for Active; 'I' for Inactive)
REMARK                            x       y       z     vdW  Elec       q    Type
REMARK                         _______ _______ _______ _____ _____    ______ ____
ROOT
ATOM      1  O1  UNL     1     -25.009  -3.631 -28.890  0.00  0.00    +0.000 OA
ATOM      2  C1  UNL     1     -26.073  -3.616 -28.292  0.00  0.00    +0.000 A 
ATOM      3  N1  UNL     1     -26.469  -4.477 -27.292  0.00  0.00    +0.000 NA
ATOM      4  C2  UNL     1     -27.724  -4.209 -27.127  0.00  0.00    +0.000 A 
ATOM      5  N2  UNL     1     -28.260  -3.240 -27.931  0.00  0.00    +0.000 N 
ATOM      6  N3  UNL     1     -27.113  -2.738 -28.572  0.00  0.00    +0.000 N 
ATOM      7  H2  UNL     1     -28.817  -2.542 -27.440  0.00  0.00    +0.000 HD
ATOM      8  H3  UNL     1     -27.178  -2.449 -29.541  0.00  0.00    +0.000 HD
ENDROOT
TORSDOF 0
ENDMDL
MODEL 9
REMARK VINA RESULT:    -3.209     29.391     29.665
REMARK INTER + INTRA:          -3.209
REMARK INTER:                  -3.209
REMARK INTRA:                   0.000
REMARK UNBOUND:                 0.000
REMARK  Name = /home/anacleto/Desktop/manuscript_Mpro/naturecomm/supplementary_file_S2/6-chemical-library/molecular_docking/3D_ligand_structure/74.pdb
REMARK  0 active torsions:
REMARK  status: ('A' for Active; 'I' for Inactive)
REMARK                            x       y       z     vdW  Elec       q    Type
REMARK                         _______ _______ _______ _____ _____    ______ ____
ROOT
ATOM      1  O1  UNL     1     -10.463  -3.619 -16.637  0.00  0.00    +0.000 OA
ATOM      2  C1  UNL     1     -10.969  -4.429 -17.396  0.00  0.00    +0.000 A 
ATOM      3  N1  UNL     1     -11.178  -5.769 -17.151  0.00  0.00    +0.000 NA
ATOM      4  C2  UNL     1     -11.530  -6.245 -18.301  0.00  0.00    +0.000 A 
ATOM      5  N2  UNL     1     -11.578  -5.365 -19.347  0.00  0.00    +0.000 N 
ATOM      6  N3  UNL     1     -11.374  -4.137 -18.692  0.00  0.00    +0.000 N 
ATOM      7  H2  UNL     1     -12.429  -5.417 -19.906  0.00  0.00    +0.000 HD
ATOM      8  H3  UNL     1     -10.834  -3.416 -19.156  0.00  0.00    +0.000 HD
ENDROOT
TORSDOF 0
ENDMDL
