MODEL 1
REMARK VINA RESULT:    -3.856      0.000      0.000
REMARK INTER + INTRA:          -4.154
REMARK INTER:                  -4.090
REMARK INTRA:                  -0.064
REMARK UNBOUND:                -0.073
REMARK  Name = /home/anacleto/Desktop/manuscript_Mpro/naturecomm/supplementary_file_S2/6-chemical-library/molecular_docking/3D_ligand_structure/1353.pdb
REMARK  1 active torsions:
REMARK  status: ('A' for Active; 'I' for Inactive)
REMARK    1  A    between atoms: C4_5  and  C5_6
REMARK                            x       y       z     vdW  Elec       q    Type
REMARK                         _______ _______ _______ _____ _____    ______ ____
ROOT
ATOM      1  C5  UNL     1      14.735  11.381  -4.583  0.00  0.00    +0.000 C 
ATOM      2  N1  UNL     1      14.450  12.639  -4.772  0.00  0.00    +0.000 NA
ATOM      3  N2  UNL     1      13.182  12.690  -5.284  0.00  0.00    +0.000 N 
ATOM      4  C6  UNL     1      12.741  11.388  -5.733  0.00  0.00    +0.000 C 
ATOM      5  C7  UNL     1      13.639  10.430  -4.983  0.00  0.00    +0.000 C 
ATOM      6  H4  UNL     1      12.952  13.542  -5.794  0.00  0.00    +0.000 HD
ENDROOT
BRANCH   1  11
ATOM      7  S1  UNL     1      16.216  10.812  -2.329  0.00  0.00    +0.000 S 
ATOM      8  C1  UNL     1      17.842  10.318  -2.510  0.00  0.00    +0.000 A 
ATOM      9  C2  UNL     1      18.221  10.268  -3.833  0.00  0.00    +0.000 A 
ATOM     10  C3  UNL     1      17.157  10.639  -4.703  0.00  0.00    +0.000 A 
ATOM     11  C4  UNL     1      15.997  10.961  -4.021  0.00  0.00    +0.000 A 
ENDBRANCH   1  11
TORSDOF 1
ENDMDL
MODEL 2
REMARK VINA RESULT:    -3.840     15.236     16.968
REMARK INTER + INTRA:          -4.138
REMARK INTER:                  -4.073
REMARK INTRA:                  -0.065
REMARK UNBOUND:                -0.073
REMARK  Name = /home/anacleto/Desktop/manuscript_Mpro/naturecomm/supplementary_file_S2/6-chemical-library/molecular_docking/3D_ligand_structure/1353.pdb
REMARK  1 active torsions:
REMARK  status: ('A' for Active; 'I' for Inactive)
REMARK    1  A    between atoms: C4_5  and  C5_6
REMARK                            x       y       z     vdW  Elec       q    Type
REMARK                         _______ _______ _______ _____ _____    ______ ____
ROOT
ATOM      1  C5  UNL     1      19.104   7.335  12.043  0.00  0.00    +0.000 C 
ATOM      2  N1  UNL     1      17.976   7.683  12.597  0.00  0.00    +0.000 NA
ATOM      3  N2  UNL     1      18.281   8.236  13.811  0.00  0.00    +0.000 N 
ATOM      4  C6  UNL     1      19.646   7.953  14.193  0.00  0.00    +0.000 C 
ATOM      5  C7  UNL     1      20.322   7.621  12.881  0.00  0.00    +0.000 C 
ATOM      6  H4  UNL     1      17.521   8.238  14.491  0.00  0.00    +0.000 HD
ENDROOT
BRANCH   1  11
ATOM      7  S1  UNL     1      18.860   5.070  10.491  0.00  0.00    +0.000 S 
ATOM      8  C1  UNL     1      19.104   5.192   8.804  0.00  0.00    +0.000 A 
ATOM      9  C2  UNL     1      19.408   6.479   8.419  0.00  0.00    +0.000 A 
ATOM     10  C3  UNL     1      19.439   7.369   9.530  0.00  0.00    +0.000 A 
ATOM     11  C4  UNL     1      19.156   6.740  10.728  0.00  0.00    +0.000 A 
ENDBRANCH   1  11
TORSDOF 1
ENDMDL
MODEL 3
REMARK VINA RESULT:    -3.738      2.160      4.079
REMARK INTER + INTRA:          -4.030
REMARK INTER:                  -3.966
REMARK INTRA:                  -0.064
REMARK UNBOUND:                -0.073
REMARK  Name = /home/anacleto/Desktop/manuscript_Mpro/naturecomm/supplementary_file_S2/6-chemical-library/molecular_docking/3D_ligand_structure/1353.pdb
REMARK  1 active torsions:
REMARK  status: ('A' for Active; 'I' for Inactive)
REMARK    1  A    between atoms: C4_5  and  C5_6
REMARK                            x       y       z     vdW  Elec       q    Type
REMARK                         _______ _______ _______ _____ _____    ______ ____
ROOT
ATOM      1  C5  UNL     1      15.248  11.564  -3.536  0.00  0.00    +0.000 C 
ATOM      2  N1  UNL     1      15.050  12.685  -2.900  0.00  0.00    +0.000 NA
ATOM      3  N2  UNL     1      15.716  12.591  -1.707  0.00  0.00    +0.000 N 
ATOM      4  C6  UNL     1      16.109  11.228  -1.428  0.00  0.00    +0.000 C 
ATOM      5  C7  UNL     1      16.091  10.566  -2.787  0.00  0.00    +0.000 C 
ATOM      6  H4  UNL     1      15.386  13.217  -0.974  0.00  0.00    +0.000 HD
ENDROOT
BRANCH   1  11
ATOM      7  S1  UNL     1      15.515  11.878  -6.261  0.00  0.00    +0.000 S 
ATOM      8  C1  UNL     1      14.304  11.246  -7.289  0.00  0.00    +0.000 A 
ATOM      9  C2  UNL     1      13.297  10.630  -6.582  0.00  0.00    +0.000 A 
ATOM     10  C3  UNL     1      13.530  10.680  -5.178  0.00  0.00    +0.000 A 
ATOM     11  C4  UNL     1      14.707  11.331  -4.854  0.00  0.00    +0.000 A 
ENDBRANCH   1  11
TORSDOF 1
ENDMDL
MODEL 4
REMARK VINA RESULT:    -3.665      1.924      2.118
REMARK INTER + INTRA:          -3.953
REMARK INTER:                  -3.874
REMARK INTRA:                  -0.079
REMARK UNBOUND:                -0.073
REMARK  Name = /home/anacleto/Desktop/manuscript_Mpro/naturecomm/supplementary_file_S2/6-chemical-library/molecular_docking/3D_ligand_structure/1353.pdb
REMARK  1 active torsions:
REMARK  status: ('A' for Active; 'I' for Inactive)
REMARK    1  A    between atoms: C4_5  and  C5_6
REMARK                            x       y       z     vdW  Elec       q    Type
REMARK                         _______ _______ _______ _____ _____    ______ ____
ROOT
ATOM      1  C5  UNL     1      14.474  11.946  -4.095  0.00  0.00    +0.000 C 
ATOM      2  N1  UNL     1      13.988  12.965  -4.746  0.00  0.00    +0.000 NA
ATOM      3  N2  UNL     1      13.200  12.462  -5.746  0.00  0.00    +0.000 N 
ATOM      4  C6  UNL     1      13.432  11.049  -5.941  0.00  0.00    +0.000 C 
ATOM      5  C7  UNL     1      14.049  10.606  -4.633  0.00  0.00    +0.000 C 
ATOM      6  H4  UNL     1      13.034  13.093  -6.529  0.00  0.00    +0.000 HD
ENDROOT
BRANCH   1  11
ATOM      7  S1  UNL     1      15.981  13.645  -2.533  0.00  0.00    +0.000 S 
ATOM      8  C1  UNL     1      16.808  13.010  -1.179  0.00  0.00    +0.000 A 
ATOM      9  C2  UNL     1      16.603  11.656  -1.039  0.00  0.00    +0.000 A 
ATOM     10  C3  UNL     1      15.754  11.141  -2.060  0.00  0.00    +0.000 A 
ATOM     11  C4  UNL     1      15.334  12.115  -2.947  0.00  0.00    +0.000 A 
ENDBRANCH   1  11
TORSDOF 1
ENDMDL
MODEL 5
REMARK VINA RESULT:    -3.655     15.088     16.715
REMARK INTER + INTRA:          -3.942
REMARK INTER:                  -3.880
REMARK INTRA:                  -0.062
REMARK UNBOUND:                -0.073
REMARK  Name = /home/anacleto/Desktop/manuscript_Mpro/naturecomm/supplementary_file_S2/6-chemical-library/molecular_docking/3D_ligand_structure/1353.pdb
REMARK  1 active torsions:
REMARK  status: ('A' for Active; 'I' for Inactive)
REMARK    1  A    between atoms: C4_5  and  C5_6
REMARK                            x       y       z     vdW  Elec       q    Type
REMARK                         _______ _______ _______ _____ _____    ______ ____
ROOT
ATOM      1  C5  UNL     1      19.396   6.750  10.401  0.00  0.00    +0.000 C 
ATOM      2  N1  UNL     1      18.766   5.647  10.107  0.00  0.00    +0.000 NA
ATOM      3  N2  UNL     1      18.734   5.555   8.742  0.00  0.00    +0.000 N 
ATOM      4  C6  UNL     1      19.092   6.810   8.120  0.00  0.00    +0.000 C 
ATOM      5  C7  UNL     1      19.852   7.542   9.204  0.00  0.00    +0.000 C 
ATOM      6  H4  UNL     1      18.002   4.956   8.363  0.00  0.00    +0.000 HD
ENDROOT
BRANCH   1  11
ATOM      7  S1  UNL     1      21.167   6.927  12.505  0.00  0.00    +0.000 S 
ATOM      8  C1  UNL     1      20.634   7.603  13.981  0.00  0.00    +0.000 A 
ATOM      9  C2  UNL     1      19.314   7.992  13.923  0.00  0.00    +0.000 A 
ATOM     10  C3  UNL     1      18.741   7.728  12.646  0.00  0.00    +0.000 A 
ATOM     11  C4  UNL     1      19.638   7.149  11.767  0.00  0.00    +0.000 A 
ENDBRANCH   1  11
TORSDOF 1
ENDMDL
MODEL 6
REMARK VINA RESULT:    -3.610      2.568      3.184
REMARK INTER + INTRA:          -3.894
REMARK INTER:                  -3.821
REMARK INTRA:                  -0.073
REMARK UNBOUND:                -0.073
REMARK  Name = /home/anacleto/Desktop/manuscript_Mpro/naturecomm/supplementary_file_S2/6-chemical-library/molecular_docking/3D_ligand_structure/1353.pdb
REMARK  1 active torsions:
REMARK  status: ('A' for Active; 'I' for Inactive)
REMARK    1  A    between atoms: C4_5  and  C5_6
REMARK                            x       y       z     vdW  Elec       q    Type
REMARK                         _______ _______ _______ _____ _____    ______ ____
ROOT
ATOM      1  C5  UNL     1      14.419  12.073  -4.569  0.00  0.00    +0.000 C 
ATOM      2  N1  UNL     1      14.135  10.839  -4.259  0.00  0.00    +0.000 NA
ATOM      3  N2  UNL     1      13.759  10.212  -5.416  0.00  0.00    +0.000 N 
ATOM      4  C6  UNL     1      13.494  11.165  -6.471  0.00  0.00    +0.000 C 
ATOM      5  C7  UNL     1      14.237  12.405  -6.026  0.00  0.00    +0.000 C 
ATOM      6  H4  UNL     1      13.192   9.374  -5.293  0.00  0.00    +0.000 HD
ENDROOT
BRANCH   1  11
ATOM      7  S1  UNL     1      16.126  12.617  -2.474  0.00  0.00    +0.000 S 
ATOM      8  C1  UNL     1      16.061  14.155  -1.732  0.00  0.00    +0.000 A 
ATOM      9  C2  UNL     1      15.111  14.967  -2.310  0.00  0.00    +0.000 A 
ATOM     10  C3  UNL     1      14.432  14.310  -3.375  0.00  0.00    +0.000 A 
ATOM     11  C4  UNL     1      14.883  13.019  -3.582  0.00  0.00    +0.000 A 
ENDBRANCH   1  11
TORSDOF 1
ENDMDL
MODEL 7
REMARK VINA RESULT:    -3.523     15.598     16.364
REMARK INTER + INTRA:          -3.802
REMARK INTER:                  -3.736
REMARK INTRA:                  -0.066
REMARK UNBOUND:                -0.073
REMARK  Name = /home/anacleto/Desktop/manuscript_Mpro/naturecomm/supplementary_file_S2/6-chemical-library/molecular_docking/3D_ligand_structure/1353.pdb
REMARK  1 active torsions:
REMARK  status: ('A' for Active; 'I' for Inactive)
REMARK    1  A    between atoms: C4_5  and  C5_6
REMARK                            x       y       z     vdW  Elec       q    Type
REMARK                         _______ _______ _______ _____ _____    ______ ____
ROOT
ATOM      1  C5  UNL     1      14.509   1.874   9.173  0.00  0.00    +0.000 C 
ATOM      2  N1  UNL     1      14.275   1.140   8.121  0.00  0.00    +0.000 NA
ATOM      3  N2  UNL     1      13.020   0.616   8.269  0.00  0.00    +0.000 N 
ATOM      4  C6  UNL     1      12.539   0.771   9.624  0.00  0.00    +0.000 C 
ATOM      5  C7  UNL     1      13.385   1.897  10.175  0.00  0.00    +0.000 C 
ATOM      6  H4  UNL     1      12.832  -0.225   7.725  0.00  0.00    +0.000 HD
ENDROOT
BRANCH   1  11
ATOM      7  S1  UNL     1      16.298   3.093  10.878  0.00  0.00    +0.000 S 
ATOM      8  C1  UNL     1      17.692   3.835  10.223  0.00  0.00    +0.000 A 
ATOM      9  C2  UNL     1      17.740   3.720   8.852  0.00  0.00    +0.000 A 
ATOM     10  C3  UNL     1      16.615   3.013   8.340  0.00  0.00    +0.000 A 
ATOM     11  C4  UNL     1      15.743   2.606   9.333  0.00  0.00    +0.000 A 
ENDBRANCH   1  11
TORSDOF 1
ENDMDL
MODEL 8
REMARK VINA RESULT:    -3.520      4.152      4.950
REMARK INTER + INTRA:          -3.799
REMARK INTER:                  -3.736
REMARK INTRA:                  -0.064
REMARK UNBOUND:                -0.073
REMARK  Name = /home/anacleto/Desktop/manuscript_Mpro/naturecomm/supplementary_file_S2/6-chemical-library/molecular_docking/3D_ligand_structure/1353.pdb
REMARK  1 active torsions:
REMARK  status: ('A' for Active; 'I' for Inactive)
REMARK    1  A    between atoms: C4_5  and  C5_6
REMARK                            x       y       z     vdW  Elec       q    Type
REMARK                         _______ _______ _______ _____ _____    ______ ____
ROOT
ATOM      1  C5  UNL     1      16.860  12.695  -1.271  0.00  0.00    +0.000 C 
ATOM      2  N1  UNL     1      16.470  11.582  -0.716  0.00  0.00    +0.000 NA
ATOM      3  N2  UNL     1      15.584  10.994  -1.578  0.00  0.00    +0.000 N 
ATOM      4  C6  UNL     1      15.147  11.919  -2.599  0.00  0.00    +0.000 C 
ATOM      5  C7  UNL     1      16.230  12.975  -2.609  0.00  0.00    +0.000 C 
ATOM      6  H4  UNL     1      14.948  10.319  -1.155  0.00  0.00    +0.000 HD
ENDROOT
BRANCH   1  11
ATOM      7  S1  UNL     1      17.420  15.155  -0.161  0.00  0.00    +0.000 S 
ATOM      8  C1  UNL     1      18.993  15.455   0.436  0.00  0.00    +0.000 A 
ATOM      9  C2  UNL     1      19.821  14.368   0.275  0.00  0.00    +0.000 A 
ATOM     10  C3  UNL     1      19.148  13.278  -0.347  0.00  0.00    +0.000 A 
ATOM     11  C4  UNL     1      17.827  13.563  -0.641  0.00  0.00    +0.000 A 
ENDBRANCH   1  11
TORSDOF 1
ENDMDL
MODEL 9
REMARK VINA RESULT:    -3.434     17.979     19.018
REMARK INTER + INTRA:          -3.708
REMARK INTER:                  -3.634
REMARK INTRA:                  -0.073
REMARK UNBOUND:                -0.073
REMARK  Name = /home/anacleto/Desktop/manuscript_Mpro/naturecomm/supplementary_file_S2/6-chemical-library/molecular_docking/3D_ligand_structure/1353.pdb
REMARK  1 active torsions:
REMARK  status: ('A' for Active; 'I' for Inactive)
REMARK    1  A    between atoms: C4_5  and  C5_6
REMARK                            x       y       z     vdW  Elec       q    Type
REMARK                         _______ _______ _______ _____ _____    ______ ____
ROOT
ATOM      1  C5  UNL     1      24.259  16.700  10.699  0.00  0.00    +0.000 C 
ATOM      2  N1  UNL     1      24.670  17.193   9.564  0.00  0.00    +0.000 NA
ATOM      3  N2  UNL     1      25.285  16.175   8.886  0.00  0.00    +0.000 N 
ATOM      4  C6  UNL     1      25.554  15.049   9.752  0.00  0.00    +0.000 C 
ATOM      5  C7  UNL     1      24.589  15.245  10.900  0.00  0.00    +0.000 C 
ATOM      6  H4  UNL     1      25.942  16.468   8.164  0.00  0.00    +0.000 HD
ENDROOT
BRANCH   1  11
ATOM      7  S1  UNL     1      23.943  19.138  11.946  0.00  0.00    +0.000 S 
ATOM      8  C1  UNL     1      22.712  19.315  13.117  0.00  0.00    +0.000 A 
ATOM      9  C2  UNL     1      21.999  18.151  13.296  0.00  0.00    +0.000 A 
ATOM     10  C3  UNL     1      22.476  17.105  12.456  0.00  0.00    +0.000 A 
ATOM     11  C4  UNL     1      23.536  17.500  11.660  0.00  0.00    +0.000 A 
ENDBRANCH   1  11
TORSDOF 1
ENDMDL
