MODEL 1
REMARK VINA RESULT:    -5.415      0.000      0.000
REMARK INTER + INTRA:          -6.579
REMARK INTER:                  -6.310
REMARK INTRA:                  -0.268
REMARK UNBOUND:                -0.214
REMARK  Name = /home/anacleto/Desktop/manuscript_Mpro/naturecomm/supplementary_file_S2/6-chemical-library/molecular_docking/3D_ligand_structure/682.pdb
REMARK  3 active torsions:
REMARK  status: ('A' for Active; 'I' for Inactive)
REMARK    1  A    between atoms: C5_7  and  C6_9
REMARK    2  A    between atoms: C6_9  and  N3_10
REMARK    3  A    between atoms: N3_10  and  C7_11
REMARK                            x       y       z     vdW  Elec       q    Type
REMARK                         _______ _______ _______ _____ _____    ______ ____
ROOT
ATOM      1  C1  UNL     1     -21.285   7.195 -37.901  0.00  0.00    +0.000 C 
ATOM      2  C2  UNL     1     -20.170   8.178 -38.301  0.00  0.00    +0.000 C 
ATOM      3  N1  UNL     1     -20.174   9.448 -37.554  0.00  0.00    +0.000 NA
ATOM      4  C3  UNL     1     -21.519   9.823 -37.089  0.00  0.00    +0.000 C 
ATOM      5  C4  UNL     1     -22.682   9.253 -37.919  0.00  0.00    +0.000 C 
ATOM      6  N2  UNL     1     -22.618   7.795 -38.036  0.00  0.00    +0.000 N 
ATOM      7  C5  UNL     1     -23.793   7.082 -38.233  0.00  0.00    +0.000 C 
ATOM      8  O1  UNL     1     -24.879   7.650 -38.370  0.00  0.00    +0.000 OA
ATOM      9  H5  UNL     1     -19.799  10.182 -38.155  0.00  0.00    +0.000 HD
ENDROOT
BRANCH   7  10
ATOM     10  C6  UNL     1     -23.713   5.547 -38.290  0.00  0.00    +0.000 C 
BRANCH  10  11
ATOM     11  N3  UNL     1     -24.577   5.014 -39.351  0.00  0.00    +0.000 N 
ATOM     12  H12 UNL     1     -24.032   4.585 -40.098  0.00  0.00    +0.000 HD
BRANCH  11  13
ATOM     13  C7  UNL     1     -25.681   4.226 -39.008  0.00  0.00    +0.000 A 
ATOM     14  C8  UNL     1     -25.580   2.947 -38.451  0.00  0.00    +0.000 A 
ATOM     15  C9  UNL     1     -26.720   2.236 -38.058  0.00  0.00    +0.000 A 
ATOM     16  C10 UNL     1     -27.982   2.808 -38.188  0.00  0.00    +0.000 A 
ATOM     17  C11 UNL     1     -28.101   4.096 -38.700  0.00  0.00    +0.000 A 
ATOM     18  C12 UNL     1     -26.959   4.800 -39.092  0.00  0.00    +0.000 A 
ENDBRANCH  11  13
ENDBRANCH  10  11
ENDBRANCH   7  10
TORSDOF 3
ENDMDL
MODEL 2
REMARK VINA RESULT:    -5.290      1.185      2.048
REMARK INTER + INTRA:          -6.432
REMARK INTER:                  -6.222
REMARK INTRA:                  -0.210
REMARK UNBOUND:                -0.214
REMARK  Name = /home/anacleto/Desktop/manuscript_Mpro/naturecomm/supplementary_file_S2/6-chemical-library/molecular_docking/3D_ligand_structure/682.pdb
REMARK  3 active torsions:
REMARK  status: ('A' for Active; 'I' for Inactive)
REMARK    1  A    between atoms: C5_7  and  C6_9
REMARK    2  A    between atoms: C6_9  and  N3_10
REMARK    3  A    between atoms: N3_10  and  C7_11
REMARK                            x       y       z     vdW  Elec       q    Type
REMARK                         _______ _______ _______ _____ _____    ______ ____
ROOT
ATOM      1  C1  UNL     1     -23.418   9.128 -38.166  0.00  0.00    +0.000 C 
ATOM      2  C2  UNL     1     -23.052  10.306 -37.244  0.00  0.00    +0.000 C 
ATOM      3  N1  UNL     1     -21.638  10.715 -37.302  0.00  0.00    +0.000 NA
ATOM      4  C3  UNL     1     -20.745   9.603 -37.665  0.00  0.00    +0.000 C 
ATOM      5  C4  UNL     1     -21.271   8.200 -37.318  0.00  0.00    +0.000 C 
ATOM      6  N2  UNL     1     -22.592   7.944 -37.894  0.00  0.00    +0.000 N 
ATOM      7  C5  UNL     1     -22.966   6.636 -38.171  0.00  0.00    +0.000 C 
ATOM      8  O1  UNL     1     -22.237   5.682 -37.889  0.00  0.00    +0.000 OA
ATOM      9  H5  UNL     1     -21.369  11.093 -36.394  0.00  0.00    +0.000 HD
ENDROOT
BRANCH   7  10
ATOM     10  C6  UNL     1     -24.332   6.393 -38.834  0.00  0.00    +0.000 C 
BRANCH  10  11
ATOM     11  N3  UNL     1     -24.496   4.981 -39.201  0.00  0.00    +0.000 N 
ATOM     12  H12 UNL     1     -23.662   4.437 -38.980  0.00  0.00    +0.000 HD
BRANCH  11  13
ATOM     13  C7  UNL     1     -25.661   4.303 -38.825  0.00  0.00    +0.000 A 
ATOM     14  C8  UNL     1     -26.952   4.789 -39.057  0.00  0.00    +0.000 A 
ATOM     15  C9  UNL     1     -28.081   4.030 -38.726  0.00  0.00    +0.000 A 
ATOM     16  C10 UNL     1     -27.936   2.757 -38.183  0.00  0.00    +0.000 A 
ATOM     17  C11 UNL     1     -26.661   2.239 -37.984  0.00  0.00    +0.000 A 
ATOM     18  C12 UNL     1     -25.537   3.002 -38.315  0.00  0.00    +0.000 A 
ENDBRANCH  11  13
ENDBRANCH  10  11
ENDBRANCH   7  10
TORSDOF 3
ENDMDL
MODEL 3
REMARK VINA RESULT:    -5.075      2.984      6.418
REMARK INTER + INTRA:          -6.179
REMARK INTER:                  -5.858
REMARK INTRA:                  -0.321
REMARK UNBOUND:                -0.214
REMARK  Name = /home/anacleto/Desktop/manuscript_Mpro/naturecomm/supplementary_file_S2/6-chemical-library/molecular_docking/3D_ligand_structure/682.pdb
REMARK  3 active torsions:
REMARK  status: ('A' for Active; 'I' for Inactive)
REMARK    1  A    between atoms: C5_7  and  C6_9
REMARK    2  A    between atoms: C6_9  and  N3_10
REMARK    3  A    between atoms: N3_10  and  C7_11
REMARK                            x       y       z     vdW  Elec       q    Type
REMARK                         _______ _______ _______ _____ _____    ______ ____
ROOT
ATOM      1  C1  UNL     1     -27.888   6.219 -39.458  0.00  0.00    +0.000 C 
ATOM      2  C2  UNL     1     -29.118   6.976 -39.991  0.00  0.00    +0.000 C 
ATOM      3  N1  UNL     1     -30.139   7.282 -38.974  0.00  0.00    +0.000 NA
ATOM      4  C3  UNL     1     -30.146   6.308 -37.871  0.00  0.00    +0.000 C 
ATOM      5  C4  UNL     1     -29.611   4.910 -38.229  0.00  0.00    +0.000 C 
ATOM      6  N2  UNL     1     -28.263   4.961 -38.799  0.00  0.00    +0.000 N 
ATOM      7  C5  UNL     1     -27.430   3.860 -38.660  0.00  0.00    +0.000 C 
ATOM      8  O1  UNL     1     -27.818   2.819 -38.121  0.00  0.00    +0.000 OA
ATOM      9  H5  UNL     1     -31.054   7.302 -39.424  0.00  0.00    +0.000 HD
ENDROOT
BRANCH   7  10
ATOM     10  C6  UNL     1     -25.997   3.956 -39.210  0.00  0.00    +0.000 C 
BRANCH  10  11
ATOM     11  N3  UNL     1     -25.055   4.360 -38.158  0.00  0.00    +0.000 N 
ATOM     12  H12 UNL     1     -24.727   3.558 -37.620  0.00  0.00    +0.000 HD
BRANCH  11  13
ATOM     13  C7  UNL     1     -24.003   5.227 -38.473  0.00  0.00    +0.000 A 
ATOM     14  C8  UNL     1     -22.966   5.544 -37.590  0.00  0.00    +0.000 A 
ATOM     15  C9  UNL     1     -21.899   6.359 -37.987  0.00  0.00    +0.000 A 
ATOM     16  C10 UNL     1     -21.838   6.847 -39.289  0.00  0.00    +0.000 A 
ATOM     17  C11 UNL     1     -22.837   6.509 -40.196  0.00  0.00    +0.000 A 
ATOM     18  C12 UNL     1     -23.900   5.695 -39.792  0.00  0.00    +0.000 A 
ENDBRANCH  11  13
ENDBRANCH  10  11
ENDBRANCH   7  10
TORSDOF 3
ENDMDL
MODEL 4
REMARK VINA RESULT:    -4.880     15.974     18.008
REMARK INTER + INTRA:          -5.950
REMARK INTER:                  -5.569
REMARK INTRA:                  -0.381
REMARK UNBOUND:                -0.214
REMARK  Name = /home/anacleto/Desktop/manuscript_Mpro/naturecomm/supplementary_file_S2/6-chemical-library/molecular_docking/3D_ligand_structure/682.pdb
REMARK  3 active torsions:
REMARK  status: ('A' for Active; 'I' for Inactive)
REMARK    1  A    between atoms: C5_7  and  C6_9
REMARK    2  A    between atoms: C6_9  and  N3_10
REMARK    3  A    between atoms: N3_10  and  C7_11
REMARK                            x       y       z     vdW  Elec       q    Type
REMARK                         _______ _______ _______ _____ _____    ______ ____
ROOT
ATOM      1  C1  UNL     1     -26.938  -6.285 -25.181  0.00  0.00    +0.000 C 
ATOM      2  C2  UNL     1     -27.971  -6.032 -24.068  0.00  0.00    +0.000 C 
ATOM      3  N1  UNL     1     -29.361  -6.356 -24.434  0.00  0.00    +0.000 NA
ATOM      4  C3  UNL     1     -29.609  -6.220 -25.879  0.00  0.00    +0.000 C 
ATOM      5  C4  UNL     1     -28.682  -5.235 -26.612  0.00  0.00    +0.000 C 
ATOM      6  N2  UNL     1     -27.267  -5.549 -26.409  0.00  0.00    +0.000 N 
ATOM      7  C5  UNL     1     -26.346  -5.171 -27.377  0.00  0.00    +0.000 C 
ATOM      8  O1  UNL     1     -26.684  -4.526 -28.373  0.00  0.00    +0.000 OA
ATOM      9  H5  UNL     1     -29.988  -5.742 -23.916  0.00  0.00    +0.000 HD
ENDROOT
BRANCH   7  10
ATOM     10  C6  UNL     1     -24.873  -5.565 -27.176  0.00  0.00    +0.000 C 
BRANCH  10  11
ATOM     11  N3  UNL     1     -24.040  -4.380 -26.933  0.00  0.00    +0.000 N 
ATOM     12  H12 UNL     1     -24.404  -3.560 -27.417  0.00  0.00    +0.000 HD
BRANCH  11  13
ATOM     13  C7  UNL     1     -23.653  -4.068 -25.625  0.00  0.00    +0.000 A 
ATOM     14  C8  UNL     1     -24.322  -3.145 -24.814  0.00  0.00    +0.000 A 
ATOM     15  C9  UNL     1     -23.933  -2.930 -23.487  0.00  0.00    +0.000 A 
ATOM     16  C10 UNL     1     -22.883  -3.660 -22.938  0.00  0.00    +0.000 A 
ATOM     17  C11 UNL     1     -22.232  -4.613 -23.713  0.00  0.00    +0.000 A 
ATOM     18  C12 UNL     1     -22.625  -4.822 -25.039  0.00  0.00    +0.000 A 
ENDBRANCH  11  13
ENDBRANCH  10  11
ENDBRANCH   7  10
TORSDOF 3
ENDMDL
MODEL 5
REMARK VINA RESULT:    -4.828      1.845      6.909
REMARK INTER + INTRA:          -5.889
REMARK INTER:                  -5.648
REMARK INTRA:                  -0.241
REMARK UNBOUND:                -0.214
REMARK  Name = /home/anacleto/Desktop/manuscript_Mpro/naturecomm/supplementary_file_S2/6-chemical-library/molecular_docking/3D_ligand_structure/682.pdb
REMARK  3 active torsions:
REMARK  status: ('A' for Active; 'I' for Inactive)
REMARK    1  A    between atoms: C5_7  and  C6_9
REMARK    2  A    between atoms: C6_9  and  N3_10
REMARK    3  A    between atoms: N3_10  and  C7_11
REMARK                            x       y       z     vdW  Elec       q    Type
REMARK                         _______ _______ _______ _____ _____    ______ ____
ROOT
ATOM      1  C1  UNL     1     -27.579   4.883 -39.508  0.00  0.00    +0.000 C 
ATOM      2  C2  UNL     1     -28.395   3.783 -40.212  0.00  0.00    +0.000 C 
ATOM      3  N1  UNL     1     -28.704   2.613 -39.372  0.00  0.00    +0.000 NA
ATOM      4  C3  UNL     1     -27.694   2.391 -38.324  0.00  0.00    +0.000 C 
ATOM      5  C4  UNL     1     -26.292   2.939 -38.639  0.00  0.00    +0.000 C 
ATOM      6  N2  UNL     1     -26.315   4.365 -38.970  0.00  0.00    +0.000 N 
ATOM      7  C5  UNL     1     -25.181   5.131 -38.734  0.00  0.00    +0.000 C 
ATOM      8  O1  UNL     1     -24.138   4.628 -38.309  0.00  0.00    +0.000 OA
ATOM      9  H5  UNL     1     -28.770   1.789 -39.970  0.00  0.00    +0.000 HD
ENDROOT
BRANCH   7  10
ATOM     10  C6  UNL     1     -25.245   6.639 -39.030  0.00  0.00    +0.000 C 
BRANCH  10  11
ATOM     11  N3  UNL     1     -23.918   7.166 -39.369  0.00  0.00    +0.000 N 
ATOM     12  H12 UNL     1     -23.918   7.627 -40.278  0.00  0.00    +0.000 HD
BRANCH  11  13
ATOM     13  C7  UNL     1     -23.211   7.913 -38.419  0.00  0.00    +0.000 A 
ATOM     14  C8  UNL     1     -21.916   7.601 -37.992  0.00  0.00    +0.000 A 
ATOM     15  C9  UNL     1     -21.231   8.430 -37.095  0.00  0.00    +0.000 A 
ATOM     16  C10 UNL     1     -21.821   9.602 -36.633  0.00  0.00    +0.000 A 
ATOM     17  C11 UNL     1     -23.091   9.952 -37.079  0.00  0.00    +0.000 A 
ATOM     18  C12 UNL     1     -23.770   9.120 -37.974  0.00  0.00    +0.000 A 
ENDBRANCH  11  13
ENDBRANCH  10  11
ENDBRANCH   7  10
TORSDOF 3
ENDMDL
MODEL 6
REMARK VINA RESULT:    -4.676     13.915     15.498
REMARK INTER + INTRA:          -5.710
REMARK INTER:                  -5.307
REMARK INTRA:                  -0.403
REMARK UNBOUND:                -0.214
REMARK  Name = /home/anacleto/Desktop/manuscript_Mpro/naturecomm/supplementary_file_S2/6-chemical-library/molecular_docking/3D_ligand_structure/682.pdb
REMARK  3 active torsions:
REMARK  status: ('A' for Active; 'I' for Inactive)
REMARK    1  A    between atoms: C5_7  and  C6_9
REMARK    2  A    between atoms: C6_9  and  N3_10
REMARK    3  A    between atoms: N3_10  and  C7_11
REMARK                            x       y       z     vdW  Elec       q    Type
REMARK                         _______ _______ _______ _____ _____    ______ ____
ROOT
ATOM      1  C1  UNL     1     -21.426  -3.678 -28.357  0.00  0.00    +0.000 C 
ATOM      2  C2  UNL     1     -20.215  -4.333 -27.670  0.00  0.00    +0.000 C 
ATOM      3  N1  UNL     1     -19.284  -5.017 -28.585  0.00  0.00    +0.000 NA
ATOM      4  C3  UNL     1     -19.952  -5.515 -29.798  0.00  0.00    +0.000 C 
ATOM      5  C4  UNL     1     -21.455  -5.806 -29.645  0.00  0.00    +0.000 C 
ATOM      6  N2  UNL     1     -22.197  -4.647 -29.146  0.00  0.00    +0.000 N 
ATOM      7  C5  UNL     1     -23.542  -4.519 -29.464  0.00  0.00    +0.000 C 
ATOM      8  O1  UNL     1     -24.141  -5.387 -30.106  0.00  0.00    +0.000 OA
ATOM      9  H5  UNL     1     -18.847  -5.792 -28.087  0.00  0.00    +0.000 HD
ENDROOT
BRANCH   7  10
ATOM     10  C6  UNL     1     -24.289  -3.263 -28.984  0.00  0.00    +0.000 C 
BRANCH  10  11
ATOM     11  N3  UNL     1     -25.510  -3.624 -28.253  0.00  0.00    +0.000 N 
ATOM     12  H12 UNL     1     -26.157  -4.150 -28.839  0.00  0.00    +0.000 HD
BRANCH  11  13
ATOM     13  C7  UNL     1     -25.406  -4.190 -26.977  0.00  0.00    +0.000 A 
ATOM     14  C8  UNL     1     -24.468  -3.784 -26.021  0.00  0.00    +0.000 A 
ATOM     15  C9  UNL     1     -24.462  -4.336 -24.734  0.00  0.00    +0.000 A 
ATOM     16  C10 UNL     1     -25.415  -5.282 -24.373  0.00  0.00    +0.000 A 
ATOM     17  C11 UNL     1     -26.382  -5.668 -25.294  0.00  0.00    +0.000 A 
ATOM     18  C12 UNL     1     -26.383  -5.114 -26.578  0.00  0.00    +0.000 A 
ENDBRANCH  11  13
ENDBRANCH  10  11
ENDBRANCH   7  10
TORSDOF 3
ENDMDL
MODEL 7
REMARK VINA RESULT:    -4.647      3.155      7.052
REMARK INTER + INTRA:          -5.676
REMARK INTER:                  -5.452
REMARK INTRA:                  -0.224
REMARK UNBOUND:                -0.214
REMARK  Name = /home/anacleto/Desktop/manuscript_Mpro/naturecomm/supplementary_file_S2/6-chemical-library/molecular_docking/3D_ligand_structure/682.pdb
REMARK  3 active torsions:
REMARK  status: ('A' for Active; 'I' for Inactive)
REMARK    1  A    between atoms: C5_7  and  C6_9
REMARK    2  A    between atoms: C6_9  and  N3_10
REMARK    3  A    between atoms: N3_10  and  C7_11
REMARK                            x       y       z     vdW  Elec       q    Type
REMARK                         _______ _______ _______ _____ _____    ______ ____
ROOT
ATOM      1  C1  UNL     1     -28.886   5.158 -38.322  0.00  0.00    +0.000 C 
ATOM      2  C2  UNL     1     -30.099   6.008 -37.903  0.00  0.00    +0.000 C 
ATOM      3  N1  UNL     1     -31.405   5.453 -38.297  0.00  0.00    +0.000 NA
ATOM      4  C3  UNL     1     -31.321   4.622 -39.510  0.00  0.00    +0.000 C 
ATOM      5  C4  UNL     1     -30.153   4.959 -40.454  0.00  0.00    +0.000 C 
ATOM      6  N2  UNL     1     -28.859   4.921 -39.772  0.00  0.00    +0.000 N 
ATOM      7  C5  UNL     1     -27.716   4.642 -40.508  0.00  0.00    +0.000 C 
ATOM      8  O1  UNL     1     -27.757   4.484 -41.731  0.00  0.00    +0.000 OA
ATOM      9  H5  UNL     1     -32.055   6.223 -38.450  0.00  0.00    +0.000 HD
ENDROOT
BRANCH   7  10
ATOM     10  C6  UNL     1     -26.374   4.545 -39.763  0.00  0.00    +0.000 C 
BRANCH  10  11
ATOM     11  N3  UNL     1     -25.354   5.384 -40.405  0.00  0.00    +0.000 N 
ATOM     12  H12 UNL     1     -25.760   6.230 -40.804  0.00  0.00    +0.000 HD
BRANCH  11  13
ATOM     13  C7  UNL     1     -24.164   5.663 -39.723  0.00  0.00    +0.000 A 
ATOM     14  C8  UNL     1     -23.102   6.385 -40.276  0.00  0.00    +0.000 A 
ATOM     15  C9  UNL     1     -21.967   6.699 -39.519  0.00  0.00    +0.000 A 
ATOM     16  C10 UNL     1     -21.889   6.319 -38.182  0.00  0.00    +0.000 A 
ATOM     17  C11 UNL     1     -22.953   5.637 -37.601  0.00  0.00    +0.000 A 
ATOM     18  C12 UNL     1     -24.083   5.326 -38.363  0.00  0.00    +0.000 A 
ENDBRANCH  11  13
ENDBRANCH  10  11
ENDBRANCH   7  10
TORSDOF 3
ENDMDL
MODEL 8
REMARK VINA RESULT:    -4.599     14.431     16.325
REMARK INTER + INTRA:          -5.619
REMARK INTER:                  -5.290
REMARK INTRA:                  -0.329
REMARK UNBOUND:                -0.214
REMARK  Name = /home/anacleto/Desktop/manuscript_Mpro/naturecomm/supplementary_file_S2/6-chemical-library/molecular_docking/3D_ligand_structure/682.pdb
REMARK  3 active torsions:
REMARK  status: ('A' for Active; 'I' for Inactive)
REMARK    1  A    between atoms: C5_7  and  C6_9
REMARK    2  A    between atoms: C6_9  and  N3_10
REMARK    3  A    between atoms: N3_10  and  C7_11
REMARK                            x       y       z     vdW  Elec       q    Type
REMARK                         _______ _______ _______ _____ _____    ______ ____
ROOT
ATOM      1  C1  UNL     1     -25.254  -6.549 -29.724  0.00  0.00    +0.000 C 
ATOM      2  C2  UNL     1     -24.985  -7.345 -31.014  0.00  0.00    +0.000 C 
ATOM      3  N1  UNL     1     -23.585  -7.766 -31.196  0.00  0.00    +0.000 NA
ATOM      4  C3  UNL     1     -22.633  -6.856 -30.538  0.00  0.00    +0.000 C 
ATOM      5  C4  UNL     1     -23.131  -5.412 -30.350  0.00  0.00    +0.000 C 
ATOM      6  N2  UNL     1     -24.406  -5.354 -29.632  0.00  0.00    +0.000 N 
ATOM      7  C5  UNL     1     -24.717  -4.215 -28.901  0.00  0.00    +0.000 C 
ATOM      8  O1  UNL     1     -23.973  -3.231 -28.890  0.00  0.00    +0.000 OA
ATOM      9  H5  UNL     1     -23.384  -7.813 -32.195  0.00  0.00    +0.000 HD
ENDROOT
BRANCH   7  10
ATOM     10  C6  UNL     1     -26.032  -4.198 -28.104  0.00  0.00    +0.000 C 
BRANCH  10  11
ATOM     11  N3  UNL     1     -25.893  -3.399 -26.879  0.00  0.00    +0.000 N 
ATOM     12  H12 UNL     1     -26.746  -2.880 -26.671  0.00  0.00    +0.000 HD
BRANCH  11  13
ATOM     13  C7  UNL     1     -25.366  -3.993 -25.727  0.00  0.00    +0.000 A 
ATOM     14  C8  UNL     1     -24.489  -3.346 -24.849  0.00  0.00    +0.000 A 
ATOM     15  C9  UNL     1     -24.055  -3.966 -23.672  0.00  0.00    +0.000 A 
ATOM     16  C10 UNL     1     -24.515  -5.235 -23.337  0.00  0.00    +0.000 A 
ATOM     17  C11 UNL     1     -25.420  -5.879 -24.173  0.00  0.00    +0.000 A 
ATOM     18  C12 UNL     1     -25.850  -5.255 -25.349  0.00  0.00    +0.000 A 
ENDBRANCH  11  13
ENDBRANCH  10  11
ENDBRANCH   7  10
TORSDOF 3
ENDMDL
MODEL 9
REMARK VINA RESULT:    -4.592     25.832     27.571
REMARK INTER + INTRA:          -5.611
REMARK INTER:                  -5.397
REMARK INTRA:                  -0.214
REMARK UNBOUND:                -0.214
REMARK  Name = /home/anacleto/Desktop/manuscript_Mpro/naturecomm/supplementary_file_S2/6-chemical-library/molecular_docking/3D_ligand_structure/682.pdb
REMARK  3 active torsions:
REMARK  status: ('A' for Active; 'I' for Inactive)
REMARK    1  A    between atoms: C5_7  and  C6_9
REMARK    2  A    between atoms: C6_9  and  N3_10
REMARK    3  A    between atoms: N3_10  and  C7_11
REMARK                            x       y       z     vdW  Elec       q    Type
REMARK                         _______ _______ _______ _____ _____    ______ ____
ROOT
ATOM      1  C1  UNL     1     -37.279   2.182 -17.033  0.00  0.00    +0.000 C 
ATOM      2  C2  UNL     1     -37.219   0.887 -17.864  0.00  0.00    +0.000 C 
ATOM      3  N1  UNL     1     -38.370   0.677 -18.758  0.00  0.00    +0.000 NA
ATOM      4  C3  UNL     1     -39.598   1.315 -18.255  0.00  0.00    +0.000 C 
ATOM      5  C4  UNL     1     -39.656   1.512 -16.731  0.00  0.00    +0.000 C 
ATOM      6  N2  UNL     1     -38.501   2.256 -16.223  0.00  0.00    +0.000 N 
ATOM      7  C5  UNL     1     -38.634   2.992 -15.054  0.00  0.00    +0.000 C 
ATOM      8  O1  UNL     1     -39.682   2.987 -14.402  0.00  0.00    +0.000 OA
ATOM      9  H5  UNL     1     -38.521  -0.326 -18.868  0.00  0.00    +0.000 HD
ENDROOT
BRANCH   7  10
ATOM     10  C6  UNL     1     -37.429   3.817 -14.571  0.00  0.00    +0.000 C 
BRANCH  10  11
ATOM     11  N3  UNL     1     -37.340   5.092 -15.294  0.00  0.00    +0.000 N 
ATOM     12  H12 UNL     1     -37.781   5.034 -16.212  0.00  0.00    +0.000 HD
BRANCH  11  13
ATOM     13  C7  UNL     1     -37.681   6.280 -14.639  0.00  0.00    +0.000 A 
ATOM     14  C8  UNL     1     -37.686   7.535 -15.256  0.00  0.00    +0.000 A 
ATOM     15  C9  UNL     1     -38.111   8.678 -14.569  0.00  0.00    +0.000 A 
ATOM     16  C10 UNL     1     -38.566   8.580 -13.259  0.00  0.00    +0.000 A 
ATOM     17  C11 UNL     1     -38.610   7.335 -12.640  0.00  0.00    +0.000 A 
ATOM     18  C12 UNL     1     -38.184   6.197 -13.331  0.00  0.00    +0.000 A 
ENDBRANCH  11  13
ENDBRANCH  10  11
ENDBRANCH   7  10
TORSDOF 3
ENDMDL
