MODEL 1
REMARK VINA RESULT:    -5.498      0.000      0.000
REMARK INTER + INTRA:          -6.983
REMARK INTER:                  -6.491
REMARK INTRA:                  -0.493
REMARK UNBOUND:                -0.521
REMARK  Name = /home/anacleto/Desktop/manuscript_Mpro/naturecomm/supplementary_file_S2/6-chemical-library/molecular_docking/3D_ligand_structure/704.pdb
REMARK  3 active torsions:
REMARK  status: ('A' for Active; 'I' for Inactive)
REMARK    1  A    between atoms: C4_8  and  C5_9
REMARK    2  A    between atoms: C5_9  and  N3_10
REMARK    3  A    between atoms: N3_10  and  C6_11
REMARK                            x       y       z     vdW  Elec       q    Type
REMARK                         _______ _______ _______ _____ _____    ______ ____
ROOT
ATOM      1  C1  UNL     1     -37.271   8.501 -15.711  0.00  0.00    +0.000 A 
ATOM      2  N1  UNL     1     -38.002   9.580 -16.121  0.00  0.00    +0.000 N 
ATOM      3  C2  UNL     1     -39.294   9.810 -15.738  0.00  0.00    +0.000 A 
ATOM      4  O1  UNL     1     -39.927  10.785 -16.129  0.00  0.00    +0.000 OA
ATOM      5  N2  UNL     1     -39.829   8.881 -14.891  0.00  0.00    +0.000 N 
ATOM      6  C3  UNL     1     -39.190   7.757 -14.443  0.00  0.00    +0.000 A 
ATOM      7  O2  UNL     1     -39.748   6.945 -13.714  0.00  0.00    +0.000 OA
ATOM      8  C4  UNL     1     -37.789   7.571 -14.896  0.00  0.00    +0.000 A 
ATOM      9  H2  UNL     1     -37.601  10.267 -16.752  0.00  0.00    +0.000 HD
ATOM     10  H3  UNL     1     -40.784   9.020 -14.604  0.00  0.00    +0.000 HD
ENDROOT
BRANCH   8  11
ATOM     11  C5  UNL     1     -37.035   6.385 -14.380  0.00  0.00    +0.000 C 
BRANCH  11  12
ATOM     12  N3  UNL     1     -37.252   5.266 -15.290  0.00  0.00    +0.000 N 
ATOM     13  H6  UNL     1     -37.886   5.525 -16.047  0.00  0.00    +0.000 HD
BRANCH  12  14
ATOM     14  C6  UNL     1     -37.630   4.020 -14.769  0.00  0.00    +0.000 A 
ATOM     15  C7  UNL     1     -37.994   3.953 -13.415  0.00  0.00    +0.000 A 
ATOM     16  C8  UNL     1     -38.445   2.763 -12.837  0.00  0.00    +0.000 A 
ATOM     17  C9  UNL     1     -38.568   1.617 -13.614  0.00  0.00    +0.000 A 
ATOM     18  C10 UNL     1     -38.253   1.670 -14.968  0.00  0.00    +0.000 A 
ATOM     19  C11 UNL     1     -37.802   2.865 -15.542  0.00  0.00    +0.000 A 
ENDBRANCH  12  14
ENDBRANCH  11  12
ENDBRANCH   8  11
TORSDOF 3
ENDMDL
MODEL 2
REMARK VINA RESULT:    -5.251     19.084     20.214
REMARK INTER + INTRA:          -6.694
REMARK INTER:                  -6.060
REMARK INTRA:                  -0.634
REMARK UNBOUND:                -0.521
REMARK  Name = /home/anacleto/Desktop/manuscript_Mpro/naturecomm/supplementary_file_S2/6-chemical-library/molecular_docking/3D_ligand_structure/704.pdb
REMARK  3 active torsions:
REMARK  status: ('A' for Active; 'I' for Inactive)
REMARK    1  A    between atoms: C4_8  and  C5_9
REMARK    2  A    between atoms: C5_9  and  N3_10
REMARK    3  A    between atoms: N3_10  and  C6_11
REMARK                            x       y       z     vdW  Elec       q    Type
REMARK                         _______ _______ _______ _____ _____    ______ ____
ROOT
ATOM      1  C1  UNL     1     -26.961  -6.401 -26.175  0.00  0.00    +0.000 A 
ATOM      2  N1  UNL     1     -28.224  -6.825 -25.873  0.00  0.00    +0.000 N 
ATOM      3  C2  UNL     1     -29.355  -6.127 -26.195  0.00  0.00    +0.000 A 
ATOM      4  O1  UNL     1     -30.475  -6.529 -25.905  0.00  0.00    +0.000 OA
ATOM      5  N2  UNL     1     -29.148  -4.952 -26.862  0.00  0.00    +0.000 N 
ATOM      6  C3  UNL     1     -27.926  -4.431 -27.188  0.00  0.00    +0.000 A 
ATOM      7  O2  UNL     1     -27.816  -3.349 -27.754  0.00  0.00    +0.000 OA
ATOM      8  C4  UNL     1     -26.742  -5.242 -26.810  0.00  0.00    +0.000 A 
ATOM      9  H2  UNL     1     -28.372  -7.697 -25.376  0.00  0.00    +0.000 HD
ATOM     10  H3  UNL     1     -29.964  -4.412 -27.100  0.00  0.00    +0.000 HD
ENDROOT
BRANCH   8  11
ATOM     11  C5  UNL     1     -25.388  -4.736 -27.203  0.00  0.00    +0.000 C 
BRANCH  11  12
ATOM     12  N3  UNL     1     -25.102  -3.533 -26.429  0.00  0.00    +0.000 N 
ATOM     13  H6  UNL     1     -24.697  -2.804 -27.016  0.00  0.00    +0.000 HD
BRANCH  12  14
ATOM     14  C6  UNL     1     -24.362  -3.642 -25.241  0.00  0.00    +0.000 A 
ATOM     15  C7  UNL     1     -23.486  -4.730 -25.105  0.00  0.00    +0.000 A 
ATOM     16  C8  UNL     1     -22.666  -4.873 -23.983  0.00  0.00    +0.000 A 
ATOM     17  C9  UNL     1     -22.687  -3.909 -22.981  0.00  0.00    +0.000 A 
ATOM     18  C10 UNL     1     -23.516  -2.800 -23.114  0.00  0.00    +0.000 A 
ATOM     19  C11 UNL     1     -24.334  -2.662 -24.241  0.00  0.00    +0.000 A 
ENDBRANCH  12  14
ENDBRANCH  11  12
ENDBRANCH   8  11
TORSDOF 3
ENDMDL
MODEL 3
REMARK VINA RESULT:    -5.131     27.109     28.168
REMARK INTER + INTRA:          -6.552
REMARK INTER:                  -6.004
REMARK INTRA:                  -0.548
REMARK UNBOUND:                -0.521
REMARK  Name = /home/anacleto/Desktop/manuscript_Mpro/naturecomm/supplementary_file_S2/6-chemical-library/molecular_docking/3D_ligand_structure/704.pdb
REMARK  3 active torsions:
REMARK  status: ('A' for Active; 'I' for Inactive)
REMARK    1  A    between atoms: C4_8  and  C5_9
REMARK    2  A    between atoms: C5_9  and  N3_10
REMARK    3  A    between atoms: N3_10  and  C6_11
REMARK                            x       y       z     vdW  Elec       q    Type
REMARK                         _______ _______ _______ _____ _____    ______ ____
ROOT
ATOM      1  C1  UNL     1     -22.652   8.021 -39.618  0.00  0.00    +0.000 A 
ATOM      2  N1  UNL     1     -21.321   8.330 -39.571  0.00  0.00    +0.000 N 
ATOM      3  C2  UNL     1     -20.413   7.655 -38.803  0.00  0.00    +0.000 A 
ATOM      4  O1  UNL     1     -19.227   7.960 -38.777  0.00  0.00    +0.000 OA
ATOM      5  N2  UNL     1     -20.920   6.620 -38.071  0.00  0.00    +0.000 N 
ATOM      6  C3  UNL     1     -22.236   6.247 -38.029  0.00  0.00    +0.000 A 
ATOM      7  O2  UNL     1     -22.625   5.330 -37.316  0.00  0.00    +0.000 OA
ATOM      8  C4  UNL     1     -23.167   7.021 -38.889  0.00  0.00    +0.000 A 
ATOM      9  H2  UNL     1     -20.950   9.101 -40.116  0.00  0.00    +0.000 HD
ATOM     10  H3  UNL     1     -20.274   6.113 -37.486  0.00  0.00    +0.000 HD
ENDROOT
BRANCH   8  11
ATOM     11  C5  UNL     1     -24.605   6.607 -38.919  0.00  0.00    +0.000 C 
BRANCH  11  12
ATOM     12  N3  UNL     1     -24.683   5.241 -39.425  0.00  0.00    +0.000 N 
ATOM     13  H6  UNL     1     -24.572   5.217 -40.439  0.00  0.00    +0.000 HD
BRANCH  12  14
ATOM     14  C6  UNL     1     -25.768   4.432 -39.054  0.00  0.00    +0.000 A 
ATOM     15  C7  UNL     1     -25.495   3.148 -38.557  0.00  0.00    +0.000 A 
ATOM     16  C8  UNL     1     -26.514   2.307 -38.104  0.00  0.00    +0.000 A 
ATOM     17  C9  UNL     1     -27.832   2.748 -38.114  0.00  0.00    +0.000 A 
ATOM     18  C10 UNL     1     -28.123   4.032 -38.562  0.00  0.00    +0.000 A 
ATOM     19  C11 UNL     1     -27.097   4.871 -39.013  0.00  0.00    +0.000 A 
ENDBRANCH  12  14
ENDBRANCH  11  12
ENDBRANCH   8  11
TORSDOF 3
ENDMDL
MODEL 4
REMARK VINA RESULT:    -5.085     26.330     27.339
REMARK INTER + INTRA:          -6.498
REMARK INTER:                  -5.947
REMARK INTRA:                  -0.551
REMARK UNBOUND:                -0.521
REMARK  Name = /home/anacleto/Desktop/manuscript_Mpro/naturecomm/supplementary_file_S2/6-chemical-library/molecular_docking/3D_ligand_structure/704.pdb
REMARK  3 active torsions:
REMARK  status: ('A' for Active; 'I' for Inactive)
REMARK    1  A    between atoms: C4_8  and  C5_9
REMARK    2  A    between atoms: C5_9  and  N3_10
REMARK    3  A    between atoms: N3_10  and  C6_11
REMARK                            x       y       z     vdW  Elec       q    Type
REMARK                         _______ _______ _______ _____ _____    ______ ____
ROOT
ATOM      1  C1  UNL     1     -24.815   8.470 -37.999  0.00  0.00    +0.000 A 
ATOM      2  N1  UNL     1     -24.169   9.410 -37.246  0.00  0.00    +0.000 N 
ATOM      3  C2  UNL     1     -22.811   9.460 -37.097  0.00  0.00    +0.000 A 
ATOM      4  O1  UNL     1     -22.262  10.312 -36.409  0.00  0.00    +0.000 OA
ATOM      5  N2  UNL     1     -22.113   8.496 -37.767  0.00  0.00    +0.000 N 
ATOM      6  C3  UNL     1     -22.665   7.499 -38.524  0.00  0.00    +0.000 A 
ATOM      7  O2  UNL     1     -21.975   6.643 -39.066  0.00  0.00    +0.000 OA
ATOM      8  C4  UNL     1     -24.144   7.507 -38.646  0.00  0.00    +0.000 A 
ATOM      9  H2  UNL     1     -24.693  10.124 -36.749  0.00  0.00    +0.000 HD
ATOM     10  H3  UNL     1     -21.111   8.502 -37.664  0.00  0.00    +0.000 HD
ENDROOT
BRANCH   8  11
ATOM     11  C5  UNL     1     -24.784   6.469 -39.515  0.00  0.00    +0.000 C 
BRANCH  11  12
ATOM     12  N3  UNL     1     -24.574   5.161 -38.904  0.00  0.00    +0.000 N 
ATOM     13  H6  UNL     1     -23.871   4.625 -39.414  0.00  0.00    +0.000 HD
BRANCH  12  14
ATOM     14  C6  UNL     1     -25.683   4.343 -38.636  0.00  0.00    +0.000 A 
ATOM     15  C7  UNL     1     -26.960   4.846 -38.926  0.00  0.00    +0.000 A 
ATOM     16  C8  UNL     1     -28.109   4.069 -38.750  0.00  0.00    +0.000 A 
ATOM     17  C9  UNL     1     -27.998   2.758 -38.303  0.00  0.00    +0.000 A 
ATOM     18  C10 UNL     1     -26.738   2.225 -38.048  0.00  0.00    +0.000 A 
ATOM     19  C11 UNL     1     -25.591   3.007 -38.228  0.00  0.00    +0.000 A 
ENDBRANCH  12  14
ENDBRANCH  11  12
ENDBRANCH   8  11
TORSDOF 3
ENDMDL
MODEL 5
REMARK VINA RESULT:    -5.067     26.406     27.635
REMARK INTER + INTRA:          -6.476
REMARK INTER:                  -6.108
REMARK INTRA:                  -0.369
REMARK UNBOUND:                -0.521
REMARK  Name = /home/anacleto/Desktop/manuscript_Mpro/naturecomm/supplementary_file_S2/6-chemical-library/molecular_docking/3D_ligand_structure/704.pdb
REMARK  3 active torsions:
REMARK  status: ('A' for Active; 'I' for Inactive)
REMARK    1  A    between atoms: C4_8  and  C5_9
REMARK    2  A    between atoms: C5_9  and  N3_10
REMARK    3  A    between atoms: N3_10  and  C6_11
REMARK                            x       y       z     vdW  Elec       q    Type
REMARK                         _______ _______ _______ _____ _____    ______ ____
ROOT
ATOM      1  C1  UNL     1     -27.146   5.409 -39.099  0.00  0.00    +0.000 A 
ATOM      2  N1  UNL     1     -28.493   5.630 -39.037  0.00  0.00    +0.000 N 
ATOM      3  C2  UNL     1     -29.399   4.683 -38.645  0.00  0.00    +0.000 A 
ATOM      4  O1  UNL     1     -30.603   4.910 -38.606  0.00  0.00    +0.000 OA
ATOM      5  N2  UNL     1     -28.869   3.472 -38.301  0.00  0.00    +0.000 N 
ATOM      6  C3  UNL     1     -27.542   3.144 -38.353  0.00  0.00    +0.000 A 
ATOM      7  O2  UNL     1     -27.143   2.022 -38.065  0.00  0.00    +0.000 OA
ATOM      8  C4  UNL     1     -26.614   4.220 -38.784  0.00  0.00    +0.000 A 
ATOM      9  H2  UNL     1     -28.882   6.531 -39.295  0.00  0.00    +0.000 HD
ATOM     10  H3  UNL     1     -29.516   2.753 -38.021  0.00  0.00    +0.000 HD
ENDROOT
BRANCH   8  11
ATOM     11  C5  UNL     1     -25.147   3.921 -38.796  0.00  0.00    +0.000 C 
BRANCH  11  12
ATOM     12  N3  UNL     1     -24.467   4.907 -37.965  0.00  0.00    +0.000 N 
ATOM     13  H6  UNL     1     -25.132   5.557 -37.545  0.00  0.00    +0.000 HD
BRANCH  12  14
ATOM     14  C6  UNL     1     -23.385   5.625 -38.498  0.00  0.00    +0.000 A 
ATOM     15  C7  UNL     1     -23.496   6.108 -39.811  0.00  0.00    +0.000 A 
ATOM     16  C8  UNL     1     -22.491   6.887 -40.391  0.00  0.00    +0.000 A 
ATOM     17  C9  UNL     1     -21.362   7.224 -39.654  0.00  0.00    +0.000 A 
ATOM     18  C10 UNL     1     -21.249   6.792 -38.336  0.00  0.00    +0.000 A 
ATOM     19  C11 UNL     1     -22.260   6.012 -37.761  0.00  0.00    +0.000 A 
ENDBRANCH  12  14
ENDBRANCH  11  12
ENDBRANCH   8  11
TORSDOF 3
ENDMDL
MODEL 6
REMARK VINA RESULT:    -5.035     21.213     22.983
REMARK INTER + INTRA:          -6.440
REMARK INTER:                  -5.892
REMARK INTRA:                  -0.548
REMARK UNBOUND:                -0.521
REMARK  Name = /home/anacleto/Desktop/manuscript_Mpro/naturecomm/supplementary_file_S2/6-chemical-library/molecular_docking/3D_ligand_structure/704.pdb
REMARK  3 active torsions:
REMARK  status: ('A' for Active; 'I' for Inactive)
REMARK    1  A    between atoms: C4_8  and  C5_9
REMARK    2  A    between atoms: C5_9  and  N3_10
REMARK    3  A    between atoms: N3_10  and  C6_11
REMARK                            x       y       z     vdW  Elec       q    Type
REMARK                         _______ _______ _______ _____ _____    ______ ____
ROOT
ATOM      1  C1  UNL     1     -20.570  -4.190 -28.647  0.00  0.00    +0.000 A 
ATOM      2  N1  UNL     1     -19.335  -4.107 -28.068  0.00  0.00    +0.000 N 
ATOM      3  C2  UNL     1     -19.090  -4.415 -26.759  0.00  0.00    +0.000 A 
ATOM      4  O1  UNL     1     -17.972  -4.324 -26.266  0.00  0.00    +0.000 OA
ATOM      5  N2  UNL     1     -20.176  -4.828 -26.041  0.00  0.00    +0.000 N 
ATOM      6  C3  UNL     1     -21.455  -4.921 -26.520  0.00  0.00    +0.000 A 
ATOM      7  O2  UNL     1     -22.389  -5.263 -25.804  0.00  0.00    +0.000 OA
ATOM      8  C4  UNL     1     -21.648  -4.575 -27.950  0.00  0.00    +0.000 A 
ATOM      9  H2  UNL     1     -18.532  -3.798 -28.605  0.00  0.00    +0.000 HD
ATOM     10  H3  UNL     1     -20.026  -5.049 -25.069  0.00  0.00    +0.000 HD
ENDROOT
BRANCH   8  11
ATOM     11  C5  UNL     1     -23.021  -4.721 -28.529  0.00  0.00    +0.000 C 
BRANCH  11  12
ATOM     12  N3  UNL     1     -23.867  -3.662 -27.989  0.00  0.00    +0.000 N 
ATOM     13  H6  UNL     1     -23.430  -3.218 -27.181  0.00  0.00    +0.000 HD
BRANCH  12  14
ATOM     14  C6  UNL     1     -25.212  -3.938 -27.701  0.00  0.00    +0.000 A 
ATOM     15  C7  UNL     1     -26.193  -3.392 -28.544  0.00  0.00    +0.000 A 
ATOM     16  C8  UNL     1     -27.550  -3.674 -28.364  0.00  0.00    +0.000 A 
ATOM     17  C9  UNL     1     -27.952  -4.534 -27.349  0.00  0.00    +0.000 A 
ATOM     18  C10 UNL     1     -26.994  -5.119 -26.528  0.00  0.00    +0.000 A 
ATOM     19  C11 UNL     1     -25.636  -4.835 -26.713  0.00  0.00    +0.000 A 
ENDBRANCH  12  14
ENDBRANCH  11  12
ENDBRANCH   8  11
TORSDOF 3
ENDMDL
MODEL 7
REMARK VINA RESULT:    -4.932     28.098     29.272
REMARK INTER + INTRA:          -6.319
REMARK INTER:                  -5.840
REMARK INTRA:                  -0.479
REMARK UNBOUND:                -0.521
REMARK  Name = /home/anacleto/Desktop/manuscript_Mpro/naturecomm/supplementary_file_S2/6-chemical-library/molecular_docking/3D_ligand_structure/704.pdb
REMARK  3 active torsions:
REMARK  status: ('A' for Active; 'I' for Inactive)
REMARK    1  A    between atoms: C4_8  and  C5_9
REMARK    2  A    between atoms: C5_9  and  N3_10
REMARK    3  A    between atoms: N3_10  and  C6_11
REMARK                            x       y       z     vdW  Elec       q    Type
REMARK                         _______ _______ _______ _____ _____    ______ ____
ROOT
ATOM      1  C1  UNL     1     -19.604   7.565 -38.822  0.00  0.00    +0.000 A 
ATOM      2  N1  UNL     1     -18.748   8.628 -38.888  0.00  0.00    +0.000 N 
ATOM      3  C2  UNL     1     -18.982   9.829 -38.278  0.00  0.00    +0.000 A 
ATOM      4  O1  UNL     1     -18.198  10.766 -38.361  0.00  0.00    +0.000 OA
ATOM      5  N2  UNL     1     -20.148   9.909 -37.571  0.00  0.00    +0.000 N 
ATOM      6  C3  UNL     1     -21.081   8.913 -37.464  0.00  0.00    +0.000 A 
ATOM      7  O2  UNL     1     -22.126   9.071 -36.843  0.00  0.00    +0.000 OA
ATOM      8  C4  UNL     1     -20.761   7.636 -38.149  0.00  0.00    +0.000 A 
ATOM      9  H2  UNL     1     -17.884   8.564 -39.416  0.00  0.00    +0.000 HD
ATOM     10  H3  UNL     1     -20.352  10.788 -37.122  0.00  0.00    +0.000 HD
ENDROOT
BRANCH   8  11
ATOM     11  C5  UNL     1     -21.727   6.501 -38.007  0.00  0.00    +0.000 C 
BRANCH  11  12
ATOM     12  N3  UNL     1     -22.965   6.858 -38.691  0.00  0.00    +0.000 N 
ATOM     13  H6  UNL     1     -23.531   7.489 -38.124  0.00  0.00    +0.000 HD
BRANCH  12  14
ATOM     14  C6  UNL     1     -23.779   5.841 -39.213  0.00  0.00    +0.000 A 
ATOM     15  C7  UNL     1     -23.759   5.625 -40.600  0.00  0.00    +0.000 A 
ATOM     16  C8  UNL     1     -24.489   4.590 -41.190  0.00  0.00    +0.000 A 
ATOM     17  C9  UNL     1     -25.236   3.728 -40.395  0.00  0.00    +0.000 A 
ATOM     18  C10 UNL     1     -25.237   3.896 -39.014  0.00  0.00    +0.000 A 
ATOM     19  C11 UNL     1     -24.502   4.934 -38.429  0.00  0.00    +0.000 A 
ENDBRANCH  12  14
ENDBRANCH  11  12
ENDBRANCH   8  11
TORSDOF 3
ENDMDL
MODEL 8
REMARK VINA RESULT:    -4.924     29.475     30.902
REMARK INTER + INTRA:          -6.308
REMARK INTER:                  -5.965
REMARK INTRA:                  -0.343
REMARK UNBOUND:                -0.521
REMARK  Name = /home/anacleto/Desktop/manuscript_Mpro/naturecomm/supplementary_file_S2/6-chemical-library/molecular_docking/3D_ligand_structure/704.pdb
REMARK  3 active torsions:
REMARK  status: ('A' for Active; 'I' for Inactive)
REMARK    1  A    between atoms: C4_8  and  C5_9
REMARK    2  A    between atoms: C5_9  and  N3_10
REMARK    3  A    between atoms: N3_10  and  C6_11
REMARK                            x       y       z     vdW  Elec       q    Type
REMARK                         _______ _______ _______ _____ _____    ______ ____
ROOT
ATOM      1  C1  UNL     1     -17.804   9.076 -38.998  0.00  0.00    +0.000 A 
ATOM      2  N1  UNL     1     -16.484   9.003 -39.347  0.00  0.00    +0.000 N 
ATOM      3  C2  UNL     1     -15.666  10.094 -39.447  0.00  0.00    +0.000 A 
ATOM      4  O1  UNL     1     -14.487   9.997 -39.769  0.00  0.00    +0.000 OA
ATOM      5  N2  UNL     1     -16.252  11.294 -39.163  0.00  0.00    +0.000 N 
ATOM      6  C3  UNL     1     -17.567  11.475 -38.829  0.00  0.00    +0.000 A 
ATOM      7  O2  UNL     1     -18.034  12.590 -38.626  0.00  0.00    +0.000 OA
ATOM      8  C4  UNL     1     -18.397  10.248 -38.737  0.00  0.00    +0.000 A 
ATOM      9  H2  UNL     1     -16.054   8.109 -39.558  0.00  0.00    +0.000 HD
ATOM     10  H3  UNL     1     -15.674  12.116 -39.242  0.00  0.00    +0.000 HD
ENDROOT
BRANCH   8  11
ATOM     11  C5  UNL     1     -19.826  10.397 -38.315  0.00  0.00    +0.000 C 
BRANCH  11  12
ATOM     12  N3  UNL     1     -20.162   9.295 -37.421  0.00  0.00    +0.000 N 
ATOM     13  H6  UNL     1     -19.344   8.720 -37.222  0.00  0.00    +0.000 HD
BRANCH  12  14
ATOM     14  C6  UNL     1     -21.252   8.467 -37.731  0.00  0.00    +0.000 A 
ATOM     15  C7  UNL     1     -21.003   7.107 -37.968  0.00  0.00    +0.000 A 
ATOM     16  C8  UNL     1     -22.041   6.205 -38.217  0.00  0.00    +0.000 A 
ATOM     17  C9  UNL     1     -23.359   6.645 -38.206  0.00  0.00    +0.000 A 
ATOM     18  C10 UNL     1     -23.634   7.981 -37.931  0.00  0.00    +0.000 A 
ATOM     19  C11 UNL     1     -22.590   8.879 -37.681  0.00  0.00    +0.000 A 
ENDBRANCH  12  14
ENDBRANCH  11  12
ENDBRANCH   8  11
TORSDOF 3
ENDMDL
MODEL 9
REMARK VINA RESULT:    -4.838     26.171     27.041
REMARK INTER + INTRA:          -6.208
REMARK INTER:                  -5.687
REMARK INTRA:                  -0.521
REMARK UNBOUND:                -0.521
REMARK  Name = /home/anacleto/Desktop/manuscript_Mpro/naturecomm/supplementary_file_S2/6-chemical-library/molecular_docking/3D_ligand_structure/704.pdb
REMARK  3 active torsions:
REMARK  status: ('A' for Active; 'I' for Inactive)
REMARK    1  A    between atoms: C4_8  and  C5_9
REMARK    2  A    between atoms: C5_9  and  N3_10
REMARK    3  A    between atoms: N3_10  and  C6_11
REMARK                            x       y       z     vdW  Elec       q    Type
REMARK                         _______ _______ _______ _____ _____    ______ ____
ROOT
ATOM      1  C1  UNL     1     -23.420   7.564 -38.792  0.00  0.00    +0.000 A 
ATOM      2  N1  UNL     1     -22.720   8.368 -37.938  0.00  0.00    +0.000 N 
ATOM      3  C2  UNL     1     -23.288   9.374 -37.207  0.00  0.00    +0.000 A 
ATOM      4  O1  UNL     1     -22.632  10.084 -36.454  0.00  0.00    +0.000 OA
ATOM      5  N2  UNL     1     -24.635   9.531 -37.375  0.00  0.00    +0.000 N 
ATOM      6  C3  UNL     1     -25.419   8.796 -38.221  0.00  0.00    +0.000 A 
ATOM      7  O2  UNL     1     -26.618   9.020 -38.349  0.00  0.00    +0.000 OA
ATOM      8  C4  UNL     1     -24.737   7.719 -38.982  0.00  0.00    +0.000 A 
ATOM      9  H2  UNL     1     -21.719   8.249 -37.818  0.00  0.00    +0.000 HD
ATOM     10  H3  UNL     1     -25.077  10.273 -36.857  0.00  0.00    +0.000 HD
ENDROOT
BRANCH   8  11
ATOM     11  C5  UNL     1     -25.571   6.852 -39.874  0.00  0.00    +0.000 C 
BRANCH  11  12
ATOM     12  N3  UNL     1     -26.684   6.322 -39.095  0.00  0.00    +0.000 N 
ATOM     13  H6  UNL     1     -26.790   6.826 -38.214  0.00  0.00    +0.000 HD
BRANCH  12  14
ATOM     14  C6  UNL     1     -26.761   4.941 -38.857  0.00  0.00    +0.000 A 
ATOM     15  C7  UNL     1     -25.561   4.220 -38.760  0.00  0.00    +0.000 A 
ATOM     16  C8  UNL     1     -25.550   2.856 -38.459  0.00  0.00    +0.000 A 
ATOM     17  C9  UNL     1     -26.746   2.188 -38.221  0.00  0.00    +0.000 A 
ATOM     18  C10 UNL     1     -27.945   2.891 -38.271  0.00  0.00    +0.000 A 
ATOM     19  C11 UNL     1     -27.949   4.259 -38.571  0.00  0.00    +0.000 A 
ENDBRANCH  12  14
ENDBRANCH  11  12
ENDBRANCH   8  11
TORSDOF 3
ENDMDL
