MODEL 1
REMARK VINA RESULT:    -4.627      0.000      0.000
REMARK INTER + INTRA:          -6.561
REMARK INTER:                  -6.160
REMARK INTRA:                  -0.401
REMARK UNBOUND:                -0.581
REMARK  Name = /home/anacleto/Desktop/manuscript_Mpro/naturecomm/supplementary_file_S2/6-chemical-library/molecular_docking/3D_ligand_structure/544.pdb
REMARK  5 active torsions:
REMARK  status: ('A' for Active; 'I' for Inactive)
REMARK    1  A    between atoms: C3_5  and  C4_6
REMARK    2  A    between atoms: C4_6  and  N2_7
REMARK    3  A    between atoms: C5_8  and  C6_10
REMARK    4  A    between atoms: C6_10  and  N3_11
REMARK    5  A    between atoms: C7_12  and  C8_14
REMARK                            x       y       z     vdW  Elec       q    Type
REMARK                         _______ _______ _______ _____ _____    ______ ____
ROOT
ATOM      1  N2  UNL     1     -24.417   5.937 -38.326  0.00  0.00    +0.000 N 
ATOM      2  C5  UNL     1     -23.161   6.041 -38.883  0.00  0.00    +0.000 C 
ATOM      3  O2  UNL     1     -22.946   6.024 -40.091  0.00  0.00    +0.000 OA
ATOM      4  H5  UNL     1     -24.448   5.553 -37.380  0.00  0.00    +0.000 HD
ENDROOT
BRANCH   1   5
ATOM      5  C4  UNL     1     -25.562   5.702 -39.173  0.00  0.00    +0.000 C 
BRANCH   5  10
ATOM      6  O1  UNL     1     -27.524   4.366 -38.624  0.00  0.00    +0.000 OA
ATOM      7  C1  UNL     1     -27.769   3.062 -38.318  0.00  0.00    +0.000 A 
ATOM      8  N1  UNL     1     -26.713   2.283 -38.303  0.00  0.00    +0.000 NA
ATOM      9  C2  UNL     1     -25.683   3.134 -38.616  0.00  0.00    +0.000 A 
ATOM     10  C3  UNL     1     -26.169   4.406 -38.817  0.00  0.00    +0.000 A 
ENDBRANCH   5  10
ENDBRANCH   1   5
BRANCH   2  11
ATOM     11  C6  UNL     1     -22.033   6.041 -37.852  0.00  0.00    +0.000 C 
BRANCH  11  12
ATOM     12  N3  UNL     1     -20.942   6.861 -38.348  0.00  0.00    +0.000 N 
ATOM     13  C7  UNL     1     -20.750   8.129 -37.830  0.00  0.00    +0.000 C 
ATOM     14  O3  UNL     1     -21.527   8.601 -37.000  0.00  0.00    +0.000 OA
ATOM     15  H8  UNL     1     -20.154   6.376 -38.755  0.00  0.00    +0.000 HD
BRANCH  13  16
ATOM     16  C8  UNL     1     -19.552   8.829 -38.287  0.00  0.00    +0.000 A 
ATOM     17  C9  UNL     1     -18.472   8.314 -38.973  0.00  0.00    +0.000 A 
ATOM     18  O4  UNL     1     -17.584   9.321 -39.204  0.00  0.00    +0.000 OA
ATOM     19  C10 UNL     1     -18.175  10.411 -38.646  0.00  0.00    +0.000 A 
ATOM     20  N4  UNL     1     -19.341  10.185 -38.087  0.00  0.00    +0.000 NA
ENDBRANCH  13  16
ENDBRANCH  11  12
ENDBRANCH   2  11
TORSDOF 5
ENDMDL
MODEL 2
REMARK VINA RESULT:    -4.606     25.457     27.941
REMARK INTER + INTRA:          -6.534
REMARK INTER:                  -6.128
REMARK INTRA:                  -0.406
REMARK UNBOUND:                -0.581
REMARK  Name = /home/anacleto/Desktop/manuscript_Mpro/naturecomm/supplementary_file_S2/6-chemical-library/molecular_docking/3D_ligand_structure/544.pdb
REMARK  5 active torsions:
REMARK  status: ('A' for Active; 'I' for Inactive)
REMARK    1  A    between atoms: C3_5  and  C4_6
REMARK    2  A    between atoms: C4_6  and  N2_7
REMARK    3  A    between atoms: C5_8  and  C6_10
REMARK    4  A    between atoms: C6_10  and  N3_11
REMARK    5  A    between atoms: C7_12  and  C8_14
REMARK                            x       y       z     vdW  Elec       q    Type
REMARK                         _______ _______ _______ _____ _____    ______ ____
ROOT
ATOM      1  N2  UNL     1     -38.038   4.878 -15.088  0.00  0.00    +0.000 N 
ATOM      2  C5  UNL     1     -38.175   3.691 -14.403  0.00  0.00    +0.000 C 
ATOM      3  O2  UNL     1     -37.719   3.493 -13.281  0.00  0.00    +0.000 OA
ATOM      4  H5  UNL     1     -38.071   4.804 -16.107  0.00  0.00    +0.000 HD
ENDROOT
BRANCH   1   5
ATOM      5  C4  UNL     1     -37.242   5.944 -14.529  0.00  0.00    +0.000 C 
BRANCH   5  10
ATOM      6  O1  UNL     1     -39.142   7.462 -14.377  0.00  0.00    +0.000 OA
ATOM      7  C1  UNL     1     -39.436   8.714 -14.824  0.00  0.00    +0.000 A 
ATOM      8  N1  UNL     1     -38.487   9.298 -15.519  0.00  0.00    +0.000 NA
ATOM      9  C2  UNL     1     -37.486   8.360 -15.543  0.00  0.00    +0.000 A 
ATOM     10  C3  UNL     1     -37.875   7.238 -14.845  0.00  0.00    +0.000 A 
ENDBRANCH   5  10
ENDBRANCH   1   5
BRANCH   2  11
ATOM     11  C6  UNL     1     -38.833   2.582 -15.224  0.00  0.00    +0.000 C 
BRANCH  11  12
ATOM     12  N3  UNL     1     -37.816   1.626 -15.623  0.00  0.00    +0.000 N 
ATOM     13  C7  UNL     1     -37.573   1.407 -16.968  0.00  0.00    +0.000 C 
ATOM     14  O3  UNL     1     -38.249   1.962 -17.834  0.00  0.00    +0.000 OA
ATOM     15  H8  UNL     1     -37.078   1.438 -14.958  0.00  0.00    +0.000 HD
BRANCH  13  16
ATOM     16  C8  UNL     1     -36.444   0.534 -17.278  0.00  0.00    +0.000 A 
ATOM     17  C9  UNL     1     -35.429   0.742 -18.187  0.00  0.00    +0.000 A 
ATOM     18  O4  UNL     1     -34.583  -0.325 -18.146  0.00  0.00    +0.000 OA
ATOM     19  C10 UNL     1     -35.128  -1.137 -17.201  0.00  0.00    +0.000 A 
ATOM     20  N4  UNL     1     -36.230  -0.684 -16.650  0.00  0.00    +0.000 NA
ENDBRANCH  13  16
ENDBRANCH  11  12
ENDBRANCH   2  11
TORSDOF 5
ENDMDL
MODEL 3
REMARK VINA RESULT:    -4.485      3.439      5.115
REMARK INTER + INTRA:          -6.377
REMARK INTER:                  -5.728
REMARK INTRA:                  -0.649
REMARK UNBOUND:                -0.581
REMARK  Name = /home/anacleto/Desktop/manuscript_Mpro/naturecomm/supplementary_file_S2/6-chemical-library/molecular_docking/3D_ligand_structure/544.pdb
REMARK  5 active torsions:
REMARK  status: ('A' for Active; 'I' for Inactive)
REMARK    1  A    between atoms: C3_5  and  C4_6
REMARK    2  A    between atoms: C4_6  and  N2_7
REMARK    3  A    between atoms: C5_8  and  C6_10
REMARK    4  A    between atoms: C6_10  and  N3_11
REMARK    5  A    between atoms: C7_12  and  C8_14
REMARK                            x       y       z     vdW  Elec       q    Type
REMARK                         _______ _______ _______ _____ _____    ______ ____
ROOT
ATOM      1  N2  UNL     1     -27.452   3.346 -39.804  0.00  0.00    +0.000 N 
ATOM      2  C5  UNL     1     -26.920   2.672 -38.726  0.00  0.00    +0.000 C 
ATOM      3  O2  UNL     1     -27.597   2.166 -37.835  0.00  0.00    +0.000 OA
ATOM      4  H5  UNL     1     -26.843   4.050 -40.225  0.00  0.00    +0.000 HD
ENDROOT
BRANCH   1   5
ATOM      5  C4  UNL     1     -28.875   3.572 -39.881  0.00  0.00    +0.000 C 
BRANCH   5  10
ATOM      6  O1  UNL     1     -28.376   5.852 -39.183  0.00  0.00    +0.000 OA
ATOM      7  C1  UNL     1     -28.955   6.779 -38.370  0.00  0.00    +0.000 A 
ATOM      8  N1  UNL     1     -30.069   6.397 -37.790  0.00  0.00    +0.000 NA
ATOM      9  C2  UNL     1     -30.243   5.115 -38.246  0.00  0.00    +0.000 A 
ATOM     10  C3  UNL     1     -29.217   4.775 -39.100  0.00  0.00    +0.000 A 
ENDBRANCH   5  10
ENDBRANCH   1   5
BRANCH   2  11
ATOM     11  C6  UNL     1     -25.395   2.727 -38.661  0.00  0.00    +0.000 C 
BRANCH  11  12
ATOM     12  N3  UNL     1     -24.989   4.057 -38.244  0.00  0.00    +0.000 N 
ATOM     13  C7  UNL     1     -24.558   4.969 -39.191  0.00  0.00    +0.000 C 
ATOM     14  O3  UNL     1     -24.452   4.652 -40.376  0.00  0.00    +0.000 OA
ATOM     15  H8  UNL     1     -25.375   4.402 -37.375  0.00  0.00    +0.000 HD
BRANCH  13  16
ATOM     16  C8  UNL     1     -24.300   6.321 -38.703  0.00  0.00    +0.000 A 
ATOM     17  C9  UNL     1     -23.139   6.822 -38.152  0.00  0.00    +0.000 A 
ATOM     18  O4  UNL     1     -23.336   8.134 -37.843  0.00  0.00    +0.000 OA
ATOM     19  C10 UNL     1     -24.618   8.371 -38.229  0.00  0.00    +0.000 A 
ATOM     20  N4  UNL     1     -25.242   7.338 -38.746  0.00  0.00    +0.000 NA
ENDBRANCH  13  16
ENDBRANCH  11  12
ENDBRANCH   2  11
TORSDOF 5
ENDMDL
MODEL 4
REMARK VINA RESULT:    -4.414      1.606      7.863
REMARK INTER + INTRA:          -6.285
REMARK INTER:                  -5.698
REMARK INTRA:                  -0.587
REMARK UNBOUND:                -0.581
REMARK  Name = /home/anacleto/Desktop/manuscript_Mpro/naturecomm/supplementary_file_S2/6-chemical-library/molecular_docking/3D_ligand_structure/544.pdb
REMARK  5 active torsions:
REMARK  status: ('A' for Active; 'I' for Inactive)
REMARK    1  A    between atoms: C3_5  and  C4_6
REMARK    2  A    between atoms: C4_6  and  N2_7
REMARK    3  A    between atoms: C5_8  and  C6_10
REMARK    4  A    between atoms: C6_10  and  N3_11
REMARK    5  A    between atoms: C7_12  and  C8_14
REMARK                            x       y       z     vdW  Elec       q    Type
REMARK                         _______ _______ _______ _____ _____    ______ ____
ROOT
ATOM      1  N2  UNL     1     -22.749   6.988 -38.762  0.00  0.00    +0.000 N 
ATOM      2  C5  UNL     1     -23.951   7.630 -38.553  0.00  0.00    +0.000 C 
ATOM      3  O2  UNL     1     -24.211   8.280 -37.545  0.00  0.00    +0.000 OA
ATOM      4  H5  UNL     1     -22.787   6.178 -39.383  0.00  0.00    +0.000 HD
ENDROOT
BRANCH   1   5
ATOM      5  C4  UNL     1     -21.748   6.979 -37.723  0.00  0.00    +0.000 C 
BRANCH   5  10
ATOM      6  O1  UNL     1     -19.603   7.712 -38.616  0.00  0.00    +0.000 OA
ATOM      7  C1  UNL     1     -18.931   8.893 -38.710  0.00  0.00    +0.000 A 
ATOM      8  N1  UNL     1     -19.555   9.933 -38.208  0.00  0.00    +0.000 NA
ATOM      9  C2  UNL     1     -20.729   9.405 -37.736  0.00  0.00    +0.000 A 
ATOM     10  C3  UNL     1     -20.769   8.051 -37.984  0.00  0.00    +0.000 A 
ENDBRANCH   5  10
ENDBRANCH   1   5
BRANCH   2  11
ATOM     11  C6  UNL     1     -24.993   7.345 -39.634  0.00  0.00    +0.000 C 
BRANCH  11  12
ATOM     12  N3  UNL     1     -25.820   6.231 -39.208  0.00  0.00    +0.000 N 
ATOM     13  C7  UNL     1     -25.452   4.939 -39.543  0.00  0.00    +0.000 C 
ATOM     14  O3  UNL     1     -24.469   4.722 -40.251  0.00  0.00    +0.000 OA
ATOM     15  H8  UNL     1     -26.400   6.376 -38.393  0.00  0.00    +0.000 HD
BRANCH  13  16
ATOM     16  C8  UNL     1     -26.264   3.874 -38.960  0.00  0.00    +0.000 A 
ATOM     17  C9  UNL     1     -25.837   2.728 -38.323  0.00  0.00    +0.000 A 
ATOM     18  O4  UNL     1     -26.930   2.017 -37.930  0.00  0.00    +0.000 OA
ATOM     19  C10 UNL     1     -27.979   2.775 -38.346  0.00  0.00    +0.000 A 
ATOM     20  N4  UNL     1     -27.650   3.886 -38.963  0.00  0.00    +0.000 NA
ENDBRANCH  13  16
ENDBRANCH  11  12
ENDBRANCH   2  11
TORSDOF 5
ENDMDL
MODEL 5
REMARK VINA RESULT:    -4.390     14.987     17.123
REMARK INTER + INTRA:          -6.254
REMARK INTER:                  -5.742
REMARK INTRA:                  -0.513
REMARK UNBOUND:                -0.581
REMARK  Name = /home/anacleto/Desktop/manuscript_Mpro/naturecomm/supplementary_file_S2/6-chemical-library/molecular_docking/3D_ligand_structure/544.pdb
REMARK  5 active torsions:
REMARK  status: ('A' for Active; 'I' for Inactive)
REMARK    1  A    between atoms: C3_5  and  C4_6
REMARK    2  A    between atoms: C4_6  and  N2_7
REMARK    3  A    between atoms: C5_8  and  C6_10
REMARK    4  A    between atoms: C6_10  and  N3_11
REMARK    5  A    between atoms: C7_12  and  C8_14
REMARK                            x       y       z     vdW  Elec       q    Type
REMARK                         _______ _______ _______ _____ _____    ______ ____
ROOT
ATOM      1  N2  UNL     1     -22.516  -4.601 -28.737  0.00  0.00    +0.000 N 
ATOM      2  C5  UNL     1     -23.717  -4.710 -29.405  0.00  0.00    +0.000 C 
ATOM      3  O2  UNL     1     -23.864  -5.346 -30.444  0.00  0.00    +0.000 OA
ATOM      4  H5  UNL     1     -22.406  -3.760 -28.167  0.00  0.00    +0.000 HD
ENDROOT
BRANCH   1   5
ATOM      5  C4  UNL     1     -21.321  -5.175 -29.306  0.00  0.00    +0.000 C 
BRANCH   5  10
ATOM      6  O1  UNL     1     -19.838  -3.824 -27.922  0.00  0.00    +0.000 OA
ATOM      7  C1  UNL     1     -18.832  -4.065 -27.037  0.00  0.00    +0.000 A 
ATOM      8  N1  UNL     1     -18.547  -5.332 -26.844  0.00  0.00    +0.000 NA
ATOM      9  C2  UNL     1     -19.428  -5.986 -27.668  0.00  0.00    +0.000 A 
ATOM     10  C3  UNL     1     -20.222  -5.074 -28.326  0.00  0.00    +0.000 A 
ENDBRANCH   5  10
ENDBRANCH   1   5
BRANCH   2  11
ATOM     11  C6  UNL     1     -24.830  -3.850 -28.809  0.00  0.00    +0.000 C 
BRANCH  11  12
ATOM     12  N3  UNL     1     -24.536  -3.603 -27.409  0.00  0.00    +0.000 N 
ATOM     13  C7  UNL     1     -25.298  -4.218 -26.431  0.00  0.00    +0.000 C 
ATOM     14  O3  UNL     1     -26.265  -4.921 -26.728  0.00  0.00    +0.000 OA
ATOM     15  H8  UNL     1     -23.593  -3.317 -27.183  0.00  0.00    +0.000 HD
BRANCH  13  16
ATOM     16  C8  UNL     1     -24.849  -4.022 -25.056  0.00  0.00    +0.000 A 
ATOM     17  C9  UNL     1     -24.974  -4.885 -23.987  0.00  0.00    +0.000 A 
ATOM     18  O4  UNL     1     -24.409  -4.304 -22.892  0.00  0.00    +0.000 OA
ATOM     19  C10 UNL     1     -23.958  -3.108 -23.354  0.00  0.00    +0.000 A 
ATOM     20  N4  UNL     1     -24.188  -2.882 -24.626  0.00  0.00    +0.000 NA
ENDBRANCH  13  16
ENDBRANCH  11  12
ENDBRANCH   2  11
TORSDOF 5
ENDMDL
MODEL 6
REMARK VINA RESULT:    -4.382     17.643     20.034
REMARK INTER + INTRA:          -6.244
REMARK INTER:                  -5.629
REMARK INTRA:                  -0.614
REMARK UNBOUND:                -0.581
REMARK  Name = /home/anacleto/Desktop/manuscript_Mpro/naturecomm/supplementary_file_S2/6-chemical-library/molecular_docking/3D_ligand_structure/544.pdb
REMARK  5 active torsions:
REMARK  status: ('A' for Active; 'I' for Inactive)
REMARK    1  A    between atoms: C3_5  and  C4_6
REMARK    2  A    between atoms: C4_6  and  N2_7
REMARK    3  A    between atoms: C5_8  and  C6_10
REMARK    4  A    between atoms: C6_10  and  N3_11
REMARK    5  A    between atoms: C7_12  and  C8_14
REMARK                            x       y       z     vdW  Elec       q    Type
REMARK                         _______ _______ _______ _____ _____    ______ ____
ROOT
ATOM      1  N2  UNL     1     -23.936  -4.426 -25.000  0.00  0.00    +0.000 N 
ATOM      2  C5  UNL     1     -23.749  -3.583 -23.925  0.00  0.00    +0.000 C 
ATOM      3  O2  UNL     1     -24.046  -2.392 -23.932  0.00  0.00    +0.000 OA
ATOM      4  H5  UNL     1     -23.306  -5.229 -25.042  0.00  0.00    +0.000 HD
ENDROOT
BRANCH   1   5
ATOM      5  C4  UNL     1     -24.420  -3.898 -26.253  0.00  0.00    +0.000 C 
BRANCH   5  10
ATOM      6  O1  UNL     1     -26.306  -5.351 -25.736  0.00  0.00    +0.000 OA
ATOM      7  C1  UNL     1     -27.623  -5.409 -26.079  0.00  0.00    +0.000 A 
ATOM      8  N1  UNL     1     -28.032  -4.464 -26.893  0.00  0.00    +0.000 NA
ATOM      9  C2  UNL     1     -26.900  -3.722 -27.115  0.00  0.00    +0.000 A 
ATOM     10  C3  UNL     1     -25.843  -4.253 -26.411  0.00  0.00    +0.000 A 
ENDBRANCH   5  10
ENDBRANCH   1   5
BRANCH   2  11
ATOM     11  C6  UNL     1     -23.007  -4.234 -22.759  0.00  0.00    +0.000 C 
BRANCH  11  12
ATOM     12  N3  UNL     1     -23.924  -4.388 -21.645  0.00  0.00    +0.000 N 
ATOM     13  C7  UNL     1     -24.754  -5.493 -21.591  0.00  0.00    +0.000 C 
ATOM     14  O3  UNL     1     -24.775  -6.318 -22.505  0.00  0.00    +0.000 OA
ATOM     15  H8  UNL     1     -23.680  -3.919 -20.783  0.00  0.00    +0.000 HD
BRANCH  13  16
ATOM     16  C8  UNL     1     -25.545  -5.637 -20.371  0.00  0.00    +0.000 A 
ATOM     17  C9  UNL     1     -25.147  -5.431 -19.067  0.00  0.00    +0.000 A 
ATOM     18  O4  UNL     1     -26.206  -5.673 -18.246  0.00  0.00    +0.000 OA
ATOM     19  C10 UNL     1     -27.209  -6.013 -19.099  0.00  0.00    +0.000 A 
ATOM     20  N4  UNL     1     -26.880  -6.011 -20.369  0.00  0.00    +0.000 NA
ENDBRANCH  13  16
ENDBRANCH  11  12
ENDBRANCH   2  11
TORSDOF 5
ENDMDL
MODEL 7
REMARK VINA RESULT:    -4.354     17.515     19.619
REMARK INTER + INTRA:          -6.208
REMARK INTER:                  -5.675
REMARK INTRA:                  -0.533
REMARK UNBOUND:                -0.581
REMARK  Name = /home/anacleto/Desktop/manuscript_Mpro/naturecomm/supplementary_file_S2/6-chemical-library/molecular_docking/3D_ligand_structure/544.pdb
REMARK  5 active torsions:
REMARK  status: ('A' for Active; 'I' for Inactive)
REMARK    1  A    between atoms: C3_5  and  C4_6
REMARK    2  A    between atoms: C4_6  and  N2_7
REMARK    3  A    between atoms: C5_8  and  C6_10
REMARK    4  A    between atoms: C6_10  and  N3_11
REMARK    5  A    between atoms: C7_12  and  C8_14
REMARK                            x       y       z     vdW  Elec       q    Type
REMARK                         _______ _______ _______ _____ _____    ______ ____
ROOT
ATOM      1  N2  UNL     1     -24.393  -4.131 -24.826  0.00  0.00    +0.000 N 
ATOM      2  C5  UNL     1     -24.006  -3.167 -23.921  0.00  0.00    +0.000 C 
ATOM      3  O2  UNL     1     -24.480  -2.035 -23.884  0.00  0.00    +0.000 OA
ATOM      4  H5  UNL     1     -23.688  -4.839 -25.041  0.00  0.00    +0.000 HD
ENDROOT
BRANCH   1   5
ATOM      5  C4  UNL     1     -25.340  -3.804 -25.865  0.00  0.00    +0.000 C 
BRANCH   5  10
ATOM      6  O1  UNL     1     -23.339  -3.803 -27.256  0.00  0.00    +0.000 OA
ATOM      7  C1  UNL     1     -23.056  -4.030 -28.568  0.00  0.00    +0.000 A 
ATOM      8  N1  UNL     1     -24.089  -4.332 -29.320  0.00  0.00    +0.000 NA
ATOM      9  C2  UNL     1     -25.143  -4.297 -28.443  0.00  0.00    +0.000 A 
ATOM     10  C3  UNL     1     -24.695  -3.979 -27.180  0.00  0.00    +0.000 A 
ENDBRANCH   5  10
ENDBRANCH   1   5
BRANCH   2  11
ATOM     11  C6  UNL     1     -22.827  -3.587 -23.045  0.00  0.00    +0.000 C 
BRANCH  11  12
ATOM     12  N3  UNL     1     -23.312  -3.874 -21.707  0.00  0.00    +0.000 N 
ATOM     13  C7  UNL     1     -23.779  -5.142 -21.407  0.00  0.00    +0.000 C 
ATOM     14  O3  UNL     1     -23.849  -6.015 -22.272  0.00  0.00    +0.000 OA
ATOM     15  H8  UNL     1     -22.959  -3.294 -20.958  0.00  0.00    +0.000 HD
BRANCH  13  16
ATOM     16  C8  UNL     1     -24.119  -5.380 -20.007  0.00  0.00    +0.000 A 
ATOM     17  C9  UNL     1     -25.360  -5.315 -19.408  0.00  0.00    +0.000 A 
ATOM     18  O4  UNL     1     -25.221  -5.618 -18.087  0.00  0.00    +0.000 OA
ATOM     19  C10 UNL     1     -23.891  -5.859 -17.946  0.00  0.00    +0.000 A 
ATOM     20  N4  UNL     1     -23.185  -5.735 -19.046  0.00  0.00    +0.000 NA
ENDBRANCH  13  16
ENDBRANCH  11  12
ENDBRANCH   2  11
TORSDOF 5
ENDMDL
MODEL 8
REMARK VINA RESULT:    -4.333     14.867     16.443
REMARK INTER + INTRA:          -6.180
REMARK INTER:                  -5.527
REMARK INTRA:                  -0.654
REMARK UNBOUND:                -0.581
REMARK  Name = /home/anacleto/Desktop/manuscript_Mpro/naturecomm/supplementary_file_S2/6-chemical-library/molecular_docking/3D_ligand_structure/544.pdb
REMARK  5 active torsions:
REMARK  status: ('A' for Active; 'I' for Inactive)
REMARK    1  A    between atoms: C3_5  and  C4_6
REMARK    2  A    between atoms: C4_6  and  N2_7
REMARK    3  A    between atoms: C5_8  and  C6_10
REMARK    4  A    between atoms: C6_10  and  N3_11
REMARK    5  A    between atoms: C7_12  and  C8_14
REMARK                            x       y       z     vdW  Elec       q    Type
REMARK                         _______ _______ _______ _____ _____    ______ ____
ROOT
ATOM      1  N2  UNL     1     -24.944  -3.694 -27.532  0.00  0.00    +0.000 N 
ATOM      2  C5  UNL     1     -24.946  -4.776 -28.385  0.00  0.00    +0.000 C 
ATOM      3  O2  UNL     1     -25.583  -5.805 -28.181  0.00  0.00    +0.000 OA
ATOM      4  H5  UNL     1     -24.108  -3.108 -27.569  0.00  0.00    +0.000 HD
ENDROOT
BRANCH   1   5
ATOM      5  C4  UNL     1     -25.643  -3.770 -26.271  0.00  0.00    +0.000 C 
BRANCH   5  10
ATOM      6  O1  UNL     1     -23.680  -4.659 -25.135  0.00  0.00    +0.000 OA
ATOM      7  C1  UNL     1     -22.954  -4.334 -24.030  0.00  0.00    +0.000 A 
ATOM      8  N1  UNL     1     -23.378  -3.280 -23.372  0.00  0.00    +0.000 NA
ATOM      9  C2  UNL     1     -24.474  -2.875 -24.091  0.00  0.00    +0.000 A 
ATOM     10  C3  UNL     1     -24.663  -3.708 -25.170  0.00  0.00    +0.000 A 
ENDBRANCH   5  10
ENDBRANCH   1   5
BRANCH   2  11
ATOM     11  C6  UNL     1     -23.970  -4.637 -29.553  0.00  0.00    +0.000 C 
BRANCH  11  12
ATOM     12  N3  UNL     1     -22.657  -5.083 -29.123  0.00  0.00    +0.000 N 
ATOM     13  C7  UNL     1     -21.768  -4.170 -28.584  0.00  0.00    +0.000 C 
ATOM     14  O3  UNL     1     -22.046  -2.973 -28.521  0.00  0.00    +0.000 OA
ATOM     15  H8  UNL     1     -22.563  -6.059 -28.877  0.00  0.00    +0.000 HD
BRANCH  13  16
ATOM     16  C8  UNL     1     -20.525  -4.727 -28.055  0.00  0.00    +0.000 A 
ATOM     17  C9  UNL     1     -19.466  -4.056 -27.482  0.00  0.00    +0.000 A 
ATOM     18  O4  UNL     1     -18.519  -4.966 -27.121  0.00  0.00    +0.000 OA
ATOM     19  C10 UNL     1     -19.056  -6.159 -27.491  0.00  0.00    +0.000 A 
ATOM     20  N4  UNL     1     -20.241  -6.084 -28.050  0.00  0.00    +0.000 NA
ENDBRANCH  13  16
ENDBRANCH  11  12
ENDBRANCH   2  11
TORSDOF 5
ENDMDL
MODEL 9
REMARK VINA RESULT:    -4.254     15.560     17.128
REMARK INTER + INTRA:          -6.079
REMARK INTER:                  -5.498
REMARK INTRA:                  -0.581
REMARK UNBOUND:                -0.581
REMARK  Name = /home/anacleto/Desktop/manuscript_Mpro/naturecomm/supplementary_file_S2/6-chemical-library/molecular_docking/3D_ligand_structure/544.pdb
REMARK  5 active torsions:
REMARK  status: ('A' for Active; 'I' for Inactive)
REMARK    1  A    between atoms: C3_5  and  C4_6
REMARK    2  A    between atoms: C4_6  and  N2_7
REMARK    3  A    between atoms: C5_8  and  C6_10
REMARK    4  A    between atoms: C6_10  and  N3_11
REMARK    5  A    between atoms: C7_12  and  C8_14
REMARK                            x       y       z     vdW  Elec       q    Type
REMARK                         _______ _______ _______ _____ _____    ______ ____
ROOT
ATOM      1  N2  UNL     1     -21.289  -5.025 -26.476  0.00  0.00    +0.000 N 
ATOM      2  C5  UNL     1     -21.141  -4.127 -27.511  0.00  0.00    +0.000 C 
ATOM      3  O2  UNL     1     -22.073  -3.512 -28.021  0.00  0.00    +0.000 OA
ATOM      4  H5  UNL     1     -20.573  -5.751 -26.419  0.00  0.00    +0.000 HD
ENDROOT
BRANCH   1   5
ATOM      5  C4  UNL     1     -22.608  -5.358 -25.996  0.00  0.00    +0.000 C 
BRANCH   5  10
ATOM      6  O1  UNL     1     -23.907  -3.606 -24.910  0.00  0.00    +0.000 OA
ATOM      7  C1  UNL     1     -23.944  -3.034 -23.675  0.00  0.00    +0.000 A 
ATOM      8  N1  UNL     1     -23.081  -3.513 -22.810  0.00  0.00    +0.000 NA
ATOM      9  C2  UNL     1     -22.412  -4.474 -23.525  0.00  0.00    +0.000 A 
ATOM     10  C3  UNL     1     -22.912  -4.540 -24.807  0.00  0.00    +0.000 A 
ENDBRANCH   5  10
ENDBRANCH   1   5
BRANCH   2  11
ATOM     11  C6  UNL     1     -19.719  -4.064 -28.068  0.00  0.00    +0.000 C 
BRANCH  11  12
ATOM     12  N3  UNL     1     -19.618  -4.965 -29.202  0.00  0.00    +0.000 N 
ATOM     13  C7  UNL     1     -19.215  -6.274 -29.001  0.00  0.00    +0.000 C 
ATOM     14  O3  UNL     1     -18.879  -6.671 -27.885  0.00  0.00    +0.000 OA
ATOM     15  H8  UNL     1     -20.184  -4.748 -30.011  0.00  0.00    +0.000 HD
BRANCH  13  16
ATOM     16  C8  UNL     1     -19.272  -7.145 -30.172  0.00  0.00    +0.000 A 
ATOM     17  C9  UNL     1     -20.349  -7.400 -30.994  0.00  0.00    +0.000 A 
ATOM     18  O4  UNL     1     -19.956  -8.266 -31.969  0.00  0.00    +0.000 OA
ATOM     19  C10 UNL     1     -18.644  -8.494 -31.693  0.00  0.00    +0.000 A 
ATOM     20  N4  UNL     1     -18.181  -7.860 -30.641  0.00  0.00    +0.000 NA
ENDBRANCH  13  16
ENDBRANCH  11  12
ENDBRANCH   2  11
TORSDOF 5
ENDMDL
