MODEL 1
REMARK VINA RESULT:    -5.295      0.000      0.000
REMARK INTER + INTRA:          -6.973
REMARK INTER:                  -6.478
REMARK INTRA:                  -0.495
REMARK UNBOUND:                -0.440
REMARK  Name = /home/anacleto/Desktop/manuscript_Mpro/naturecomm/supplementary_file_S2/6-chemical-library/molecular_docking/3D_ligand_structure/543.pdb
REMARK  4 active torsions:
REMARK  status: ('A' for Active; 'I' for Inactive)
REMARK    1  A    between atoms: C6_6  and  N1_7
REMARK    2  A    between atoms: C7_8  and  C8_10
REMARK    3  A    between atoms: C8_10  and  N2_11
REMARK    4  A    between atoms: C9_12  and  C10_14
REMARK                            x       y       z     vdW  Elec       q    Type
REMARK                         _______ _______ _______ _____ _____    ______ ____
ROOT
ATOM      1  N1  UNL     1     -27.169   5.299 -39.507  0.00  0.00    +0.000 N 
ATOM      2  C7  UNL     1     -27.942   6.410 -39.248  0.00  0.00    +0.000 C 
ATOM      3  O1  UNL     1     -29.169   6.380 -39.155  0.00  0.00    +0.000 OA
ATOM      4  H12 UNL     1     -26.161   5.396 -39.521  0.00  0.00    +0.000 HD
ENDROOT
BRANCH   1  10
ATOM      5  C1  UNL     1     -26.873   3.115 -40.592  0.00  0.00    +0.000 C 
ATOM      6  C2  UNL     1     -25.513   2.772 -39.976  0.00  0.00    +0.000 C 
ATOM      7  C3  UNL     1     -25.533   2.681 -38.451  0.00  0.00    +0.000 C 
ATOM      8  C4  UNL     1     -26.904   2.280 -37.926  0.00  0.00    +0.000 C 
ATOM      9  C5  UNL     1     -27.991   3.286 -38.320  0.00  0.00    +0.000 C 
ATOM     10  C6  UNL     1     -27.751   3.972 -39.678  0.00  0.00    +0.000 C 
ENDBRANCH   1  10
BRANCH   2  11
ATOM     11  C8  UNL     1     -27.148   7.699 -39.026  0.00  0.00    +0.000 C 
BRANCH  11  12
ATOM     12  N2  UNL     1     -25.733   7.382 -39.039  0.00  0.00    +0.000 N 
ATOM     13  C9  UNL     1     -24.842   8.144 -38.301  0.00  0.00    +0.000 C 
ATOM     14  O2  UNL     1     -25.185   9.217 -37.810  0.00  0.00    +0.000 OA
ATOM     15  H15 UNL     1     -25.511   6.401 -39.156  0.00  0.00    +0.000 HD
BRANCH  13  16
ATOM     16  C10 UNL     1     -23.514   7.575 -38.161  0.00  0.00    +0.000 A 
ATOM     17  C11 UNL     1     -22.982   6.323 -38.426  0.00  0.00    +0.000 A 
ATOM     18  C12 UNL     1     -21.608   6.375 -38.081  0.00  0.00    +0.000 A 
ATOM     19  C13 UNL     1     -21.377   7.651 -37.631  0.00  0.00    +0.000 A 
ATOM     20  O3  UNL     1     -22.517   8.383 -37.677  0.00  0.00    +0.000 OA
ENDBRANCH  13  16
ENDBRANCH  11  12
ENDBRANCH   2  11
TORSDOF 4
ENDMDL
MODEL 2
REMARK VINA RESULT:    -5.046      2.190      3.436
REMARK INTER + INTRA:          -6.666
REMARK INTER:                  -6.283
REMARK INTRA:                  -0.383
REMARK UNBOUND:                -0.440
REMARK  Name = /home/anacleto/Desktop/manuscript_Mpro/naturecomm/supplementary_file_S2/6-chemical-library/molecular_docking/3D_ligand_structure/543.pdb
REMARK  4 active torsions:
REMARK  status: ('A' for Active; 'I' for Inactive)
REMARK    1  A    between atoms: C6_6  and  N1_7
REMARK    2  A    between atoms: C7_8  and  C8_10
REMARK    3  A    between atoms: C8_10  and  N2_11
REMARK    4  A    between atoms: C9_12  and  C10_14
REMARK                            x       y       z     vdW  Elec       q    Type
REMARK                         _______ _______ _______ _____ _____    ______ ____
ROOT
ATOM      1  N1  UNL     1     -24.848   4.614 -38.894  0.00  0.00    +0.000 N 
ATOM      2  C7  UNL     1     -23.812   5.495 -39.114  0.00  0.00    +0.000 C 
ATOM      3  O1  UNL     1     -23.553   5.984 -40.213  0.00  0.00    +0.000 OA
ATOM      4  H12 UNL     1     -25.027   4.292 -37.951  0.00  0.00    +0.000 HD
ENDROOT
BRANCH   1  10
ATOM      5  C1  UNL     1     -26.077   2.706 -39.837  0.00  0.00    +0.000 C 
ATOM      6  C2  UNL     1     -26.907   2.373 -38.593  0.00  0.00    +0.000 C 
ATOM      7  C3  UNL     1     -27.826   3.510 -38.144  0.00  0.00    +0.000 C 
ATOM      8  C4  UNL     1     -28.235   4.400 -39.308  0.00  0.00    +0.000 C 
ATOM      9  C5  UNL     1     -27.027   5.055 -39.988  0.00  0.00    +0.000 C 
ATOM     10  C6  UNL     1     -25.750   4.195 -39.963  0.00  0.00    +0.000 C 
ENDBRANCH   1  10
BRANCH   2  11
ATOM     11  C8  UNL     1     -23.023   5.872 -37.858  0.00  0.00    +0.000 C 
BRANCH  11  12
ATOM     12  N2  UNL     1     -21.894   6.695 -38.246  0.00  0.00    +0.000 N 
ATOM     13  C9  UNL     1     -21.905   8.056 -37.995  0.00  0.00    +0.000 C 
ATOM     14  O2  UNL     1     -22.938   8.627 -37.651  0.00  0.00    +0.000 OA
ATOM     15  H15 UNL     1     -20.994   6.230 -38.224  0.00  0.00    +0.000 HD
BRANCH  13  16
ATOM     16  C10 UNL     1     -20.627   8.724 -38.162  0.00  0.00    +0.000 A 
ATOM     17  C11 UNL     1     -20.205  10.032 -37.979  0.00  0.00    +0.000 A 
ATOM     18  C12 UNL     1     -18.828  10.073 -38.308  0.00  0.00    +0.000 A 
ATOM     19  C13 UNL     1     -18.485   8.794 -38.670  0.00  0.00    +0.000 A 
ATOM     20  O3  UNL     1     -19.560   7.973 -38.584  0.00  0.00    +0.000 OA
ENDBRANCH  13  16
ENDBRANCH  11  12
ENDBRANCH   2  11
TORSDOF 4
ENDMDL
MODEL 3
REMARK VINA RESULT:    -4.888      2.639      7.067
REMARK INTER + INTRA:          -6.470
REMARK INTER:                  -6.088
REMARK INTRA:                  -0.382
REMARK UNBOUND:                -0.440
REMARK  Name = /home/anacleto/Desktop/manuscript_Mpro/naturecomm/supplementary_file_S2/6-chemical-library/molecular_docking/3D_ligand_structure/543.pdb
REMARK  4 active torsions:
REMARK  status: ('A' for Active; 'I' for Inactive)
REMARK    1  A    between atoms: C6_6  and  N1_7
REMARK    2  A    between atoms: C7_8  and  C8_10
REMARK    3  A    between atoms: C8_10  and  N2_11
REMARK    4  A    between atoms: C9_12  and  C10_14
REMARK                            x       y       z     vdW  Elec       q    Type
REMARK                         _______ _______ _______ _____ _____    ______ ____
ROOT
ATOM      1  N1  UNL     1     -21.331   7.309 -39.120  0.00  0.00    +0.000 N 
ATOM      2  C7  UNL     1     -22.247   6.364 -38.709  0.00  0.00    +0.000 C 
ATOM      3  O1  UNL     1     -22.242   5.852 -37.590  0.00  0.00    +0.000 OA
ATOM      4  H12 UNL     1     -21.429   7.719 -40.041  0.00  0.00    +0.000 HD
ENDROOT
BRANCH   1  10
ATOM      5  C1  UNL     1     -18.975   7.998 -39.022  0.00  0.00    +0.000 C 
ATOM      6  C2  UNL     1     -19.057   9.127 -40.055  0.00  0.00    +0.000 C 
ATOM      7  C3  UNL     1     -20.021  10.247 -39.667  0.00  0.00    +0.000 C 
ATOM      8  C4  UNL     1     -20.164  10.374 -38.158  0.00  0.00    +0.000 C 
ATOM      9  C5  UNL     1     -20.703   9.090 -37.517  0.00  0.00    +0.000 C 
ATOM     10  C6  UNL     1     -20.275   7.800 -38.241  0.00  0.00    +0.000 C 
ENDBRANCH   1  10
BRANCH   2  11
ATOM     11  C8  UNL     1     -23.322   6.031 -39.745  0.00  0.00    +0.000 C 
BRANCH  11  12
ATOM     12  N2  UNL     1     -24.254   5.086 -39.161  0.00  0.00    +0.000 N 
ATOM     13  C9  UNL     1     -25.597   5.406 -39.059  0.00  0.00    +0.000 C 
ATOM     14  O2  UNL     1     -25.990   6.555 -39.247  0.00  0.00    +0.000 OA
ATOM     15  H15 UNL     1     -24.023   4.110 -39.301  0.00  0.00    +0.000 HD
BRANCH  13  16
ATOM     16  C10 UNL     1     -26.472   4.295 -38.728  0.00  0.00    +0.000 A 
ATOM     17  C11 UNL     1     -27.846   4.119 -38.772  0.00  0.00    +0.000 A 
ATOM     18  C12 UNL     1     -28.111   2.803 -38.319  0.00  0.00    +0.000 A 
ATOM     19  C13 UNL     1     -26.889   2.248 -38.028  0.00  0.00    +0.000 A 
ATOM     20  O3  UNL     1     -25.895   3.137 -38.272  0.00  0.00    +0.000 OA
ENDBRANCH  13  16
ENDBRANCH  11  12
ENDBRANCH   2  11
TORSDOF 4
ENDMDL
MODEL 4
REMARK VINA RESULT:    -4.698     17.600     19.513
REMARK INTER + INTRA:          -6.236
REMARK INTER:                  -5.797
REMARK INTRA:                  -0.440
REMARK UNBOUND:                -0.440
REMARK  Name = /home/anacleto/Desktop/manuscript_Mpro/naturecomm/supplementary_file_S2/6-chemical-library/molecular_docking/3D_ligand_structure/543.pdb
REMARK  4 active torsions:
REMARK  status: ('A' for Active; 'I' for Inactive)
REMARK    1  A    between atoms: C6_6  and  N1_7
REMARK    2  A    between atoms: C7_8  and  C8_10
REMARK    3  A    between atoms: C8_10  and  N2_11
REMARK    4  A    between atoms: C9_12  and  C10_14
REMARK                            x       y       z     vdW  Elec       q    Type
REMARK                         _______ _______ _______ _____ _____    ______ ____
ROOT
ATOM      1  N1  UNL     1     -23.769  -4.545 -21.529  0.00  0.00    +0.000 N 
ATOM      2  C7  UNL     1     -23.092  -4.278 -22.700  0.00  0.00    +0.000 C 
ATOM      3  O1  UNL     1     -22.274  -5.046 -23.204  0.00  0.00    +0.000 OA
ATOM      4  H12 UNL     1     -24.462  -3.883 -21.202  0.00  0.00    +0.000 HD
ENDROOT
BRANCH   1  10
ATOM      5  C1  UNL     1     -23.418  -5.505 -19.295  0.00  0.00    +0.000 C 
ATOM      6  C2  UNL     1     -24.692  -4.958 -18.643  0.00  0.00    +0.000 C 
ATOM      7  C3  UNL     1     -25.980  -5.445 -19.306  0.00  0.00    +0.000 C 
ATOM      8  C4  UNL     1     -25.800  -6.805 -19.964  0.00  0.00    +0.000 C 
ATOM      9  C5  UNL     1     -24.726  -6.780 -21.058  0.00  0.00    +0.000 C 
ATOM     10  C6  UNL     1     -23.579  -5.789 -20.789  0.00  0.00    +0.000 C 
ENDBRANCH   1  10
BRANCH   2  11
ATOM     11  C8  UNL     1     -23.478  -2.957 -23.368  0.00  0.00    +0.000 C 
BRANCH  11  12
ATOM     12  N2  UNL     1     -24.655  -3.175 -24.188  0.00  0.00    +0.000 N 
ATOM     13  C9  UNL     1     -24.527  -3.684 -25.468  0.00  0.00    +0.000 C 
ATOM     14  O2  UNL     1     -23.428  -3.751 -26.015  0.00  0.00    +0.000 OA
ATOM     15  H15 UNL     1     -25.496  -3.417 -23.678  0.00  0.00    +0.000 HD
BRANCH  13  16
ATOM     16  C10 UNL     1     -25.766  -4.123 -26.084  0.00  0.00    +0.000 A 
ATOM     17  C11 UNL     1     -26.433  -3.763 -27.245  0.00  0.00    +0.000 A 
ATOM     18  C12 UNL     1     -27.608  -4.552 -27.310  0.00  0.00    +0.000 A 
ATOM     19  C13 UNL     1     -27.593  -5.350 -26.193  0.00  0.00    +0.000 A 
ATOM     20  O3  UNL     1     -26.488  -5.102 -25.448  0.00  0.00    +0.000 OA
ENDBRANCH  13  16
ENDBRANCH  11  12
ENDBRANCH   2  11
TORSDOF 4
ENDMDL
MODEL 5
REMARK VINA RESULT:    -4.690      2.481      6.735
REMARK INTER + INTRA:          -6.226
REMARK INTER:                  -5.896
REMARK INTRA:                  -0.329
REMARK UNBOUND:                -0.440
REMARK  Name = /home/anacleto/Desktop/manuscript_Mpro/naturecomm/supplementary_file_S2/6-chemical-library/molecular_docking/3D_ligand_structure/543.pdb
REMARK  4 active torsions:
REMARK  status: ('A' for Active; 'I' for Inactive)
REMARK    1  A    between atoms: C6_6  and  N1_7
REMARK    2  A    between atoms: C7_8  and  C8_10
REMARK    3  A    between atoms: C8_10  and  N2_11
REMARK    4  A    between atoms: C9_12  and  C10_14
REMARK                            x       y       z     vdW  Elec       q    Type
REMARK                         _______ _______ _______ _____ _____    ______ ____
ROOT
ATOM      1  N1  UNL     1     -23.165   6.366 -38.825  0.00  0.00    +0.000 N 
ATOM      2  C7  UNL     1     -23.991   5.510 -39.521  0.00  0.00    +0.000 C 
ATOM      3  O1  UNL     1     -24.000   5.418 -40.748  0.00  0.00    +0.000 OA
ATOM      4  H12 UNL     1     -23.183   6.351 -37.813  0.00  0.00    +0.000 HD
ENDROOT
BRANCH   1  10
ATOM      5  C1  UNL     1     -22.650   8.697 -39.410  0.00  0.00    +0.000 C 
ATOM      6  C2  UNL     1     -22.614   9.254 -37.982  0.00  0.00    +0.000 C 
ATOM      7  C3  UNL     1     -21.545   8.611 -37.099  0.00  0.00    +0.000 C 
ATOM      8  C4  UNL     1     -20.366   8.103 -37.914  0.00  0.00    +0.000 C 
ATOM      9  C5  UNL     1     -20.784   7.042 -38.937  0.00  0.00    +0.000 C 
ATOM     10  C6  UNL     1     -22.205   7.236 -39.499  0.00  0.00    +0.000 C 
ENDBRANCH   1  10
BRANCH   2  11
ATOM     11  C8  UNL     1     -24.876   4.626 -38.639  0.00  0.00    +0.000 C 
BRANCH  11  12
ATOM     12  N2  UNL     1     -26.265   4.880 -38.969  0.00  0.00    +0.000 N 
ATOM     13  C9  UNL     1     -27.265   4.101 -38.415  0.00  0.00    +0.000 C 
ATOM     14  O2  UNL     1     -26.999   3.057 -37.822  0.00  0.00    +0.000 OA
ATOM     15  H15 UNL     1     -26.491   5.847 -39.167  0.00  0.00    +0.000 HD
BRANCH  13  16
ATOM     16  C10 UNL     1     -28.613   4.614 -38.586  0.00  0.00    +0.000 A 
ATOM     17  C11 UNL     1     -29.334   5.621 -37.963  0.00  0.00    +0.000 A 
ATOM     18  C12 UNL     1     -30.613   5.653 -38.572  0.00  0.00    +0.000 A 
ATOM     19  C13 UNL     1     -30.602   4.671 -39.531  0.00  0.00    +0.000 A 
ATOM     20  O3  UNL     1     -29.402   4.040 -39.550  0.00  0.00    +0.000 OA
ENDBRANCH  13  16
ENDBRANCH  11  12
ENDBRANCH   2  11
TORSDOF 4
ENDMDL
MODEL 6
REMARK VINA RESULT:    -4.654     15.753     17.209
REMARK INTER + INTRA:          -6.182
REMARK INTER:                  -5.669
REMARK INTRA:                  -0.513
REMARK UNBOUND:                -0.440
REMARK  Name = /home/anacleto/Desktop/manuscript_Mpro/naturecomm/supplementary_file_S2/6-chemical-library/molecular_docking/3D_ligand_structure/543.pdb
REMARK  4 active torsions:
REMARK  status: ('A' for Active; 'I' for Inactive)
REMARK    1  A    between atoms: C6_6  and  N1_7
REMARK    2  A    between atoms: C7_8  and  C8_10
REMARK    3  A    between atoms: C8_10  and  N2_11
REMARK    4  A    between atoms: C9_12  and  C10_14
REMARK                            x       y       z     vdW  Elec       q    Type
REMARK                         _______ _______ _______ _____ _____    ______ ____
ROOT
ATOM      1  N1  UNL     1     -23.799  -5.140 -26.695  0.00  0.00    +0.000 N 
ATOM      2  C7  UNL     1     -23.008  -4.795 -27.770  0.00  0.00    +0.000 C 
ATOM      3  O1  UNL     1     -23.037  -3.689 -28.310  0.00  0.00    +0.000 OA
ATOM      4  H12 UNL     1     -23.684  -6.054 -26.275  0.00  0.00    +0.000 HD
ENDROOT
BRANCH   1  10
ATOM      5  C1  UNL     1     -26.037  -4.913 -25.707  0.00  0.00    +0.000 C 
ATOM      6  C2  UNL     1     -25.858  -5.932 -24.578  0.00  0.00    +0.000 C 
ATOM      7  C3  UNL     1     -24.737  -5.578 -23.601  0.00  0.00    +0.000 C 
ATOM      8  C4  UNL     1     -24.506  -4.076 -23.525  0.00  0.00    +0.000 C 
ATOM      9  C5  UNL     1     -24.110  -3.482 -24.881  0.00  0.00    +0.000 C 
ATOM     10  C6  UNL     1     -24.738  -4.201 -26.090  0.00  0.00    +0.000 C 
ENDBRANCH   1  10
BRANCH   2  11
ATOM     11  C8  UNL     1     -22.035  -5.887 -28.218  0.00  0.00    +0.000 C 
BRANCH  11  12
ATOM     12  N2  UNL     1     -20.858  -5.838 -27.372  0.00  0.00    +0.000 N 
ATOM     13  C9  UNL     1     -19.750  -5.106 -27.763  0.00  0.00    +0.000 C 
ATOM     14  O2  UNL     1     -19.649  -4.674 -28.909  0.00  0.00    +0.000 OA
ATOM     15  H15 UNL     1     -21.039  -5.906 -26.378  0.00  0.00    +0.000 HD
BRANCH  13  16
ATOM     16  C10 UNL     1     -18.754  -4.898 -26.727  0.00  0.00    +0.000 A 
ATOM     17  C11 UNL     1     -18.212  -3.764 -26.142  0.00  0.00    +0.000 A 
ATOM     18  C12 UNL     1     -17.272  -4.204 -25.178  0.00  0.00    +0.000 A 
ATOM     19  C13 UNL     1     -17.293  -5.576 -25.224  0.00  0.00    +0.000 A 
ATOM     20  O3  UNL     1     -18.183  -6.005 -26.152  0.00  0.00    +0.000 OA
ENDBRANCH  13  16
ENDBRANCH  11  12
ENDBRANCH   2  11
TORSDOF 4
ENDMDL
MODEL 7
REMARK VINA RESULT:    -4.636     17.017     18.744
REMARK INTER + INTRA:          -6.160
REMARK INTER:                  -5.645
REMARK INTRA:                  -0.515
REMARK UNBOUND:                -0.440
REMARK  Name = /home/anacleto/Desktop/manuscript_Mpro/naturecomm/supplementary_file_S2/6-chemical-library/molecular_docking/3D_ligand_structure/543.pdb
REMARK  4 active torsions:
REMARK  status: ('A' for Active; 'I' for Inactive)
REMARK    1  A    between atoms: C6_6  and  N1_7
REMARK    2  A    between atoms: C7_8  and  C8_10
REMARK    3  A    between atoms: C8_10  and  N2_11
REMARK    4  A    between atoms: C9_12  and  C10_14
REMARK                            x       y       z     vdW  Elec       q    Type
REMARK                         _______ _______ _______ _____ _____    ______ ____
ROOT
ATOM      1  N1  UNL     1     -25.160  -4.079 -25.593  0.00  0.00    +0.000 N 
ATOM      2  C7  UNL     1     -23.928  -3.892 -25.005  0.00  0.00    +0.000 C 
ATOM      3  O1  UNL     1     -22.867  -4.253 -25.514  0.00  0.00    +0.000 OA
ATOM      4  H12 UNL     1     -25.984  -3.711 -25.134  0.00  0.00    +0.000 HD
ENDROOT
BRANCH   1  10
ATOM      5  C1  UNL     1     -26.486  -5.691 -26.889  0.00  0.00    +0.000 C 
ATOM      6  C2  UNL     1     -27.844  -4.997 -26.736  0.00  0.00    +0.000 C 
ATOM      7  C3  UNL     1     -27.883  -3.586 -27.322  0.00  0.00    +0.000 C 
ATOM      8  C4  UNL     1     -26.893  -3.420 -28.465  0.00  0.00    +0.000 C 
ATOM      9  C5  UNL     1     -25.448  -3.669 -28.019  0.00  0.00    +0.000 C 
ATOM     10  C6  UNL     1     -25.308  -4.716 -26.899  0.00  0.00    +0.000 C 
ENDBRANCH   1  10
BRANCH   2  11
ATOM     11  C8  UNL     1     -23.969  -3.141 -23.673  0.00  0.00    +0.000 C 
BRANCH  11  12
ATOM     12  N2  UNL     1     -23.663  -4.072 -22.603  0.00  0.00    +0.000 N 
ATOM     13  C9  UNL     1     -24.605  -5.003 -22.201  0.00  0.00    +0.000 C 
ATOM     14  O2  UNL     1     -25.774  -4.922 -22.573  0.00  0.00    +0.000 OA
ATOM     15  H15 UNL     1     -22.690  -4.340 -22.530  0.00  0.00    +0.000 HD
BRANCH  13  16
ATOM     16  C10 UNL     1     -24.102  -6.053 -21.334  0.00  0.00    +0.000 A 
ATOM     17  C11 UNL     1     -23.041  -6.126 -20.444  0.00  0.00    +0.000 A 
ATOM     18  C12 UNL     1     -23.057  -7.428 -19.885  0.00  0.00    +0.000 A 
ATOM     19  C13 UNL     1     -24.124  -8.075 -20.459  0.00  0.00    +0.000 A 
ATOM     20  O3  UNL     1     -24.762  -7.256 -21.331  0.00  0.00    +0.000 OA
ENDBRANCH  13  16
ENDBRANCH  11  12
ENDBRANCH   2  11
TORSDOF 4
ENDMDL
MODEL 8
REMARK VINA RESULT:    -4.598      2.152      6.447
REMARK INTER + INTRA:          -6.112
REMARK INTER:                  -5.668
REMARK INTRA:                  -0.444
REMARK UNBOUND:                -0.440
REMARK  Name = /home/anacleto/Desktop/manuscript_Mpro/naturecomm/supplementary_file_S2/6-chemical-library/molecular_docking/3D_ligand_structure/543.pdb
REMARK  4 active torsions:
REMARK  status: ('A' for Active; 'I' for Inactive)
REMARK    1  A    between atoms: C6_6  and  N1_7
REMARK    2  A    between atoms: C7_8  and  C8_10
REMARK    3  A    between atoms: C8_10  and  N2_11
REMARK    4  A    between atoms: C9_12  and  C10_14
REMARK                            x       y       z     vdW  Elec       q    Type
REMARK                         _______ _______ _______ _____ _____    ______ ____
ROOT
ATOM      1  N1  UNL     1     -22.885   8.528 -39.128  0.00  0.00    +0.000 N 
ATOM      2  C7  UNL     1     -24.182   8.153 -38.852  0.00  0.00    +0.000 C 
ATOM      3  O1  UNL     1     -24.690   8.231 -37.734  0.00  0.00    +0.000 OA
ATOM      4  H12 UNL     1     -22.553   8.479 -40.083  0.00  0.00    +0.000 HD
ENDROOT
BRANCH   1  10
ATOM      5  C1  UNL     1     -21.117   7.971 -37.516  0.00  0.00    +0.000 C 
ATOM      6  C2  UNL     1     -20.106   7.407 -38.519  0.00  0.00    +0.000 C 
ATOM      7  C3  UNL     1     -19.654   8.419 -39.572  0.00  0.00    +0.000 C 
ATOM      8  C4  UNL     1     -19.732   9.847 -39.055  0.00  0.00    +0.000 C 
ATOM      9  C5  UNL     1     -21.158  10.240 -38.653  0.00  0.00    +0.000 C 
ATOM     10  C6  UNL     1     -22.000   9.073 -38.103  0.00  0.00    +0.000 C 
ENDBRANCH   1  10
BRANCH   2  11
ATOM     11  C8  UNL     1     -24.976   7.675 -40.069  0.00  0.00    +0.000 C 
BRANCH  11  12
ATOM     12  N2  UNL     1     -25.755   6.512 -39.690  0.00  0.00    +0.000 N 
ATOM     13  C9  UNL     1     -25.192   5.248 -39.748  0.00  0.00    +0.000 C 
ATOM     14  O2  UNL     1     -24.121   5.059 -40.321  0.00  0.00    +0.000 OA
ATOM     15  H15 UNL     1     -26.450   6.673 -38.972  0.00  0.00    +0.000 HD
BRANCH  13  16
ATOM     16  C10 UNL     1     -25.953   4.204 -39.086  0.00  0.00    +0.000 A 
ATOM     17  C11 UNL     1     -25.618   2.958 -38.579  0.00  0.00    +0.000 A 
ATOM     18  C12 UNL     1     -26.804   2.395 -38.045  0.00  0.00    +0.000 A 
ATOM     19  C13 UNL     1     -27.793   3.325 -38.252  0.00  0.00    +0.000 A 
ATOM     20  O3  UNL     1     -27.291   4.419 -38.876  0.00  0.00    +0.000 OA
ENDBRANCH  13  16
ENDBRANCH  11  12
ENDBRANCH   2  11
TORSDOF 4
ENDMDL
MODEL 9
REMARK VINA RESULT:    -4.541     14.756     16.347
REMARK INTER + INTRA:          -6.043
REMARK INTER:                  -5.530
REMARK INTRA:                  -0.513
REMARK UNBOUND:                -0.440
REMARK  Name = /home/anacleto/Desktop/manuscript_Mpro/naturecomm/supplementary_file_S2/6-chemical-library/molecular_docking/3D_ligand_structure/543.pdb
REMARK  4 active torsions:
REMARK  status: ('A' for Active; 'I' for Inactive)
REMARK    1  A    between atoms: C6_6  and  N1_7
REMARK    2  A    between atoms: C7_8  and  C8_10
REMARK    3  A    between atoms: C8_10  and  N2_11
REMARK    4  A    between atoms: C9_12  and  C10_14
REMARK                            x       y       z     vdW  Elec       q    Type
REMARK                         _______ _______ _______ _____ _____    ______ ____
ROOT
ATOM      1  N1  UNL     1     -22.934  -5.217 -29.133  0.00  0.00    +0.000 N 
ATOM      2  C7  UNL     1     -24.311  -5.186 -29.146  0.00  0.00    +0.000 C 
ATOM      3  O1  UNL     1     -25.012  -6.145 -29.468  0.00  0.00    +0.000 OA
ATOM      4  H12 UNL     1     -22.428  -4.402 -28.810  0.00  0.00    +0.000 HD
ENDROOT
BRANCH   1  10
ATOM      5  C1  UNL     1     -21.141  -6.098 -30.563  0.00  0.00    +0.000 C 
ATOM      6  C2  UNL     1     -20.022  -5.176 -30.067  0.00  0.00    +0.000 C 
ATOM      7  C3  UNL     1     -19.720  -5.322 -28.576  0.00  0.00    +0.000 C 
ATOM      8  C4  UNL     1     -20.053  -6.716 -28.064  0.00  0.00    +0.000 C 
ATOM      9  C5  UNL     1     -21.535  -7.061 -28.248  0.00  0.00    +0.000 C 
ATOM     10  C6  UNL     1     -22.181  -6.417 -29.488  0.00  0.00    +0.000 C 
ENDBRANCH   1  10
BRANCH   2  11
ATOM     11  C8  UNL     1     -24.920  -3.865 -28.672  0.00  0.00    +0.000 C 
BRANCH  11  12
ATOM     12  N2  UNL     1     -24.373  -3.540 -27.369  0.00  0.00    +0.000 N 
ATOM     13  C9  UNL     1     -25.004  -3.984 -26.219  0.00  0.00    +0.000 C 
ATOM     14  O2  UNL     1     -26.136  -4.460 -26.263  0.00  0.00    +0.000 OA
ATOM     15  H15 UNL     1     -23.366  -3.448 -27.335  0.00  0.00    +0.000 HD
BRANCH  13  16
ATOM     16  C10 UNL     1     -24.228  -3.847 -25.000  0.00  0.00    +0.000 A 
ATOM     17  C11 UNL     1     -24.111  -2.840 -24.054  0.00  0.00    +0.000 A 
ATOM     18  C12 UNL     1     -23.189  -3.293 -23.078  0.00  0.00    +0.000 A 
ATOM     19  C13 UNL     1     -22.798  -4.547 -23.477  0.00  0.00    +0.000 A 
ATOM     20  O3  UNL     1     -23.420  -4.892 -24.631  0.00  0.00    +0.000 OA
ENDBRANCH  13  16
ENDBRANCH  11  12
ENDBRANCH   2  11
TORSDOF 4
ENDMDL
