MODEL 1
REMARK VINA RESULT:    -4.562      0.000      0.000
REMARK INTER + INTRA:          -4.562
REMARK INTER:                  -4.562
REMARK INTRA:                   0.000
REMARK UNBOUND:                 0.000
REMARK  Name = /home/anacleto/Desktop/manuscript_Mpro/naturecomm/supplementary_file_S2/6-chemical-library/molecular_docking/3D_ligand_structure/141.pdb
REMARK  0 active torsions:
REMARK  status: ('A' for Active; 'I' for Inactive)
REMARK                            x       y       z     vdW  Elec       q    Type
REMARK                         _______ _______ _______ _____ _____    ______ ____
ROOT
ATOM      1  C1  UNL     1      16.737  11.353  -6.950  0.00  0.00    +0.000 C 
ATOM      2  C2  UNL     1      15.527  12.215  -7.297  0.00  0.00    +0.000 C 
ATOM      3  C3  UNL     1      14.242  11.549  -6.848  0.00  0.00    +0.000 C 
ATOM      4  S1  UNL     1      14.165  11.459  -5.079  0.00  0.00    +0.000 S 
ATOM      5  O1  UNL     1      13.932  12.796  -4.568  0.00  0.00    +0.000 OA
ATOM      6  O2  UNL     1      13.292  10.354  -4.732  0.00  0.00    +0.000 OA
ATOM      7  C4  UNL     1      15.804  11.006  -4.581  0.00  0.00    +0.000 A 
ATOM      8  C5  UNL     1      16.873  11.007  -5.489  0.00  0.00    +0.000 A 
ATOM      9  C6  UNL     1      15.983  10.636  -3.242  0.00  0.00    +0.000 A 
ATOM     10  C7  UNL     1      17.246  10.258  -2.793  0.00  0.00    +0.000 A 
ATOM     11  C8  UNL     1      18.320  10.244  -3.680  0.00  0.00    +0.000 A 
ATOM     12  C9  UNL     1      18.134  10.610  -5.015  0.00  0.00    +0.000 A 
ENDROOT
TORSDOF 0
ENDMDL
MODEL 2
REMARK VINA RESULT:    -4.384      1.967      3.600
REMARK INTER + INTRA:          -4.384
REMARK INTER:                  -4.384
REMARK INTRA:                   0.000
REMARK UNBOUND:                 0.000
REMARK  Name = /home/anacleto/Desktop/manuscript_Mpro/naturecomm/supplementary_file_S2/6-chemical-library/molecular_docking/3D_ligand_structure/141.pdb
REMARK  0 active torsions:
REMARK  status: ('A' for Active; 'I' for Inactive)
REMARK                            x       y       z     vdW  Elec       q    Type
REMARK                         _______ _______ _______ _____ _____    ______ ____
ROOT
ATOM      1  C1  UNL     1      17.227  12.267  -5.975  0.00  0.00    +0.000 C 
ATOM      2  C2  UNL     1      18.105  11.970  -4.764  0.00  0.00    +0.000 C 
ATOM      3  C3  UNL     1      17.439  12.437  -3.485  0.00  0.00    +0.000 C 
ATOM      4  S1  UNL     1      15.978  11.486  -3.154  0.00  0.00    +0.000 S 
ATOM      5  O1  UNL     1      16.389  10.159  -2.738  0.00  0.00    +0.000 OA
ATOM      6  O2  UNL     1      15.102  12.299  -2.332  0.00  0.00    +0.000 OA
ATOM      7  C4  UNL     1      15.195  11.303  -4.732  0.00  0.00    +0.000 A 
ATOM      8  C5  UNL     1      15.844  11.667  -5.920  0.00  0.00    +0.000 A 
ATOM      9  C6  UNL     1      13.892  10.788  -4.740  0.00  0.00    +0.000 A 
ATOM     10  C7  UNL     1      13.219  10.631  -5.948  0.00  0.00    +0.000 A 
ATOM     11  C8  UNL     1      13.842  10.995  -7.139  0.00  0.00    +0.000 A 
ATOM     12  C9  UNL     1      15.139  11.512  -7.125  0.00  0.00    +0.000 A 
ENDROOT
TORSDOF 0
ENDMDL
MODEL 3
REMARK VINA RESULT:    -4.246     15.508     17.354
REMARK INTER + INTRA:          -4.246
REMARK INTER:                  -4.246
REMARK INTRA:                   0.000
REMARK UNBOUND:                 0.000
REMARK  Name = /home/anacleto/Desktop/manuscript_Mpro/naturecomm/supplementary_file_S2/6-chemical-library/molecular_docking/3D_ligand_structure/141.pdb
REMARK  0 active torsions:
REMARK  status: ('A' for Active; 'I' for Inactive)
REMARK                            x       y       z     vdW  Elec       q    Type
REMARK                         _______ _______ _______ _____ _____    ______ ____
ROOT
ATOM      1  C1  UNL     1      18.269   4.096  10.986  0.00  0.00    +0.000 C 
ATOM      2  C2  UNL     1      17.669   4.437  12.347  0.00  0.00    +0.000 C 
ATOM      3  C3  UNL     1      18.655   5.219  13.192  0.00  0.00    +0.000 C 
ATOM      4  S1  UNL     1      18.960   6.817  12.486  0.00  0.00    +0.000 S 
ATOM      5  O1  UNL     1      17.777   7.631  12.684  0.00  0.00    +0.000 OA
ATOM      6  O2  UNL     1      20.266   7.256  12.940  0.00  0.00    +0.000 OA
ATOM      7  C4  UNL     1      19.085   6.521  10.743  0.00  0.00    +0.000 A 
ATOM      8  C5  UNL     1      18.739   5.283  10.184  0.00  0.00    +0.000 A 
ATOM      9  C6  UNL     1      19.554   7.576   9.951  0.00  0.00    +0.000 A 
ATOM     10  C7  UNL     1      19.686   7.401   8.576  0.00  0.00    +0.000 A 
ATOM     11  C8  UNL     1      19.356   6.177   8.000  0.00  0.00    +0.000 A 
ATOM     12  C9  UNL     1      18.892   5.127   8.796  0.00  0.00    +0.000 A 
ENDROOT
TORSDOF 0
ENDMDL
MODEL 4
REMARK VINA RESULT:    -4.226     16.079     17.830
REMARK INTER + INTRA:          -4.226
REMARK INTER:                  -4.226
REMARK INTRA:                   0.000
REMARK UNBOUND:                 0.000
REMARK  Name = /home/anacleto/Desktop/manuscript_Mpro/naturecomm/supplementary_file_S2/6-chemical-library/molecular_docking/3D_ligand_structure/141.pdb
REMARK  0 active torsions:
REMARK  status: ('A' for Active; 'I' for Inactive)
REMARK                            x       y       z     vdW  Elec       q    Type
REMARK                         _______ _______ _______ _____ _____    ______ ____
ROOT
ATOM      1  C1  UNL     1      18.701   7.454  11.811  0.00  0.00    +0.000 C 
ATOM      2  C2  UNL     1      19.524   7.870  13.026  0.00  0.00    +0.000 C 
ATOM      3  C3  UNL     1      20.335   6.704  13.555  0.00  0.00    +0.000 C 
ATOM      4  S1  UNL     1      21.578   6.220  12.386  0.00  0.00    +0.000 S 
ATOM      5  O1  UNL     1      22.608   7.241  12.375  0.00  0.00    +0.000 OA
ATOM      6  O2  UNL     1      21.896   4.827  12.634  0.00  0.00    +0.000 OA
ATOM      7  C4  UNL     1      20.769   6.300  10.812  0.00  0.00    +0.000 A 
ATOM      8  C5  UNL     1      19.501   6.881  10.668  0.00  0.00    +0.000 A 
ATOM      9  C6  UNL     1      21.448   5.746   9.719  0.00  0.00    +0.000 A 
ATOM     10  C7  UNL     1      20.859   5.767   8.458  0.00  0.00    +0.000 A 
ATOM     11  C8  UNL     1      19.596   6.332   8.293  0.00  0.00    +0.000 A 
ATOM     12  C9  UNL     1      18.922   6.879   9.388  0.00  0.00    +0.000 A 
ENDROOT
TORSDOF 0
ENDMDL
MODEL 5
REMARK VINA RESULT:    -4.153      1.819      2.662
REMARK INTER + INTRA:          -4.153
REMARK INTER:                  -4.153
REMARK INTRA:                   0.000
REMARK UNBOUND:                 0.000
REMARK  Name = /home/anacleto/Desktop/manuscript_Mpro/naturecomm/supplementary_file_S2/6-chemical-library/molecular_docking/3D_ligand_structure/141.pdb
REMARK  0 active torsions:
REMARK  status: ('A' for Active; 'I' for Inactive)
REMARK                            x       y       z     vdW  Elec       q    Type
REMARK                         _______ _______ _______ _____ _____    ______ ____
ROOT
ATOM      1  C1  UNL     1      14.474  11.201  -7.194  0.00  0.00    +0.000 C 
ATOM      2  C2  UNL     1      13.352  11.445  -6.191  0.00  0.00    +0.000 C 
ATOM      3  C3  UNL     1      13.654  10.773  -4.867  0.00  0.00    +0.000 C 
ATOM      4  S1  UNL     1      15.053  11.529  -4.082  0.00  0.00    +0.000 S 
ATOM      5  O1  UNL     1      14.649  12.835  -3.599  0.00  0.00    +0.000 OA
ATOM      6  O2  UNL     1      15.645  10.545  -3.197  0.00  0.00    +0.000 OA
ATOM      7  C4  UNL     1      16.207  11.810  -5.397  0.00  0.00    +0.000 A 
ATOM      8  C5  UNL     1      15.841  11.649  -6.741  0.00  0.00    +0.000 A 
ATOM      9  C6  UNL     1      17.505  12.190  -5.034  0.00  0.00    +0.000 A 
ATOM     10  C7  UNL     1      18.461  12.414  -6.021  0.00  0.00    +0.000 A 
ATOM     11  C8  UNL     1      18.121  12.251  -7.362  0.00  0.00    +0.000 A 
ATOM     12  C9  UNL     1      16.825  11.868  -7.718  0.00  0.00    +0.000 A 
ENDROOT
TORSDOF 0
ENDMDL
MODEL 6
REMARK VINA RESULT:    -4.128     16.240     17.787
REMARK INTER + INTRA:          -4.128
REMARK INTER:                  -4.128
REMARK INTRA:                   0.000
REMARK UNBOUND:                 0.000
REMARK  Name = /home/anacleto/Desktop/manuscript_Mpro/naturecomm/supplementary_file_S2/6-chemical-library/molecular_docking/3D_ligand_structure/141.pdb
REMARK  0 active torsions:
REMARK  status: ('A' for Active; 'I' for Inactive)
REMARK                            x       y       z     vdW  Elec       q    Type
REMARK                         _______ _______ _______ _____ _____    ______ ____
ROOT
ATOM      1  C1  UNL     1      13.409   0.578   8.873  0.00  0.00    +0.000 C 
ATOM      2  C2  UNL     1      12.396   0.804   9.991  0.00  0.00    +0.000 C 
ATOM      3  C3  UNL     1      13.070   0.761  11.348  0.00  0.00    +0.000 C 
ATOM      4  S1  UNL     1      14.181   2.129  11.543  0.00  0.00    +0.000 S 
ATOM      5  O1  UNL     1      13.389   3.334  11.707  0.00  0.00    +0.000 OA
ATOM      6  O2  UNL     1      15.185   1.745  12.516  0.00  0.00    +0.000 OA
ATOM      7  C4  UNL     1      14.997   2.271   9.977  0.00  0.00    +0.000 A 
ATOM      8  C5  UNL     1      14.563   1.549   8.856  0.00  0.00    +0.000 A 
ATOM      9  C6  UNL     1      16.103   3.128   9.911  0.00  0.00    +0.000 A 
ATOM     10  C7  UNL     1      16.794   3.273   8.711  0.00  0.00    +0.000 A 
ATOM     11  C8  UNL     1      16.386   2.558   7.587  0.00  0.00    +0.000 A 
ATOM     12  C9  UNL     1      15.284   1.701   7.660  0.00  0.00    +0.000 A 
ENDROOT
TORSDOF 0
ENDMDL
MODEL 7
REMARK VINA RESULT:    -4.124     15.433     17.184
REMARK INTER + INTRA:          -4.124
REMARK INTER:                  -4.124
REMARK INTRA:                   0.000
REMARK UNBOUND:                 0.000
REMARK  Name = /home/anacleto/Desktop/manuscript_Mpro/naturecomm/supplementary_file_S2/6-chemical-library/molecular_docking/3D_ligand_structure/141.pdb
REMARK  0 active torsions:
REMARK  status: ('A' for Active; 'I' for Inactive)
REMARK                            x       y       z     vdW  Elec       q    Type
REMARK                         _______ _______ _______ _____ _____    ______ ____
ROOT
ATOM      1  C1  UNL     1      19.047   4.060  10.169  0.00  0.00    +0.000 C 
ATOM      2  C2  UNL     1      20.336   4.172   9.361  0.00  0.00    +0.000 C 
ATOM      3  C3  UNL     1      20.340   5.434   8.521  0.00  0.00    +0.000 C 
ATOM      4  S1  UNL     1      20.396   6.875   9.552  0.00  0.00    +0.000 S 
ATOM      5  O1  UNL     1      21.724   6.968  10.127  0.00  0.00    +0.000 OA
ATOM      6  O2  UNL     1      19.818   7.975   8.803  0.00  0.00    +0.000 OA
ATOM      7  C4  UNL     1      19.290   6.515  10.888  0.00  0.00    +0.000 A 
ATOM      8  C5  UNL     1      18.763   5.230  11.077  0.00  0.00    +0.000 A 
ATOM      9  C6  UNL     1      18.957   7.574  11.742  0.00  0.00    +0.000 A 
ATOM     10  C7  UNL     1      18.083   7.356  12.804  0.00  0.00    +0.000 A 
ATOM     11  C8  UNL     1      17.540   6.089  13.004  0.00  0.00    +0.000 A 
ATOM     12  C9  UNL     1      17.873   5.038  12.146  0.00  0.00    +0.000 A 
ENDROOT
TORSDOF 0
ENDMDL
MODEL 8
REMARK VINA RESULT:    -4.118     15.654     16.747
REMARK INTER + INTRA:          -4.118
REMARK INTER:                  -4.118
REMARK INTRA:                   0.000
REMARK UNBOUND:                 0.000
REMARK  Name = /home/anacleto/Desktop/manuscript_Mpro/naturecomm/supplementary_file_S2/6-chemical-library/molecular_docking/3D_ligand_structure/141.pdb
REMARK  0 active torsions:
REMARK  status: ('A' for Active; 'I' for Inactive)
REMARK                            x       y       z     vdW  Elec       q    Type
REMARK                         _______ _______ _______ _____ _____    ______ ____
ROOT
ATOM      1  C1  UNL     1      18.300   4.444   8.925  0.00  0.00    +0.000 C 
ATOM      2  C2  UNL     1      18.533   3.250   9.844  0.00  0.00    +0.000 C 
ATOM      3  C3  UNL     1      19.904   2.646   9.610  0.00  0.00    +0.000 C 
ATOM      4  S1  UNL     1      21.180   3.775  10.100  0.00  0.00    +0.000 S 
ATOM      5  O1  UNL     1      21.193   3.839  11.549  0.00  0.00    +0.000 OA
ATOM      6  O2  UNL     1      22.374   3.442   9.347  0.00  0.00    +0.000 OA
ATOM      7  C4  UNL     1      20.625   5.357   9.528  0.00  0.00    +0.000 A 
ATOM      8  C5  UNL     1      19.324   5.545   9.041  0.00  0.00    +0.000 A 
ATOM      9  C6  UNL     1      21.547   6.410   9.574  0.00  0.00    +0.000 A 
ATOM     10  C7  UNL     1      21.174   7.675   9.127  0.00  0.00    +0.000 A 
ATOM     11  C8  UNL     1      19.890   7.882   8.631  0.00  0.00    +0.000 A 
ATOM     12  C9  UNL     1      18.975   6.826   8.584  0.00  0.00    +0.000 A 
ENDROOT
TORSDOF 0
ENDMDL
MODEL 9
REMARK VINA RESULT:    -4.041      2.623      4.246
REMARK INTER + INTRA:          -4.041
REMARK INTER:                  -4.041
REMARK INTRA:                   0.000
REMARK UNBOUND:                 0.000
REMARK  Name = /home/anacleto/Desktop/manuscript_Mpro/naturecomm/supplementary_file_S2/6-chemical-library/molecular_docking/3D_ligand_structure/141.pdb
REMARK  0 active torsions:
REMARK  status: ('A' for Active; 'I' for Inactive)
REMARK                            x       y       z     vdW  Elec       q    Type
REMARK                         _______ _______ _______ _____ _____    ______ ____
ROOT
ATOM      1  C1  UNL     1      14.998  11.560  -3.049  0.00  0.00    +0.000 C 
ATOM      2  C2  UNL     1      15.723  12.825  -2.599  0.00  0.00    +0.000 C 
ATOM      3  C3  UNL     1      17.033  12.991  -3.343  0.00  0.00    +0.000 C 
ATOM      4  S1  UNL     1      16.744  13.297  -5.065  0.00  0.00    +0.000 S 
ATOM      5  O1  UNL     1      16.219  14.642  -5.203  0.00  0.00    +0.000 OA
ATOM      6  O2  UNL     1      17.923  12.867  -5.792  0.00  0.00    +0.000 OA
ATOM      7  C4  UNL     1      15.429  12.193  -5.503  0.00  0.00    +0.000 A 
ATOM      8  C5  UNL     1      14.712  11.485  -4.528  0.00  0.00    +0.000 A 
ATOM      9  C6  UNL     1      15.144  12.051  -6.867  0.00  0.00    +0.000 A 
ATOM     10  C7  UNL     1      14.130  11.189  -7.274  0.00  0.00    +0.000 A 
ATOM     11  C8  UNL     1      13.411  10.468  -6.324  0.00  0.00    +0.000 A 
ATOM     12  C9  UNL     1      13.703  10.611  -4.965  0.00  0.00    +0.000 A 
ENDROOT
TORSDOF 0
ENDMDL
