MODEL 1
REMARK VINA RESULT:    -4.122      0.000      0.000
REMARK INTER + INTRA:          -4.494
REMARK INTER:                  -4.368
REMARK INTRA:                  -0.126
REMARK UNBOUND:                -0.131
REMARK  Name = /home/anacleto/Desktop/manuscript_Mpro/naturecomm/supplementary_file_S2/6-chemical-library/molecular_docking/3D_ligand_structure/1170.pdb
REMARK  1 active torsions:
REMARK  status: ('A' for Active; 'I' for Inactive)
REMARK    1  A    between atoms: C3_5  and  C4_6
REMARK                            x       y       z     vdW  Elec       q    Type
REMARK                         _______ _______ _______ _____ _____    ______ ____
ROOT
ATOM      1  C4  UNL     1      14.855  12.999  -3.435  0.00  0.00    +0.000 A 
ATOM      2  C5  UNL     1      15.088  11.581  -3.018  0.00  0.00    +0.000 A 
ATOM      3  O1  UNL     1      15.606  11.253  -1.954  0.00  0.00    +0.000 OA
ATOM      4  N2  UNL     1      14.682  10.609  -3.905  0.00  0.00    +0.000 N 
ATOM      5  N3  UNL     1      14.094  10.813  -5.116  0.00  0.00    +0.000 NA
ATOM      6  C6  UNL     1      13.908  12.047  -5.446  0.00  0.00    +0.000 A 
ATOM      7  C7  UNL     1      14.275  13.207  -4.629  0.00  0.00    +0.000 A 
ATOM      8  H3  UNL     1      14.836   9.643  -3.632  0.00  0.00    +0.000 HD
ENDROOT
BRANCH   1  13
ATOM      9  S1  UNL     1      16.842  14.669  -2.391  0.00  0.00    +0.000 S 
ATOM     10  C1  UNL     1      16.308  15.986  -1.447  0.00  0.00    +0.000 A 
ATOM     11  C2  UNL     1      14.938  15.975  -1.378  0.00  0.00    +0.000 A 
ATOM     12  N1  UNL     1      14.321  14.945  -2.056  0.00  0.00    +0.000 NA
ATOM     13  C3  UNL     1      15.204  14.153  -2.655  0.00  0.00    +0.000 A 
ENDBRANCH   1  13
TORSDOF 1
ENDMDL
MODEL 2
REMARK VINA RESULT:    -4.101      2.943      3.431
REMARK INTER + INTRA:          -4.472
REMARK INTER:                  -4.343
REMARK INTRA:                  -0.129
REMARK UNBOUND:                -0.131
REMARK  Name = /home/anacleto/Desktop/manuscript_Mpro/naturecomm/supplementary_file_S2/6-chemical-library/molecular_docking/3D_ligand_structure/1170.pdb
REMARK  1 active torsions:
REMARK  status: ('A' for Active; 'I' for Inactive)
REMARK    1  A    between atoms: C3_5  and  C4_6
REMARK                            x       y       z     vdW  Elec       q    Type
REMARK                         _______ _______ _______ _____ _____    ______ ____
ROOT
ATOM      1  C4  UNL     1      15.081  11.266  -4.869  0.00  0.00    +0.000 A 
ATOM      2  C5  UNL     1      15.838  11.462  -6.144  0.00  0.00    +0.000 A 
ATOM      3  O1  UNL     1      17.015  11.805  -6.200  0.00  0.00    +0.000 OA
ATOM      4  N2  UNL     1      15.140  11.234  -7.309  0.00  0.00    +0.000 N 
ATOM      5  N3  UNL     1      13.838  10.851  -7.411  0.00  0.00    +0.000 NA
ATOM      6  C6  UNL     1      13.213  10.691  -6.292  0.00  0.00    +0.000 A 
ATOM      7  C7  UNL     1      13.795  10.888  -4.961  0.00  0.00    +0.000 A 
ATOM      8  H3  UNL     1      15.644  11.365  -8.181  0.00  0.00    +0.000 HD
ENDROOT
BRANCH   1  13
ATOM      9  S1  UNL     1      15.528  12.950  -2.679  0.00  0.00    +0.000 S 
ATOM     10  C1  UNL     1      16.365  12.271  -1.357  0.00  0.00    +0.000 A 
ATOM     11  C2  UNL     1      16.674  10.962  -1.633  0.00  0.00    +0.000 A 
ATOM     12  N1  UNL     1      16.258  10.505  -2.866  0.00  0.00    +0.000 NA
ATOM     13  C3  UNL     1      15.626  11.451  -3.553  0.00  0.00    +0.000 A 
ENDBRANCH   1  13
TORSDOF 1
ENDMDL
MODEL 3
REMARK VINA RESULT:    -4.078     16.153     16.894
REMARK INTER + INTRA:          -4.447
REMARK INTER:                  -4.316
REMARK INTRA:                  -0.132
REMARK UNBOUND:                -0.131
REMARK  Name = /home/anacleto/Desktop/manuscript_Mpro/naturecomm/supplementary_file_S2/6-chemical-library/molecular_docking/3D_ligand_structure/1170.pdb
REMARK  1 active torsions:
REMARK  status: ('A' for Active; 'I' for Inactive)
REMARK    1  A    between atoms: C3_5  and  C4_6
REMARK                            x       y       z     vdW  Elec       q    Type
REMARK                         _______ _______ _______ _____ _____    ______ ____
ROOT
ATOM      1  C4  UNL     1      19.499   6.858  11.137  0.00  0.00    +0.000 A 
ATOM      2  C5  UNL     1      20.967   6.984  11.401  0.00  0.00    +0.000 A 
ATOM      3  O1  UNL     1      21.494   6.745  12.484  0.00  0.00    +0.000 OA
ATOM      4  N2  UNL     1      21.745   7.397  10.342  0.00  0.00    +0.000 N 
ATOM      5  N3  UNL     1      21.310   7.698   9.088  0.00  0.00    +0.000 NA
ATOM      6  C6  UNL     1      20.039   7.579   8.893  0.00  0.00    +0.000 A 
ATOM      7  C7  UNL     1      19.063   7.154   9.901  0.00  0.00    +0.000 A 
ATOM      8  H3  UNL     1      22.742   7.486  10.511  0.00  0.00    +0.000 HD
ENDROOT
BRANCH   1  13
ATOM      9  S1  UNL     1      17.827   7.517  13.281  0.00  0.00    +0.000 S 
ATOM     10  C1  UNL     1      16.876   6.253  13.918  0.00  0.00    +0.000 A 
ATOM     11  C2  UNL     1      17.123   5.096  13.222  0.00  0.00    +0.000 A 
ATOM     12  N1  UNL     1      18.049   5.207  12.205  0.00  0.00    +0.000 NA
ATOM     13  C3  UNL     1      18.523   6.444  12.105  0.00  0.00    +0.000 A 
ENDBRANCH   1  13
TORSDOF 1
ENDMDL
MODEL 4
REMARK VINA RESULT:    -4.020      3.745      4.814
REMARK INTER + INTRA:          -4.386
REMARK INTER:                  -4.268
REMARK INTRA:                  -0.118
REMARK UNBOUND:                -0.131
REMARK  Name = /home/anacleto/Desktop/manuscript_Mpro/naturecomm/supplementary_file_S2/6-chemical-library/molecular_docking/3D_ligand_structure/1170.pdb
REMARK  1 active torsions:
REMARK  status: ('A' for Active; 'I' for Inactive)
REMARK    1  A    between atoms: C3_5  and  C4_6
REMARK                            x       y       z     vdW  Elec       q    Type
REMARK                         _______ _______ _______ _____ _____    ______ ____
ROOT
ATOM      1  C4  UNL     1      15.518  11.430  -6.280  0.00  0.00    +0.000 A 
ATOM      2  C5  UNL     1      15.612  10.984  -4.855  0.00  0.00    +0.000 A 
ATOM      3  O1  UNL     1      16.651  10.983  -4.201  0.00  0.00    +0.000 OA
ATOM      4  N2  UNL     1      14.441  10.555  -4.271  0.00  0.00    +0.000 N 
ATOM      5  N3  UNL     1      13.216  10.499  -4.862  0.00  0.00    +0.000 NA
ATOM      6  C6  UNL     1      13.169  10.891  -6.091  0.00  0.00    +0.000 A 
ATOM      7  C7  UNL     1      14.312  11.377  -6.869  0.00  0.00    +0.000 A 
ATOM      8  H3  UNL     1      14.493  10.249  -3.304  0.00  0.00    +0.000 HD
ENDROOT
BRANCH   1  13
ATOM      9  S1  UNL     1      16.816  13.577  -7.521  0.00  0.00    +0.000 S 
ATOM     10  C1  UNL     1      18.262  13.214  -8.349  0.00  0.00    +0.000 A 
ATOM     11  C2  UNL     1      18.527  11.871  -8.242  0.00  0.00    +0.000 A 
ATOM     12  N1  UNL     1      17.604  11.143  -7.520  0.00  0.00    +0.000 NA
ATOM     13  C3  UNL     1      16.621  11.912  -7.064  0.00  0.00    +0.000 A 
ENDBRANCH   1  13
TORSDOF 1
ENDMDL
MODEL 5
REMARK VINA RESULT:    -4.017      2.536      4.744
REMARK INTER + INTRA:          -4.383
REMARK INTER:                  -4.252
REMARK INTRA:                  -0.131
REMARK UNBOUND:                -0.131
REMARK  Name = /home/anacleto/Desktop/manuscript_Mpro/naturecomm/supplementary_file_S2/6-chemical-library/molecular_docking/3D_ligand_structure/1170.pdb
REMARK  1 active torsions:
REMARK  status: ('A' for Active; 'I' for Inactive)
REMARK    1  A    between atoms: C3_5  and  C4_6
REMARK                            x       y       z     vdW  Elec       q    Type
REMARK                         _______ _______ _______ _____ _____    ______ ____
ROOT
ATOM      1  C4  UNL     1      15.334  11.654  -3.642  0.00  0.00    +0.000 A 
ATOM      2  C5  UNL     1      15.222  12.955  -2.910  0.00  0.00    +0.000 A 
ATOM      3  O1  UNL     1      14.606  13.930  -3.329  0.00  0.00    +0.000 OA
ATOM      4  N2  UNL     1      15.861  13.026  -1.692  0.00  0.00    +0.000 N 
ATOM      5  N3  UNL     1      16.580  12.036  -1.096  0.00  0.00    +0.000 NA
ATOM      6  C6  UNL     1      16.657  10.927  -1.753  0.00  0.00    +0.000 A 
ATOM      7  C7  UNL     1      16.041  10.672  -3.059  0.00  0.00    +0.000 A 
ATOM      8  H3  UNL     1      15.793  13.905  -1.187  0.00  0.00    +0.000 HD
ENDROOT
BRANCH   1  13
ATOM      9  S1  UNL     1      15.496  11.779  -6.432  0.00  0.00    +0.000 S 
ATOM     10  C1  UNL     1      14.177  11.133  -7.300  0.00  0.00    +0.000 A 
ATOM     11  C2  UNL     1      13.241  10.650  -6.419  0.00  0.00    +0.000 A 
ATOM     12  N1  UNL     1      13.560  10.789  -5.084  0.00  0.00    +0.000 NA
ATOM     13  C3  UNL     1      14.740  11.378  -4.920  0.00  0.00    +0.000 A 
ENDBRANCH   1  13
TORSDOF 1
ENDMDL
MODEL 6
REMARK VINA RESULT:    -3.999      2.802      3.090
REMARK INTER + INTRA:          -4.365
REMARK INTER:                  -4.233
REMARK INTRA:                  -0.131
REMARK UNBOUND:                -0.131
REMARK  Name = /home/anacleto/Desktop/manuscript_Mpro/naturecomm/supplementary_file_S2/6-chemical-library/molecular_docking/3D_ligand_structure/1170.pdb
REMARK  1 active torsions:
REMARK  status: ('A' for Active; 'I' for Inactive)
REMARK    1  A    between atoms: C3_5  and  C4_6
REMARK                            x       y       z     vdW  Elec       q    Type
REMARK                         _______ _______ _______ _____ _____    ______ ____
ROOT
ATOM      1  C4  UNL     1      15.071  11.816  -3.880  0.00  0.00    +0.000 A 
ATOM      2  C5  UNL     1      14.484  13.050  -4.490  0.00  0.00    +0.000 A 
ATOM      3  O1  UNL     1      14.852  14.191  -4.225  0.00  0.00    +0.000 OA
ATOM      4  N2  UNL     1      13.470  12.857  -5.402  0.00  0.00    +0.000 N 
ATOM      5  N3  UNL     1      12.955  11.660  -5.798  0.00  0.00    +0.000 NA
ATOM      6  C6  UNL     1      13.483  10.616  -5.253  0.00  0.00    +0.000 A 
ATOM      7  C7  UNL     1      14.567  10.632  -4.266  0.00  0.00    +0.000 A 
ATOM      8  H3  UNL     1      13.063  13.687  -5.822  0.00  0.00    +0.000 HD
ENDROOT
BRANCH   1  13
ATOM      9  S1  UNL     1      17.815  11.875  -3.339  0.00  0.00    +0.000 S 
ATOM     10  C1  UNL     1      18.267  11.812  -1.696  0.00  0.00    +0.000 A 
ATOM     11  C2  UNL     1      17.142  11.743  -0.913  0.00  0.00    +0.000 A 
ATOM     12  N1  UNL     1      15.946  11.738  -1.599  0.00  0.00    +0.000 NA
ATOM     13  C3  UNL     1      16.133  11.803  -2.913  0.00  0.00    +0.000 A 
ENDBRANCH   1  13
TORSDOF 1
ENDMDL
MODEL 7
REMARK VINA RESULT:    -3.751      2.242      2.462
REMARK INTER + INTRA:          -4.102
REMARK INTER:                  -3.972
REMARK INTRA:                  -0.130
REMARK UNBOUND:                -0.131
REMARK  Name = /home/anacleto/Desktop/manuscript_Mpro/naturecomm/supplementary_file_S2/6-chemical-library/molecular_docking/3D_ligand_structure/1170.pdb
REMARK  1 active torsions:
REMARK  status: ('A' for Active; 'I' for Inactive)
REMARK    1  A    between atoms: C3_5  and  C4_6
REMARK                            x       y       z     vdW  Elec       q    Type
REMARK                         _______ _______ _______ _____ _____    ______ ____
ROOT
ATOM      1  C4  UNL     1      16.205  12.436  -3.051  0.00  0.00    +0.000 A 
ATOM      2  C5  UNL     1      15.748  11.016  -2.933  0.00  0.00    +0.000 A 
ATOM      3  O1  UNL     1      16.225  10.203  -2.147  0.00  0.00    +0.000 OA
ATOM      4  N2  UNL     1      14.726  10.632  -3.773  0.00  0.00    +0.000 N 
ATOM      5  N3  UNL     1      14.098  11.414  -4.693  0.00  0.00    +0.000 NA
ATOM      6  C6  UNL     1      14.516  12.633  -4.770  0.00  0.00    +0.000 A 
ATOM      7  C7  UNL     1      15.589  13.214  -3.957  0.00  0.00    +0.000 A 
ATOM      8  H3  UNL     1      14.409   9.670  -3.702  0.00  0.00    +0.000 HD
ENDROOT
BRANCH   1  13
ATOM      9  S1  UNL     1      17.058  13.492  -0.604  0.00  0.00    +0.000 S 
ATOM     10  C1  UNL     1      18.670  14.045  -0.536  0.00  0.00    +0.000 A 
ATOM     11  C2  UNL     1      19.271  13.856  -1.755  0.00  0.00    +0.000 A 
ATOM     12  N1  UNL     1      18.473  13.286  -2.725  0.00  0.00    +0.000 NA
ATOM     13  C3  UNL     1      17.252  13.030  -2.267  0.00  0.00    +0.000 A 
ENDBRANCH   1  13
TORSDOF 1
ENDMDL
MODEL 8
REMARK VINA RESULT:    -3.706      2.512      4.387
REMARK INTER + INTRA:          -4.054
REMARK INTER:                  -3.922
REMARK INTRA:                  -0.131
REMARK UNBOUND:                -0.131
REMARK  Name = /home/anacleto/Desktop/manuscript_Mpro/naturecomm/supplementary_file_S2/6-chemical-library/molecular_docking/3D_ligand_structure/1170.pdb
REMARK  1 active torsions:
REMARK  status: ('A' for Active; 'I' for Inactive)
REMARK    1  A    between atoms: C3_5  and  C4_6
REMARK                            x       y       z     vdW  Elec       q    Type
REMARK                         _______ _______ _______ _____ _____    ______ ____
ROOT
ATOM      1  C4  UNL     1      15.673  13.582  -2.735  0.00  0.00    +0.000 A 
ATOM      2  C5  UNL     1      14.541  13.905  -3.659  0.00  0.00    +0.000 A 
ATOM      3  O1  UNL     1      14.228  13.222  -4.629  0.00  0.00    +0.000 OA
ATOM      4  N2  UNL     1      13.826  15.047  -3.371  0.00  0.00    +0.000 N 
ATOM      5  N3  UNL     1      14.049  15.902  -2.337  0.00  0.00    +0.000 NA
ATOM      6  C6  UNL     1      15.033  15.595  -1.559  0.00  0.00    +0.000 A 
ATOM      7  C7  UNL     1      15.899  14.423  -1.711  0.00  0.00    +0.000 A 
ATOM      8  H3  UNL     1      13.056  15.276  -3.992  0.00  0.00    +0.000 HD
ENDROOT
BRANCH   1  13
ATOM      9  S1  UNL     1      16.121  10.859  -2.273  0.00  0.00    +0.000 S 
ATOM     10  C1  UNL     1      17.609  10.230  -2.822  0.00  0.00    +0.000 A 
ATOM     11  C2  UNL     1      18.338  11.230  -3.417  0.00  0.00    +0.000 A 
ATOM     12  N1  UNL     1      17.733  12.469  -3.437  0.00  0.00    +0.000 NA
ATOM     13  C3  UNL     1      16.536  12.441  -2.861  0.00  0.00    +0.000 A 
ENDBRANCH   1  13
TORSDOF 1
ENDMDL
MODEL 9
REMARK VINA RESULT:    -3.613      2.161      2.302
REMARK INTER + INTRA:          -3.955
REMARK INTER:                  -3.824
REMARK INTRA:                  -0.131
REMARK UNBOUND:                -0.131
REMARK  Name = /home/anacleto/Desktop/manuscript_Mpro/naturecomm/supplementary_file_S2/6-chemical-library/molecular_docking/3D_ligand_structure/1170.pdb
REMARK  1 active torsions:
REMARK  status: ('A' for Active; 'I' for Inactive)
REMARK    1  A    between atoms: C3_5  and  C4_6
REMARK                            x       y       z     vdW  Elec       q    Type
REMARK                         _______ _______ _______ _____ _____    ______ ____
ROOT
ATOM      1  C4  UNL     1      16.475  12.224  -3.861  0.00  0.00    +0.000 A 
ATOM      2  C5  UNL     1      16.580  10.815  -3.367  0.00  0.00    +0.000 A 
ATOM      3  O1  UNL     1      16.104  10.420  -2.306  0.00  0.00    +0.000 OA
ATOM      4  N2  UNL     1      17.257   9.932  -4.179  0.00  0.00    +0.000 N 
ATOM      5  N3  UNL     1      17.835  10.217  -5.378  0.00  0.00    +0.000 NA
ATOM      6  C6  UNL     1      17.728  11.441  -5.775  0.00  0.00    +0.000 A 
ATOM      7  C7  UNL     1      17.044  12.512  -5.043  0.00  0.00    +0.000 A 
ATOM      8  H3  UNL     1      17.334   8.973  -3.854  0.00  0.00    +0.000 HD
ENDROOT
BRANCH   1  13
ATOM      9  S1  UNL     1      16.545  14.192  -1.873  0.00  0.00    +0.000 S 
ATOM     10  C1  UNL     1      15.140  15.142  -1.696  0.00  0.00    +0.000 A 
ATOM     11  C2  UNL     1      14.196  14.741  -2.608  0.00  0.00    +0.000 A 
ATOM     12  N1  UNL     1      14.577  13.702  -3.431  0.00  0.00    +0.000 NA
ATOM     13  C3  UNL     1      15.811  13.291  -3.164  0.00  0.00    +0.000 A 
ENDBRANCH   1  13
TORSDOF 1
ENDMDL
