MODEL 1
REMARK VINA RESULT:    -5.554      0.000      0.000
REMARK INTER + INTRA:          -6.329
REMARK INTER:                  -6.160
REMARK INTRA:                  -0.168
REMARK UNBOUND:                -0.125
REMARK  Name = /home/anacleto/Desktop/manuscript_Mpro/naturecomm/supplementary_file_S2/6-chemical-library/molecular_docking/3D_ligand_structure/698.pdb
REMARK  2 active torsions:
REMARK  status: ('A' for Active; 'I' for Inactive)
REMARK    1  A    between atoms: N3_7  and  C4_10
REMARK    2  A    between atoms: C4_10  and  C5_11
REMARK                            x       y       z     vdW  Elec       q    Type
REMARK                         _______ _______ _______ _____ _____    ______ ____
ROOT
ATOM      1  N1  UNL     1      17.677   8.284  14.322  0.00  0.00    +0.000 N 
ATOM      2  C1  UNL     1      16.506   7.627  14.521  0.00  0.00    +0.000 A 
ATOM      3  O1  UNL     1      15.585   8.130  15.157  0.00  0.00    +0.000 OA
ATOM      4  N2  UNL     1      16.422   6.384  13.987  0.00  0.00    +0.000 N 
ATOM      5  C2  UNL     1      17.428   5.763  13.306  0.00  0.00    +0.000 A 
ATOM      6  O2  UNL     1      17.265   4.606  12.921  0.00  0.00    +0.000 OA
ATOM      7  N3  UNL     1      18.582   6.500  13.119  0.00  0.00    +0.000 N 
ATOM      8  C3  UNL     1      18.719   7.757  13.640  0.00  0.00    +0.000 A 
ATOM      9  N4  UNL     1      19.796   8.442  13.512  0.00  0.00    +0.000 NA
ATOM     10  H1  UNL     1      17.731   9.206  14.723  0.00  0.00    +0.000 HD
ATOM     11  H2  UNL     1      15.573   5.862  14.135  0.00  0.00    +0.000 HD
ATOM     12  H3  UNL     1      19.708   9.353  13.966  0.00  0.00    +0.000 HD
ENDROOT
BRANCH   7  13
ATOM     13  C4  UNL     1      19.662   5.897  12.345  0.00  0.00    +0.000 C 
BRANCH  13  14
ATOM     14  C5  UNL     1      19.476   6.094  10.855  0.00  0.00    +0.000 A 
ATOM     15  C6  UNL     1      19.749   7.333  10.258  0.00  0.00    +0.000 A 
ATOM     16  C7  UNL     1      19.595   7.507   8.882  0.00  0.00    +0.000 A 
ATOM     17  C8  UNL     1      19.170   6.444   8.087  0.00  0.00    +0.000 A 
ATOM     18  C9  UNL     1      18.902   5.206   8.667  0.00  0.00    +0.000 A 
ATOM     19  C10 UNL     1      19.057   5.030  10.043  0.00  0.00    +0.000 A 
ENDBRANCH  13  14
ENDBRANCH   7  13
TORSDOF 2
ENDMDL
MODEL 2
REMARK VINA RESULT:    -5.367     15.372     16.995
REMARK INTER + INTRA:          -6.120
REMARK INTER:                  -5.984
REMARK INTRA:                  -0.136
REMARK UNBOUND:                -0.125
REMARK  Name = /home/anacleto/Desktop/manuscript_Mpro/naturecomm/supplementary_file_S2/6-chemical-library/molecular_docking/3D_ligand_structure/698.pdb
REMARK  2 active torsions:
REMARK  status: ('A' for Active; 'I' for Inactive)
REMARK    1  A    between atoms: N3_7  and  C4_10
REMARK    2  A    between atoms: C4_10  and  C5_11
REMARK                            x       y       z     vdW  Elec       q    Type
REMARK                         _______ _______ _______ _____ _____    ______ ____
ROOT
ATOM      1  N1  UNL     1      13.959  12.445  -5.027  0.00  0.00    +0.000 N 
ATOM      2  C1  UNL     1      14.060  11.093  -4.946  0.00  0.00    +0.000 A 
ATOM      3  O1  UNL     1      13.585  10.358  -5.806  0.00  0.00    +0.000 OA
ATOM      4  N2  UNL     1      14.704  10.609  -3.855  0.00  0.00    +0.000 N 
ATOM      5  C2  UNL     1      15.215  11.377  -2.851  0.00  0.00    +0.000 A 
ATOM      6  O2  UNL     1      15.722  10.827  -1.875  0.00  0.00    +0.000 OA
ATOM      7  N3  UNL     1      15.099  12.745  -3.012  0.00  0.00    +0.000 N 
ATOM      8  C3  UNL     1      14.456  13.284  -4.091  0.00  0.00    +0.000 A 
ATOM      9  N4  UNL     1      14.302  14.550  -4.240  0.00  0.00    +0.000 NA
ATOM     10  H1  UNL     1      13.479  12.795  -5.839  0.00  0.00    +0.000 HD
ATOM     11  H2  UNL     1      14.777   9.608  -3.755  0.00  0.00    +0.000 HD
ATOM     12  H3  UNL     1      13.800  14.760  -5.104  0.00  0.00    +0.000 HD
ENDROOT
BRANCH   7  13
ATOM     13  C4  UNL     1      15.684  13.607  -1.991  0.00  0.00    +0.000 C 
BRANCH  13  14
ATOM     14  C5  UNL     1      17.198  13.568  -2.009  0.00  0.00    +0.000 A 
ATOM     15  C6  UNL     1      17.906  13.844  -3.188  0.00  0.00    +0.000 A 
ATOM     16  C7  UNL     1      19.301  13.825  -3.199  0.00  0.00    +0.000 A 
ATOM     17  C8  UNL     1      20.004  13.536  -2.031  0.00  0.00    +0.000 A 
ATOM     18  C9  UNL     1      19.313  13.268  -0.852  0.00  0.00    +0.000 A 
ATOM     19  C10 UNL     1      17.918  13.286  -0.839  0.00  0.00    +0.000 A 
ENDBRANCH  13  14
ENDBRANCH   7  13
TORSDOF 2
ENDMDL
MODEL 3
REMARK VINA RESULT:    -5.313     16.988     18.510
REMARK INTER + INTRA:          -6.059
REMARK INTER:                  -6.098
REMARK INTRA:                   0.039
REMARK UNBOUND:                -0.125
REMARK  Name = /home/anacleto/Desktop/manuscript_Mpro/naturecomm/supplementary_file_S2/6-chemical-library/molecular_docking/3D_ligand_structure/698.pdb
REMARK  2 active torsions:
REMARK  status: ('A' for Active; 'I' for Inactive)
REMARK    1  A    between atoms: N3_7  and  C4_10
REMARK    2  A    between atoms: C4_10  and  C5_11
REMARK                            x       y       z     vdW  Elec       q    Type
REMARK                         _______ _______ _______ _____ _____    ______ ____
ROOT
ATOM      1  N1  UNL     1      13.941  10.571  -5.210  0.00  0.00    +0.000 N 
ATOM      2  C1  UNL     1      13.630  11.081  -6.430  0.00  0.00    +0.000 A 
ATOM      3  O1  UNL     1      12.851  10.511  -7.187  0.00  0.00    +0.000 OA
ATOM      4  N2  UNL     1      14.240  12.245  -6.761  0.00  0.00    +0.000 N 
ATOM      5  C2  UNL     1      15.143  12.899  -5.975  0.00  0.00    +0.000 A 
ATOM      6  O2  UNL     1      15.685  13.916  -6.404  0.00  0.00    +0.000 OA
ATOM      7  N3  UNL     1      15.392  12.336  -4.737  0.00  0.00    +0.000 N 
ATOM      8  C3  UNL     1      14.806  11.162  -4.356  0.00  0.00    +0.000 A 
ATOM      9  N4  UNL     1      15.054  10.602  -3.228  0.00  0.00    +0.000 NA
ATOM     10  H1  UNL     1      13.484   9.705  -4.973  0.00  0.00    +0.000 HD
ATOM     11  H2  UNL     1      14.046  12.639  -7.668  0.00  0.00    +0.000 HD
ATOM     12  H3  UNL     1      14.523   9.736  -3.123  0.00  0.00    +0.000 HD
ENDROOT
BRANCH   7  13
ATOM     13  C4  UNL     1      16.307  13.034  -3.840  0.00  0.00    +0.000 C 
BRANCH  13  14
ATOM     14  C5  UNL     1      15.588  14.029  -2.951  0.00  0.00    +0.000 A 
ATOM     15  C6  UNL     1      14.268  14.411  -3.229  0.00  0.00    +0.000 A 
ATOM     16  C7  UNL     1      13.602  15.314  -2.400  0.00  0.00    +0.000 A 
ATOM     17  C8  UNL     1      14.245  15.841  -1.282  0.00  0.00    +0.000 A 
ATOM     18  C9  UNL     1      15.555  15.464  -0.991  0.00  0.00    +0.000 A 
ATOM     19  C10 UNL     1      16.223  14.561  -1.820  0.00  0.00    +0.000 A 
ENDBRANCH  13  14
ENDBRANCH   7  13
TORSDOF 2
ENDMDL
MODEL 4
REMARK VINA RESULT:    -5.136      1.271      2.016
REMARK INTER + INTRA:          -5.861
REMARK INTER:                  -5.818
REMARK INTRA:                  -0.044
REMARK UNBOUND:                -0.125
REMARK  Name = /home/anacleto/Desktop/manuscript_Mpro/naturecomm/supplementary_file_S2/6-chemical-library/molecular_docking/3D_ligand_structure/698.pdb
REMARK  2 active torsions:
REMARK  status: ('A' for Active; 'I' for Inactive)
REMARK    1  A    between atoms: N3_7  and  C4_10
REMARK    2  A    between atoms: C4_10  and  C5_11
REMARK                            x       y       z     vdW  Elec       q    Type
REMARK                         _______ _______ _______ _____ _____    ______ ____
ROOT
ATOM      1  N1  UNL     1      16.351   6.400  13.992  0.00  0.00    +0.000 N 
ATOM      2  C1  UNL     1      16.518   7.602  14.602  0.00  0.00    +0.000 A 
ATOM      3  O1  UNL     1      15.621   8.121  15.259  0.00  0.00    +0.000 OA
ATOM      4  N2  UNL     1      17.725   8.193  14.431  0.00  0.00    +0.000 N 
ATOM      5  C2  UNL     1      18.742   7.680  13.681  0.00  0.00    +0.000 A 
ATOM      6  O2  UNL     1      19.773   8.335  13.541  0.00  0.00    +0.000 OA
ATOM      7  N3  UNL     1      18.511   6.442  13.110  0.00  0.00    +0.000 N 
ATOM      8  C3  UNL     1      17.310   5.805  13.248  0.00  0.00    +0.000 A 
ATOM      9  N4  UNL     1      17.062   4.674  12.694  0.00  0.00    +0.000 NA
ATOM     10  H1  UNL     1      15.451   5.968  14.123  0.00  0.00    +0.000 HD
ATOM     11  H2  UNL     1      17.873   9.096  14.855  0.00  0.00    +0.000 HD
ATOM     12  H3  UNL     1      16.116   4.358  12.912  0.00  0.00    +0.000 HD
ENDROOT
BRANCH   7  13
ATOM     13  C4  UNL     1      19.593   5.829  12.346  0.00  0.00    +0.000 C 
BRANCH  13  14
ATOM     14  C5  UNL     1      19.439   6.054  10.856  0.00  0.00    +0.000 A 
ATOM     15  C6  UNL     1      19.694   7.312  10.293  0.00  0.00    +0.000 A 
ATOM     16  C7  UNL     1      19.570   7.513   8.918  0.00  0.00    +0.000 A 
ATOM     17  C8  UNL     1      19.195   6.458   8.090  0.00  0.00    +0.000 A 
ATOM     18  C9  UNL     1      18.946   5.200   8.635  0.00  0.00    +0.000 A 
ATOM     19  C10 UNL     1      19.070   4.998  10.011  0.00  0.00    +0.000 A 
ENDBRANCH  13  14
ENDBRANCH   7  13
TORSDOF 2
ENDMDL
MODEL 5
REMARK VINA RESULT:    -5.060     15.322     17.056
REMARK INTER + INTRA:          -5.777
REMARK INTER:                  -5.715
REMARK INTRA:                  -0.062
REMARK UNBOUND:                -0.125
REMARK  Name = /home/anacleto/Desktop/manuscript_Mpro/naturecomm/supplementary_file_S2/6-chemical-library/molecular_docking/3D_ligand_structure/698.pdb
REMARK  2 active torsions:
REMARK  status: ('A' for Active; 'I' for Inactive)
REMARK    1  A    between atoms: N3_7  and  C4_10
REMARK    2  A    between atoms: C4_10  and  C5_11
REMARK                            x       y       z     vdW  Elec       q    Type
REMARK                         _______ _______ _______ _____ _____    ______ ____
ROOT
ATOM      1  N1  UNL     1      14.510  10.583  -3.895  0.00  0.00    +0.000 N 
ATOM      2  C1  UNL     1      14.091  11.075  -5.090  0.00  0.00    +0.000 A 
ATOM      3  O1  UNL     1      13.662  10.341  -5.974  0.00  0.00    +0.000 OA
ATOM      4  N2  UNL     1      14.186  12.418  -5.247  0.00  0.00    +0.000 N 
ATOM      5  C2  UNL     1      14.690  13.275  -4.313  0.00  0.00    +0.000 A 
ATOM      6  O2  UNL     1      14.791  14.470  -4.587  0.00  0.00    +0.000 OA
ATOM      7  N3  UNL     1      15.074  12.708  -3.112  0.00  0.00    +0.000 N 
ATOM      8  C3  UNL     1      15.002  11.359  -2.904  0.00  0.00    +0.000 A 
ATOM      9  N4  UNL     1      15.390  10.808  -1.811  0.00  0.00    +0.000 NA
ATOM     10  H1  UNL     1      14.437   9.585  -3.788  0.00  0.00    +0.000 HD
ATOM     11  H2  UNL     1      13.902  12.812  -6.130  0.00  0.00    +0.000 HD
ATOM     12  H3  UNL     1      15.258   9.796  -1.842  0.00  0.00    +0.000 HD
ENDROOT
BRANCH   7  13
ATOM     13  C4  UNL     1      15.565  13.595  -2.062  0.00  0.00    +0.000 C 
BRANCH  13  14
ATOM     14  C5  UNL     1      17.071  13.522  -1.911  0.00  0.00    +0.000 A 
ATOM     15  C6  UNL     1      17.655  13.360  -0.646  0.00  0.00    +0.000 A 
ATOM     16  C7  UNL     1      19.041  13.276  -0.511  0.00  0.00    +0.000 A 
ATOM     17  C8  UNL     1      19.858  13.346  -1.637  0.00  0.00    +0.000 A 
ATOM     18  C9  UNL     1      19.290  13.500  -2.900  0.00  0.00    +0.000 A 
ATOM     19  C10 UNL     1      17.904  13.585  -3.037  0.00  0.00    +0.000 A 
ENDBRANCH  13  14
ENDBRANCH   7  13
TORSDOF 2
ENDMDL
MODEL 6
REMARK VINA RESULT:    -4.900      3.147      5.564
REMARK INTER + INTRA:          -5.598
REMARK INTER:                  -5.414
REMARK INTRA:                  -0.185
REMARK UNBOUND:                -0.125
REMARK  Name = /home/anacleto/Desktop/manuscript_Mpro/naturecomm/supplementary_file_S2/6-chemical-library/molecular_docking/3D_ligand_structure/698.pdb
REMARK  2 active torsions:
REMARK  status: ('A' for Active; 'I' for Inactive)
REMARK    1  A    between atoms: N3_7  and  C4_10
REMARK    2  A    between atoms: C4_10  and  C5_11
REMARK                            x       y       z     vdW  Elec       q    Type
REMARK                         _______ _______ _______ _____ _____    ______ ____
ROOT
ATOM      1  N1  UNL     1      21.878   5.720   8.948  0.00  0.00    +0.000 N 
ATOM      2  C1  UNL     1      21.494   4.419   9.023  0.00  0.00    +0.000 A 
ATOM      3  O1  UNL     1      22.202   3.513   8.595  0.00  0.00    +0.000 OA
ATOM      4  N2  UNL     1      20.284   4.188   9.588  0.00  0.00    +0.000 N 
ATOM      5  C2  UNL     1      19.442   5.159  10.044  0.00  0.00    +0.000 A 
ATOM      6  O2  UNL     1      18.336   4.838  10.478  0.00  0.00    +0.000 OA
ATOM      7  N3  UNL     1      19.907   6.457   9.958  0.00  0.00    +0.000 N 
ATOM      8  C3  UNL     1      21.119   6.745   9.394  0.00  0.00    +0.000 A 
ATOM      9  N4  UNL     1      21.553   7.947   9.269  0.00  0.00    +0.000 NA
ATOM     10  H1  UNL     1      22.778   5.882   8.526  0.00  0.00    +0.000 HD
ATOM     11  H2  UNL     1      19.962   3.234   9.640  0.00  0.00    +0.000 HD
ATOM     12  H3  UNL     1      22.474   7.961   8.827  0.00  0.00    +0.000 HD
ENDROOT
BRANCH   7  13
ATOM     13  C4  UNL     1      19.064   7.524  10.487  0.00  0.00    +0.000 C 
BRANCH  13  14
ATOM     14  C5  UNL     1      19.121   7.600  12.000  0.00  0.00    +0.000 A 
ATOM     15  C6  UNL     1      17.943   7.616  12.759  0.00  0.00    +0.000 A 
ATOM     16  C7  UNL     1      17.997   7.668  14.153  0.00  0.00    +0.000 A 
ATOM     17  C8  UNL     1      19.230   7.699  14.802  0.00  0.00    +0.000 A 
ATOM     18  C9  UNL     1      20.408   7.676  14.059  0.00  0.00    +0.000 A 
ATOM     19  C10 UNL     1      20.355   7.624  12.665  0.00  0.00    +0.000 A 
ENDBRANCH  13  14
ENDBRANCH   7  13
TORSDOF 2
ENDMDL
MODEL 7
REMARK VINA RESULT:    -4.884     16.260     17.725
REMARK INTER + INTRA:          -5.580
REMARK INTER:                  -5.540
REMARK INTRA:                  -0.040
REMARK UNBOUND:                -0.125
REMARK  Name = /home/anacleto/Desktop/manuscript_Mpro/naturecomm/supplementary_file_S2/6-chemical-library/molecular_docking/3D_ligand_structure/698.pdb
REMARK  2 active torsions:
REMARK  status: ('A' for Active; 'I' for Inactive)
REMARK    1  A    between atoms: N3_7  and  C4_10
REMARK    2  A    between atoms: C4_10  and  C5_11
REMARK                            x       y       z     vdW  Elec       q    Type
REMARK                         _______ _______ _______ _____ _____    ______ ____
ROOT
ATOM      1  N1  UNL     1      13.889  14.452  -3.863  0.00  0.00    +0.000 N 
ATOM      2  C1  UNL     1      14.485  14.945  -2.747  0.00  0.00    +0.000 A 
ATOM      3  O1  UNL     1      14.271  16.086  -2.353  0.00  0.00    +0.000 OA
ATOM      4  N2  UNL     1      15.335  14.105  -2.106  0.00  0.00    +0.000 N 
ATOM      5  C2  UNL     1      15.638  12.842  -2.522  0.00  0.00    +0.000 A 
ATOM      6  O2  UNL     1      16.475  12.190  -1.899  0.00  0.00    +0.000 OA
ATOM      7  N3  UNL     1      14.976  12.398  -3.651  0.00  0.00    +0.000 N 
ATOM      8  C3  UNL     1      14.112  13.206  -4.336  0.00  0.00    +0.000 A 
ATOM      9  N4  UNL     1      13.517  12.826  -5.409  0.00  0.00    +0.000 NA
ATOM     10  H1  UNL     1      13.261  15.083  -4.333  0.00  0.00    +0.000 HD
ATOM     11  H2  UNL     1      15.809  14.448  -1.286  0.00  0.00    +0.000 HD
ATOM     12  H3  UNL     1      12.914  13.564  -5.775  0.00  0.00    +0.000 HD
ENDROOT
BRANCH   7  13
ATOM     13  C4  UNL     1      15.227  11.031  -4.099  0.00  0.00    +0.000 C 
BRANCH  13  14
ATOM     14  C5  UNL     1      16.424  10.943  -5.023  0.00  0.00    +0.000 A 
ATOM     15  C6  UNL     1      17.641  10.417  -4.568  0.00  0.00    +0.000 A 
ATOM     16  C7  UNL     1      18.737  10.320  -5.426  0.00  0.00    +0.000 A 
ATOM     17  C8  UNL     1      18.627  10.743  -6.749  0.00  0.00    +0.000 A 
ATOM     18  C9  UNL     1      17.421  11.261  -7.216  0.00  0.00    +0.000 A 
ATOM     19  C10 UNL     1      16.324  11.359  -6.359  0.00  0.00    +0.000 A 
ENDBRANCH  13  14
ENDBRANCH   7  13
TORSDOF 2
ENDMDL
MODEL 8
REMARK VINA RESULT:    -4.850     15.595     17.211
REMARK INTER + INTRA:          -5.542
REMARK INTER:                  -5.424
REMARK INTRA:                  -0.118
REMARK UNBOUND:                -0.125
REMARK  Name = /home/anacleto/Desktop/manuscript_Mpro/naturecomm/supplementary_file_S2/6-chemical-library/molecular_docking/3D_ligand_structure/698.pdb
REMARK  2 active torsions:
REMARK  status: ('A' for Active; 'I' for Inactive)
REMARK    1  A    between atoms: N3_7  and  C4_10
REMARK    2  A    between atoms: C4_10  and  C5_11
REMARK                            x       y       z     vdW  Elec       q    Type
REMARK                         _______ _______ _______ _____ _____    ______ ____
ROOT
ATOM      1  N1  UNL     1      14.189  12.205  -5.194  0.00  0.00    +0.000 N 
ATOM      2  C1  UNL     1      14.003  10.981  -4.636  0.00  0.00    +0.000 A 
ATOM      3  O1  UNL     1      13.099  10.236  -5.002  0.00  0.00    +0.000 OA
ATOM      4  N2  UNL     1      14.866  10.641  -3.647  0.00  0.00    +0.000 N 
ATOM      5  C2  UNL     1      15.862  11.444  -3.176  0.00  0.00    +0.000 A 
ATOM      6  O2  UNL     1      16.545  11.058  -2.228  0.00  0.00    +0.000 OA
ATOM      7  N3  UNL     1      16.009  12.665  -3.807  0.00  0.00    +0.000 N 
ATOM      8  C3  UNL     1      15.163  13.058  -4.807  0.00  0.00    +0.000 A 
ATOM      9  N4  UNL     1      15.258  14.203  -5.379  0.00  0.00    +0.000 NA
ATOM     10  H1  UNL     1      13.543  12.450  -5.927  0.00  0.00    +0.000 HD
ATOM     11  H2  UNL     1      14.741   9.747  -3.198  0.00  0.00    +0.000 HD
ATOM     12  H3  UNL     1      14.542  14.314  -6.099  0.00  0.00    +0.000 HD
ENDROOT
BRANCH   7  13
ATOM     13  C4  UNL     1      17.099  13.533  -3.374  0.00  0.00    +0.000 C 
BRANCH  13  14
ATOM     14  C5  UNL     1      16.763  14.279  -2.099  0.00  0.00    +0.000 A 
ATOM     15  C6  UNL     1      17.656  14.285  -1.018  0.00  0.00    +0.000 A 
ATOM     16  C7  UNL     1      17.353  14.988   0.149  0.00  0.00    +0.000 A 
ATOM     17  C8  UNL     1      16.157  15.697   0.246  0.00  0.00    +0.000 A 
ATOM     18  C9  UNL     1      15.264  15.704  -0.823  0.00  0.00    +0.000 A 
ATOM     19  C10 UNL     1      15.566  15.002  -1.991  0.00  0.00    +0.000 A 
ENDBRANCH  13  14
ENDBRANCH   7  13
TORSDOF 2
ENDMDL
MODEL 9
REMARK VINA RESULT:    -4.798     15.114     16.807
REMARK INTER + INTRA:          -5.484
REMARK INTER:                  -5.359
REMARK INTRA:                  -0.125
REMARK UNBOUND:                -0.125
REMARK  Name = /home/anacleto/Desktop/manuscript_Mpro/naturecomm/supplementary_file_S2/6-chemical-library/molecular_docking/3D_ligand_structure/698.pdb
REMARK  2 active torsions:
REMARK  status: ('A' for Active; 'I' for Inactive)
REMARK    1  A    between atoms: N3_7  and  C4_10
REMARK    2  A    between atoms: C4_10  and  C5_11
REMARK                            x       y       z     vdW  Elec       q    Type
REMARK                         _______ _______ _______ _____ _____    ______ ____
ROOT
ATOM      1  N1  UNL     1      15.516  11.404  -5.583  0.00  0.00    +0.000 N 
ATOM      2  C1  UNL     1      14.484  10.923  -4.843  0.00  0.00    +0.000 A 
ATOM      3  O1  UNL     1      13.356  10.804  -5.311  0.00  0.00    +0.000 OA
ATOM      4  N2  UNL     1      14.774  10.594  -3.560  0.00  0.00    +0.000 N 
ATOM      5  C2  UNL     1      15.998  10.743  -2.979  0.00  0.00    +0.000 A 
ATOM      6  O2  UNL     1      16.132  10.473  -1.786  0.00  0.00    +0.000 OA
ATOM      7  N3  UNL     1      17.007  11.215  -3.797  0.00  0.00    +0.000 N 
ATOM      8  C3  UNL     1      16.768  11.564  -5.097  0.00  0.00    +0.000 A 
ATOM      9  N4  UNL     1      17.681  12.041  -5.862  0.00  0.00    +0.000 NA
ATOM     10  H1  UNL     1      15.292  11.647  -6.534  0.00  0.00    +0.000 HD
ATOM     11  H2  UNL     1      14.024  10.253  -2.980  0.00  0.00    +0.000 HD
ATOM     12  H3  UNL     1      17.313  12.240  -6.794  0.00  0.00    +0.000 HD
ENDROOT
BRANCH   7  13
ATOM     13  C4  UNL     1      18.348  11.334  -3.233  0.00  0.00    +0.000 C 
BRANCH  13  14
ATOM     14  C5  UNL     1      18.475  12.530  -2.311  0.00  0.00    +0.000 A 
ATOM     15  C6  UNL     1      17.991  13.786  -2.700  0.00  0.00    +0.000 A 
ATOM     16  C7  UNL     1      18.093  14.883  -1.843  0.00  0.00    +0.000 A 
ATOM     17  C8  UNL     1      18.676  14.734  -0.586  0.00  0.00    +0.000 A 
ATOM     18  C9  UNL     1      19.155  13.488  -0.185  0.00  0.00    +0.000 A 
ATOM     19  C10 UNL     1      19.053  12.391  -1.041  0.00  0.00    +0.000 A 
ENDBRANCH  13  14
ENDBRANCH   7  13
TORSDOF 2
ENDMDL
