MODEL 1
REMARK VINA RESULT:    -4.514      0.000      0.000
REMARK INTER + INTRA:          -5.768
REMARK INTER:                  -5.538
REMARK INTRA:                  -0.230
REMARK UNBOUND:                -0.462
REMARK  Name = /home/anacleto/Desktop/manuscript_Mpro/naturecomm/supplementary_file_S2/6-chemical-library/molecular_docking/3D_ligand_structure/876.pdb
REMARK  3 active torsions:
REMARK  status: ('A' for Active; 'I' for Inactive)
REMARK    1  A    between atoms: C6_6  and  C7_7
REMARK    2  A    between atoms: C7_7  and  S1_8
REMARK    3  A    between atoms: S1_8  and  C8_9
REMARK                            x       y       z     vdW  Elec       q    Type
REMARK                         _______ _______ _______ _____ _____    ______ ____
ROOT
ATOM      1  C7  UNL     1      18.295   4.360   8.699  0.00  0.00    +0.000 C 
ENDROOT
BRANCH   1   7
ATOM      2  C1  UNL     1      20.669   5.119   9.123  0.00  0.00    +0.000 A 
ATOM      3  C2  UNL     1      21.627   6.123   9.273  0.00  0.00    +0.000 A 
ATOM      4  C3  UNL     1      21.257   7.462   9.167  0.00  0.00    +0.000 A 
ATOM      5  C4  UNL     1      19.928   7.799   8.914  0.00  0.00    +0.000 A 
ATOM      6  C5  UNL     1      18.969   6.797   8.763  0.00  0.00    +0.000 A 
ATOM      7  C6  UNL     1      19.331   5.445   8.857  0.00  0.00    +0.000 A 
ENDBRANCH   1   7
BRANCH   1   8
ATOM      8  S1  UNL     1      17.727   3.742  10.315  0.00  0.00    +0.000 S 
BRANCH   8   9
ATOM      9  C8  UNL     1      16.605   2.404   9.762  0.00  0.00    +0.000 C 
ATOM     10  C9  UNL     1      16.595   2.363   8.231  0.00  0.00    +0.000 C 
ATOM     11  C10 UNL     1      15.595   1.324   7.744  0.00  0.00    +0.000 C 
ATOM     12  O1  UNL     1      14.294   1.591   8.264  0.00  0.00    +0.000 OA
ATOM     13  C11 UNL     1      14.257   1.542   9.688  0.00  0.00    +0.000 C 
ATOM     14  C12 UNL     1      15.183   2.591  10.293  0.00  0.00    +0.000 C 
ENDBRANCH   8   9
ENDBRANCH   1   8
TORSDOF 3
ENDMDL
MODEL 2
REMARK VINA RESULT:    -4.423     14.146     15.781
REMARK INTER + INTRA:          -5.660
REMARK INTER:                  -5.336
REMARK INTRA:                  -0.324
REMARK UNBOUND:                -0.462
REMARK  Name = /home/anacleto/Desktop/manuscript_Mpro/naturecomm/supplementary_file_S2/6-chemical-library/molecular_docking/3D_ligand_structure/876.pdb
REMARK  3 active torsions:
REMARK  status: ('A' for Active; 'I' for Inactive)
REMARK    1  A    between atoms: C6_6  and  C7_7
REMARK    2  A    between atoms: C7_7  and  S1_8
REMARK    3  A    between atoms: S1_8  and  C8_9
REMARK                            x       y       z     vdW  Elec       q    Type
REMARK                         _______ _______ _______ _____ _____    ______ ____
ROOT
ATOM      1  C7  UNL     1      16.877  11.502  -3.979  0.00  0.00    +0.000 C 
ENDROOT
BRANCH   1   7
ATOM      2  C1  UNL     1      14.458  10.883  -4.373  0.00  0.00    +0.000 A 
ATOM      3  C2  UNL     1      13.360  10.702  -5.216  0.00  0.00    +0.000 A 
ATOM      4  C3  UNL     1      13.482  10.942  -6.583  0.00  0.00    +0.000 A 
ATOM      5  C4  UNL     1      14.704  11.359  -7.109  0.00  0.00    +0.000 A 
ATOM      6  C5  UNL     1      15.803  11.540  -6.268  0.00  0.00    +0.000 A 
ATOM      7  C6  UNL     1      15.689  11.312  -4.889  0.00  0.00    +0.000 A 
ENDBRANCH   1   7
BRANCH   1   8
ATOM      8  S1  UNL     1      16.727  10.495  -2.470  0.00  0.00    +0.000 S 
BRANCH   8   9
ATOM      9  C8  UNL     1      17.260  11.723  -1.220  0.00  0.00    +0.000 C 
ATOM     10  C9  UNL     1      16.522  13.042  -1.470  0.00  0.00    +0.000 C 
ATOM     11  C10 UNL     1      17.019  14.109  -0.504  0.00  0.00    +0.000 C 
ATOM     12  O1  UNL     1      18.431  14.275  -0.619  0.00  0.00    +0.000 OA
ATOM     13  C11 UNL     1      19.146  13.084  -0.298  0.00  0.00    +0.000 C 
ATOM     14  C12 UNL     1      18.772  11.953  -1.248  0.00  0.00    +0.000 C 
ENDBRANCH   8   9
ENDBRANCH   1   8
TORSDOF 3
ENDMDL
MODEL 3
REMARK VINA RESULT:    -4.322     14.816     16.433
REMARK INTER + INTRA:          -5.542
REMARK INTER:                  -5.173
REMARK INTRA:                  -0.369
REMARK UNBOUND:                -0.462
REMARK  Name = /home/anacleto/Desktop/manuscript_Mpro/naturecomm/supplementary_file_S2/6-chemical-library/molecular_docking/3D_ligand_structure/876.pdb
REMARK  3 active torsions:
REMARK  status: ('A' for Active; 'I' for Inactive)
REMARK    1  A    between atoms: C6_6  and  C7_7
REMARK    2  A    between atoms: C7_7  and  S1_8
REMARK    3  A    between atoms: S1_8  and  C8_9
REMARK                            x       y       z     vdW  Elec       q    Type
REMARK                         _______ _______ _______ _____ _____    ______ ____
ROOT
ATOM      1  C7  UNL     1      16.924  11.961  -4.363  0.00  0.00    +0.000 C 
ENDROOT
BRANCH   1   7
ATOM      2  C1  UNL     1      14.587  11.001  -4.440  0.00  0.00    +0.000 A 
ATOM      3  C2  UNL     1      13.434  10.635  -5.137  0.00  0.00    +0.000 A 
ATOM      4  C3  UNL     1      13.361  10.827  -6.515  0.00  0.00    +0.000 A 
ATOM      5  C4  UNL     1      14.442  11.382  -7.199  0.00  0.00    +0.000 A 
ATOM      6  C5  UNL     1      15.595  11.749  -6.504  0.00  0.00    +0.000 A 
ATOM      7  C6  UNL     1      15.677  11.570  -5.115  0.00  0.00    +0.000 A 
ENDBRANCH   1   7
BRANCH   1   8
ATOM      8  S1  UNL     1      16.689  11.819  -2.564  0.00  0.00    +0.000 S 
BRANCH   8   9
ATOM      9  C8  UNL     1      16.532  13.591  -2.127  0.00  0.00    +0.000 C 
ATOM     10  C9  UNL     1      16.954  13.784  -0.668  0.00  0.00    +0.000 C 
ATOM     11  C10 UNL     1      16.740  15.233  -0.250  0.00  0.00    +0.000 C 
ATOM     12  O1  UNL     1      15.383  15.622  -0.453  0.00  0.00    +0.000 OA
ATOM     13  C11 UNL     1      14.993  15.541  -1.822  0.00  0.00    +0.000 C 
ATOM     14  C12 UNL     1      15.108  14.110  -2.336  0.00  0.00    +0.000 C 
ENDBRANCH   8   9
ENDBRANCH   1   8
TORSDOF 3
ENDMDL
MODEL 4
REMARK VINA RESULT:    -4.241     16.304     17.492
REMARK INTER + INTRA:          -5.447
REMARK INTER:                  -5.086
REMARK INTRA:                  -0.361
REMARK UNBOUND:                -0.462
REMARK  Name = /home/anacleto/Desktop/manuscript_Mpro/naturecomm/supplementary_file_S2/6-chemical-library/molecular_docking/3D_ligand_structure/876.pdb
REMARK  3 active torsions:
REMARK  status: ('A' for Active; 'I' for Inactive)
REMARK    1  A    between atoms: C6_6  and  C7_7
REMARK    2  A    between atoms: C7_7  and  S1_8
REMARK    3  A    between atoms: S1_8  and  C8_9
REMARK                            x       y       z     vdW  Elec       q    Type
REMARK                         _______ _______ _______ _____ _____    ______ ____
ROOT
ATOM      1  C7  UNL     1      17.369  12.008  -6.724  0.00  0.00    +0.000 C 
ENDROOT
BRANCH   1   7
ATOM      2  C1  UNL     1      15.756  11.253  -4.930  0.00  0.00    +0.000 A 
ATOM      3  C2  UNL     1      14.480  10.874  -4.508  0.00  0.00    +0.000 A 
ATOM      4  C3  UNL     1      13.428  10.834  -5.420  0.00  0.00    +0.000 A 
ATOM      5  C4  UNL     1      13.650  11.169  -6.755  0.00  0.00    +0.000 A 
ATOM      6  C5  UNL     1      14.924  11.548  -7.178  0.00  0.00    +0.000 A 
ATOM      7  C6  UNL     1      15.990  11.603  -6.268  0.00  0.00    +0.000 A 
ENDBRANCH   1   7
BRANCH   1   8
ATOM      8  S1  UNL     1      18.646  11.463  -5.547  0.00  0.00    +0.000 S 
BRANCH   8   9
ATOM      9  C8  UNL     1      19.042   9.819  -6.253  0.00  0.00    +0.000 C 
ATOM     10  C9  UNL     1      20.488   9.460  -5.899  0.00  0.00    +0.000 C 
ATOM     11  C10 UNL     1      20.874   8.142  -6.556  0.00  0.00    +0.000 C 
ATOM     12  O1  UNL     1      20.688   8.209  -7.969  0.00  0.00    +0.000 OA
ATOM     13  C11 UNL     1      19.329   8.449  -8.327  0.00  0.00    +0.000 C 
ATOM     14  C12 UNL     1      18.848   9.784  -7.769  0.00  0.00    +0.000 C 
ENDBRANCH   8   9
ENDBRANCH   1   8
TORSDOF 3
ENDMDL
MODEL 5
REMARK VINA RESULT:    -4.218     14.864     16.427
REMARK INTER + INTRA:          -5.420
REMARK INTER:                  -5.076
REMARK INTRA:                  -0.343
REMARK UNBOUND:                -0.462
REMARK  Name = /home/anacleto/Desktop/manuscript_Mpro/naturecomm/supplementary_file_S2/6-chemical-library/molecular_docking/3D_ligand_structure/876.pdb
REMARK  3 active torsions:
REMARK  status: ('A' for Active; 'I' for Inactive)
REMARK    1  A    between atoms: C6_6  and  C7_7
REMARK    2  A    between atoms: C7_7  and  S1_8
REMARK    3  A    between atoms: S1_8  and  C8_9
REMARK                            x       y       z     vdW  Elec       q    Type
REMARK                         _______ _______ _______ _____ _____    ______ ____
ROOT
ATOM      1  C7  UNL     1      15.570  10.961  -3.168  0.00  0.00    +0.000 C 
ENDROOT
BRANCH   1   7
ATOM      2  C1  UNL     1      15.946  11.558  -5.596  0.00  0.00    +0.000 A 
ATOM      3  C2  UNL     1      15.506  11.655  -6.917  0.00  0.00    +0.000 A 
ATOM      4  C3  UNL     1      14.211  11.263  -7.252  0.00  0.00    +0.000 A 
ATOM      5  C4  UNL     1      13.354  10.777  -6.266  0.00  0.00    +0.000 A 
ATOM      6  C5  UNL     1      13.792  10.679  -4.944  0.00  0.00    +0.000 A 
ATOM      7  C6  UNL     1      15.097  11.061  -4.597  0.00  0.00    +0.000 A 
ENDBRANCH   1   7
BRANCH   1   8
ATOM      8  S1  UNL     1      16.988  12.061  -2.859  0.00  0.00    +0.000 S 
BRANCH   8   9
ATOM      9  C8  UNL     1      16.178  13.330  -1.816  0.00  0.00    +0.000 C 
ATOM     10  C9  UNL     1      15.549  14.392  -2.722  0.00  0.00    +0.000 C 
ATOM     11  C10 UNL     1      14.953  15.511  -1.878  0.00  0.00    +0.000 C 
ATOM     12  O1  UNL     1      15.942  16.080  -1.022  0.00  0.00    +0.000 OA
ATOM     13  C11 UNL     1      16.476  15.130  -0.103  0.00  0.00    +0.000 C 
ATOM     14  C12 UNL     1      17.159  13.984  -0.841  0.00  0.00    +0.000 C 
ENDBRANCH   8   9
ENDBRANCH   1   8
TORSDOF 3
ENDMDL
MODEL 6
REMARK VINA RESULT:    -4.195      1.331      2.063
REMARK INTER + INTRA:          -5.393
REMARK INTER:                  -5.134
REMARK INTRA:                  -0.259
REMARK UNBOUND:                -0.462
REMARK  Name = /home/anacleto/Desktop/manuscript_Mpro/naturecomm/supplementary_file_S2/6-chemical-library/molecular_docking/3D_ligand_structure/876.pdb
REMARK  3 active torsions:
REMARK  status: ('A' for Active; 'I' for Inactive)
REMARK    1  A    between atoms: C6_6  and  C7_7
REMARK    2  A    between atoms: C7_7  and  S1_8
REMARK    3  A    between atoms: S1_8  and  C8_9
REMARK                            x       y       z     vdW  Elec       q    Type
REMARK                         _______ _______ _______ _____ _____    ______ ____
ROOT
ATOM      1  C7  UNL     1      17.925   3.904  10.515  0.00  0.00    +0.000 C 
ENDROOT
BRANCH   1   7
ATOM      2  C1  UNL     1      19.023   6.150  10.885  0.00  0.00    +0.000 A 
ATOM      3  C2  UNL     1      19.629   7.313  10.405  0.00  0.00    +0.000 A 
ATOM      4  C3  UNL     1      19.794   7.499   9.034  0.00  0.00    +0.000 A 
ATOM      5  C4  UNL     1      19.351   6.524   8.141  0.00  0.00    +0.000 A 
ATOM      6  C5  UNL     1      18.746   5.361   8.619  0.00  0.00    +0.000 A 
ATOM      7  C6  UNL     1      18.583   5.158   9.997  0.00  0.00    +0.000 A 
ENDBRANCH   1   7
BRANCH   1   8
ATOM      8  S1  UNL     1      17.645   2.699   9.179  0.00  0.00    +0.000 S 
BRANCH   8   9
ATOM      9  C8  UNL     1      15.813   2.660   9.172  0.00  0.00    +0.000 C 
ATOM     10  C9  UNL     1      15.313   2.479  10.608  0.00  0.00    +0.000 C 
ATOM     11  C10 UNL     1      13.797   2.345  10.620  0.00  0.00    +0.000 C 
ATOM     12  O1  UNL     1      13.379   1.266   9.786  0.00  0.00    +0.000 OA
ATOM     13  C11 UNL     1      13.751   1.457   8.423  0.00  0.00    +0.000 C 
ATOM     14  C12 UNL     1      15.266   1.544   8.280  0.00  0.00    +0.000 C 
ENDBRANCH   8   9
ENDBRANCH   1   8
TORSDOF 3
ENDMDL
MODEL 7
REMARK VINA RESULT:    -4.163      2.563      6.572
REMARK INTER + INTRA:          -5.355
REMARK INTER:                  -5.139
REMARK INTRA:                  -0.216
REMARK UNBOUND:                -0.462
REMARK  Name = /home/anacleto/Desktop/manuscript_Mpro/naturecomm/supplementary_file_S2/6-chemical-library/molecular_docking/3D_ligand_structure/876.pdb
REMARK  3 active torsions:
REMARK  status: ('A' for Active; 'I' for Inactive)
REMARK    1  A    between atoms: C6_6  and  C7_7
REMARK    2  A    between atoms: C7_7  and  S1_8
REMARK    3  A    between atoms: S1_8  and  C8_9
REMARK                            x       y       z     vdW  Elec       q    Type
REMARK                         _______ _______ _______ _____ _____    ______ ____
ROOT
ATOM      1  C7  UNL     1      17.321   3.837   8.669  0.00  0.00    +0.000 C 
ENDROOT
BRANCH   1   7
ATOM      2  C1  UNL     1      15.335   2.675   9.716  0.00  0.00    +0.000 A 
ATOM      3  C2  UNL     1      14.359   1.676   9.717  0.00  0.00    +0.000 A 
ATOM      4  C3  UNL     1      14.307   0.751   8.677  0.00  0.00    +0.000 A 
ATOM      5  C4  UNL     1      15.231   0.820   7.636  0.00  0.00    +0.000 A 
ATOM      6  C5  UNL     1      16.207   1.818   7.632  0.00  0.00    +0.000 A 
ATOM      7  C6  UNL     1      16.264   2.761   8.669  0.00  0.00    +0.000 A 
ENDBRANCH   1   7
BRANCH   1   8
ATOM      8  S1  UNL     1      18.364   3.744  10.159  0.00  0.00    +0.000 S 
BRANCH   8   9
ATOM      9  C8  UNL     1      19.025   5.453  10.185  0.00  0.00    +0.000 C 
ATOM     10  C9  UNL     1      18.968   6.031   8.769  0.00  0.00    +0.000 C 
ATOM     11  C10 UNL     1      19.601   7.415   8.745  0.00  0.00    +0.000 C 
ATOM     12  O1  UNL     1      20.942   7.366   9.231  0.00  0.00    +0.000 OA
ATOM     13  C11 UNL     1      21.013   6.919  10.583  0.00  0.00    +0.000 C 
ATOM     14  C12 UNL     1      20.458   5.505  10.718  0.00  0.00    +0.000 C 
ENDBRANCH   8   9
ENDBRANCH   1   8
TORSDOF 3
ENDMDL
MODEL 8
REMARK VINA RESULT:    -4.105     16.211     17.104
REMARK INTER + INTRA:          -5.286
REMARK INTER:                  -4.832
REMARK INTRA:                  -0.454
REMARK UNBOUND:                -0.462
REMARK  Name = /home/anacleto/Desktop/manuscript_Mpro/naturecomm/supplementary_file_S2/6-chemical-library/molecular_docking/3D_ligand_structure/876.pdb
REMARK  3 active torsions:
REMARK  status: ('A' for Active; 'I' for Inactive)
REMARK    1  A    between atoms: C6_6  and  C7_7
REMARK    2  A    between atoms: C7_7  and  S1_8
REMARK    3  A    between atoms: S1_8  and  C8_9
REMARK                            x       y       z     vdW  Elec       q    Type
REMARK                         _______ _______ _______ _____ _____    ______ ____
ROOT
ATOM      1  C7  UNL     1      17.651  11.312  -7.690  0.00  0.00    +0.000 C 
ENDROOT
BRANCH   1   7
ATOM      2  C1  UNL     1      19.258  10.424  -5.953  0.00  0.00    +0.000 A 
ATOM      3  C2  UNL     1      20.204   9.493  -5.520  0.00  0.00    +0.000 A 
ATOM      4  C3  UNL     1      20.578   8.440  -6.352  0.00  0.00    +0.000 A 
ATOM      5  C4  UNL     1      20.009   8.317  -7.619  0.00  0.00    +0.000 A 
ATOM      6  C5  UNL     1      19.062   9.246  -8.053  0.00  0.00    +0.000 A 
ATOM      7  C6  UNL     1      18.670  10.305  -7.221  0.00  0.00    +0.000 A 
ENDBRANCH   1   7
BRANCH   1   8
ATOM      8  S1  UNL     1      17.383  12.616  -6.448  0.00  0.00    +0.000 S 
BRANCH   8   9
ATOM      9  C8  UNL     1      15.659  12.234  -5.959  0.00  0.00    +0.000 C 
ATOM     10  C9  UNL     1      15.681  11.297  -4.748  0.00  0.00    +0.000 C 
ATOM     11  C10 UNL     1      14.261  10.886  -4.381  0.00  0.00    +0.000 C 
ATOM     12  O1  UNL     1      13.608  10.279  -5.495  0.00  0.00    +0.000 OA
ATOM     13  C11 UNL     1      13.491  11.166  -6.606  0.00  0.00    +0.000 C 
ATOM     14  C12 UNL     1      14.866  11.599  -7.102  0.00  0.00    +0.000 C 
ENDBRANCH   8   9
ENDBRANCH   1   8
TORSDOF 3
ENDMDL
MODEL 9
REMARK VINA RESULT:    -4.088     15.563     16.310
REMARK INTER + INTRA:          -5.267
REMARK INTER:                  -4.805
REMARK INTRA:                  -0.462
REMARK UNBOUND:                -0.462
REMARK  Name = /home/anacleto/Desktop/manuscript_Mpro/naturecomm/supplementary_file_S2/6-chemical-library/molecular_docking/3D_ligand_structure/876.pdb
REMARK  3 active torsions:
REMARK  status: ('A' for Active; 'I' for Inactive)
REMARK    1  A    between atoms: C6_6  and  C7_7
REMARK    2  A    between atoms: C7_7  and  S1_8
REMARK    3  A    between atoms: S1_8  and  C8_9
REMARK                            x       y       z     vdW  Elec       q    Type
REMARK                         _______ _______ _______ _____ _____    ______ ____
ROOT
ATOM      1  C7  UNL     1      16.512  13.627  -3.626  0.00  0.00    +0.000 C 
ENDROOT
BRANCH   1   7
ATOM      2  C1  UNL     1      16.070  15.065  -1.594  0.00  0.00    +0.000 A 
ATOM      3  C2  UNL     1      15.216  15.819  -0.788  0.00  0.00    +0.000 A 
ATOM      4  C3  UNL     1      13.872  15.955  -1.131  0.00  0.00    +0.000 A 
ATOM      5  C4  UNL     1      13.380  15.335  -2.278  0.00  0.00    +0.000 A 
ATOM      6  C5  UNL     1      14.233  14.581  -3.086  0.00  0.00    +0.000 A 
ATOM      7  C6  UNL     1      15.590  14.445  -2.757  0.00  0.00    +0.000 A 
ENDBRANCH   1   7
BRANCH   1   8
ATOM      8  S1  UNL     1      16.439  11.860  -3.194  0.00  0.00    +0.000 S 
BRANCH   8   9
ATOM      9  C8  UNL     1      15.648  11.199  -4.708  0.00  0.00    +0.000 C 
ATOM     10  C9  UNL     1      15.866  12.189  -5.856  0.00  0.00    +0.000 C 
ATOM     11  C10 UNL     1      15.135  11.710  -7.103  0.00  0.00    +0.000 C 
ATOM     12  O1  UNL     1      13.747  11.525  -6.835  0.00  0.00    +0.000 OA
ATOM     13  C11 UNL     1      13.514  10.537  -5.834  0.00  0.00    +0.000 C 
ATOM     14  C12 UNL     1      14.154  10.943  -4.510  0.00  0.00    +0.000 C 
ENDBRANCH   8   9
ENDBRANCH   1   8
TORSDOF 3
ENDMDL
