MODEL 1
REMARK VINA RESULT:    -3.149      0.000      0.000
REMARK INTER + INTRA:          -3.149
REMARK INTER:                  -3.149
REMARK INTRA:                   0.000
REMARK UNBOUND:                 0.000
REMARK  Name = /home/anacleto/Desktop/manuscript_Mpro/naturecomm/supplementary_file_S2/6-chemical-library/molecular_docking/3D_ligand_structure/79.pdb
REMARK  0 active torsions:
REMARK  status: ('A' for Active; 'I' for Inactive)
REMARK                            x       y       z     vdW  Elec       q    Type
REMARK                         _______ _______ _______ _____ _____    ______ ____
ROOT
ATOM      1  O1  UNL     1     -39.972  10.510 -16.260  0.00  0.00    +0.000 OA
ATOM      2  C1  UNL     1     -39.179   9.712 -15.802  0.00  0.00    +0.000 A 
ATOM      3  N1  UNL     1     -37.840   9.520 -16.170  0.00  0.00    +0.000 N 
ATOM      4  C2  UNL     1     -37.298   8.518 -15.407  0.00  0.00    +0.000 A 
ATOM      5  C3  UNL     1     -38.238   8.064 -14.568  0.00  0.00    +0.000 A 
ATOM      6  N2  UNL     1     -39.393   8.771 -14.785  0.00  0.00    +0.000 N 
ATOM      7  H1  UNL     1     -37.382  10.057 -16.890  0.00  0.00    +0.000 HD
ATOM      8  H4  UNL     1     -40.276   8.661 -14.310  0.00  0.00    +0.000 HD
ENDROOT
TORSDOF 0
ENDMDL
MODEL 2
REMARK VINA RESULT:    -3.016      1.620      1.730
REMARK INTER + INTRA:          -3.016
REMARK INTER:                  -3.016
REMARK INTRA:                   0.000
REMARK UNBOUND:                 0.000
REMARK  Name = /home/anacleto/Desktop/manuscript_Mpro/naturecomm/supplementary_file_S2/6-chemical-library/molecular_docking/3D_ligand_structure/79.pdb
REMARK  0 active torsions:
REMARK  status: ('A' for Active; 'I' for Inactive)
REMARK                            x       y       z     vdW  Elec       q    Type
REMARK                         _______ _______ _______ _____ _____    ______ ____
ROOT
ATOM      1  O1  UNL     1     -38.479   9.505 -16.049  0.00  0.00    +0.000 OA
ATOM      2  C1  UNL     1     -37.855   8.930 -15.179  0.00  0.00    +0.000 A 
ATOM      3  N1  UNL     1     -36.529   8.479 -15.225  0.00  0.00    +0.000 N 
ATOM      4  C2  UNL     1     -36.210   7.881 -14.033  0.00  0.00    +0.000 A 
ATOM      5  C3  UNL     1     -37.280   7.934 -13.230  0.00  0.00    +0.000 A 
ATOM      6  N2  UNL     1     -38.297   8.566 -13.900  0.00  0.00    +0.000 N 
ATOM      7  H1  UNL     1     -35.933   8.595 -16.030  0.00  0.00    +0.000 HD
ATOM      8  H4  UNL     1     -39.227   8.757 -13.560  0.00  0.00    +0.000 HD
ENDROOT
TORSDOF 0
ENDMDL
MODEL 3
REMARK VINA RESULT:    -2.967     26.395     26.464
REMARK INTER + INTRA:          -2.967
REMARK INTER:                  -2.967
REMARK INTRA:                   0.000
REMARK UNBOUND:                 0.000
REMARK  Name = /home/anacleto/Desktop/manuscript_Mpro/naturecomm/supplementary_file_S2/6-chemical-library/molecular_docking/3D_ligand_structure/79.pdb
REMARK  0 active torsions:
REMARK  status: ('A' for Active; 'I' for Inactive)
REMARK                            x       y       z     vdW  Elec       q    Type
REMARK                         _______ _______ _______ _____ _____    ______ ____
ROOT
ATOM      1  O1  UNL     1     -19.825  -4.051 -28.362  0.00  0.00    +0.000 OA
ATOM      2  C1  UNL     1     -19.169  -4.074 -27.339  0.00  0.00    +0.000 A 
ATOM      3  N1  UNL     1     -19.233  -5.007 -26.296  0.00  0.00    +0.000 N 
ATOM      4  C2  UNL     1     -18.323  -4.670 -25.327  0.00  0.00    +0.000 A 
ATOM      5  C3  UNL     1     -17.684  -3.558 -25.712  0.00  0.00    +0.000 A 
ATOM      6  N2  UNL     1     -18.177  -3.171 -26.932  0.00  0.00    +0.000 N 
ATOM      7  H1  UNL     1     -19.863  -5.794 -26.295  0.00  0.00    +0.000 HD
ATOM      8  H4  UNL     1     -17.897  -2.372 -27.480  0.00  0.00    +0.000 HD
ENDROOT
TORSDOF 0
ENDMDL
MODEL 4
REMARK VINA RESULT:    -2.876     26.411     26.568
REMARK INTER + INTRA:          -2.876
REMARK INTER:                  -2.876
REMARK INTRA:                   0.000
REMARK UNBOUND:                 0.000
REMARK  Name = /home/anacleto/Desktop/manuscript_Mpro/naturecomm/supplementary_file_S2/6-chemical-library/molecular_docking/3D_ligand_structure/79.pdb
REMARK  0 active torsions:
REMARK  status: ('A' for Active; 'I' for Inactive)
REMARK                            x       y       z     vdW  Elec       q    Type
REMARK                         _______ _______ _______ _____ _____    ______ ____
ROOT
ATOM      1  O1  UNL     1     -17.490  -3.942 -25.432  0.00  0.00    +0.000 OA
ATOM      2  C1  UNL     1     -18.336  -4.170 -26.273  0.00  0.00    +0.000 A 
ATOM      3  N1  UNL     1     -18.775  -3.330 -27.305  0.00  0.00    +0.000 N 
ATOM      4  C2  UNL     1     -19.746  -3.969 -28.032  0.00  0.00    +0.000 A 
ATOM      5  C3  UNL     1     -19.943  -5.184 -27.503  0.00  0.00    +0.000 A 
ATOM      6  N2  UNL     1     -19.100  -5.335 -26.432  0.00  0.00    +0.000 N 
ATOM      7  H1  UNL     1     -18.408  -2.403 -27.457  0.00  0.00    +0.000 HD
ATOM      8  H4  UNL     1     -19.014  -6.140 -25.829  0.00  0.00    +0.000 HD
ENDROOT
TORSDOF 0
ENDMDL
MODEL 5
REMARK VINA RESULT:    -2.711     20.935     21.167
REMARK INTER + INTRA:          -2.711
REMARK INTER:                  -2.711
REMARK INTRA:                   0.000
REMARK UNBOUND:                 0.000
REMARK  Name = /home/anacleto/Desktop/manuscript_Mpro/naturecomm/supplementary_file_S2/6-chemical-library/molecular_docking/3D_ligand_structure/79.pdb
REMARK  0 active torsions:
REMARK  status: ('A' for Active; 'I' for Inactive)
REMARK                            x       y       z     vdW  Elec       q    Type
REMARK                         _______ _______ _______ _____ _____    ______ ____
ROOT
ATOM      1  O1  UNL     1     -27.642  -2.952 -28.891  0.00  0.00    +0.000 OA
ATOM      2  C1  UNL     1     -27.614  -3.763 -27.988  0.00  0.00    +0.000 A 
ATOM      3  N1  UNL     1     -28.678  -4.516 -27.473  0.00  0.00    +0.000 N 
ATOM      4  C2  UNL     1     -28.221  -5.314 -26.455  0.00  0.00    +0.000 A 
ATOM      5  C3  UNL     1     -26.908  -5.098 -26.302  0.00  0.00    +0.000 A 
ATOM      6  N2  UNL     1     -26.510  -4.160 -27.220  0.00  0.00    +0.000 N 
ATOM      7  H1  UNL     1     -29.621  -4.453 -27.823  0.00  0.00    +0.000 HD
ATOM      8  H4  UNL     1     -25.582  -3.789 -27.353  0.00  0.00    +0.000 HD
ENDROOT
TORSDOF 0
ENDMDL
MODEL 6
REMARK VINA RESULT:    -2.708     20.943     21.248
REMARK INTER + INTRA:          -2.708
REMARK INTER:                  -2.708
REMARK INTRA:                   0.000
REMARK UNBOUND:                 0.000
REMARK  Name = /home/anacleto/Desktop/manuscript_Mpro/naturecomm/supplementary_file_S2/6-chemical-library/molecular_docking/3D_ligand_structure/79.pdb
REMARK  0 active torsions:
REMARK  status: ('A' for Active; 'I' for Inactive)
REMARK                            x       y       z     vdW  Elec       q    Type
REMARK                         _______ _______ _______ _____ _____    ______ ____
ROOT
ATOM      1  O1  UNL     1     -28.397  -5.563 -25.926  0.00  0.00    +0.000 OA
ATOM      2  C1  UNL     1     -27.896  -4.840 -26.763  0.00  0.00    +0.000 A 
ATOM      3  N1  UNL     1     -28.525  -4.209 -27.844  0.00  0.00    +0.000 N 
ATOM      4  C2  UNL     1     -27.600  -3.482 -28.549  0.00  0.00    +0.000 A 
ATOM      5  C3  UNL     1     -26.406  -3.627 -27.960  0.00  0.00    +0.000 A 
ATOM      6  N2  UNL     1     -26.554  -4.447 -26.870  0.00  0.00    +0.000 N 
ATOM      7  H1  UNL     1     -29.510  -4.299 -28.040  0.00  0.00    +0.000 HD
ATOM      8  H4  UNL     1     -25.837  -4.744 -26.226  0.00  0.00    +0.000 HD
ENDROOT
TORSDOF 0
ENDMDL
MODEL 7
REMARK VINA RESULT:    -2.670     27.610     28.318
REMARK INTER + INTRA:          -2.670
REMARK INTER:                  -2.670
REMARK INTRA:                   0.000
REMARK UNBOUND:                 0.000
REMARK  Name = /home/anacleto/Desktop/manuscript_Mpro/naturecomm/supplementary_file_S2/6-chemical-library/molecular_docking/3D_ligand_structure/79.pdb
REMARK  0 active torsions:
REMARK  status: ('A' for Active; 'I' for Inactive)
REMARK                            x       y       z     vdW  Elec       q    Type
REMARK                         _______ _______ _______ _____ _____    ______ ____
ROOT
ATOM      1  O1  UNL     1     -22.649   9.874 -36.402  0.00  0.00    +0.000 OA
ATOM      2  C1  UNL     1     -21.642   9.878 -37.082  0.00  0.00    +0.000 A 
ATOM      3  N1  UNL     1     -20.690   8.859 -37.217  0.00  0.00    +0.000 N 
ATOM      4  C2  UNL     1     -19.706   9.267 -38.081  0.00  0.00    +0.000 A 
ATOM      5  C3  UNL     1     -19.994  10.506 -38.501  0.00  0.00    +0.000 A 
ATOM      6  N2  UNL     1     -21.167  10.905 -37.911  0.00  0.00    +0.000 N 
ATOM      7  H1  UNL     1     -20.754   7.976 -36.736  0.00  0.00    +0.000 HD
ATOM      8  H4  UNL     1     -21.641  11.787 -38.028  0.00  0.00    +0.000 HD
ENDROOT
TORSDOF 0
ENDMDL
MODEL 8
REMARK VINA RESULT:    -2.624     28.873     29.574
REMARK INTER + INTRA:          -2.624
REMARK INTER:                  -2.624
REMARK INTRA:                   0.000
REMARK UNBOUND:                 0.000
REMARK  Name = /home/anacleto/Desktop/manuscript_Mpro/naturecomm/supplementary_file_S2/6-chemical-library/molecular_docking/3D_ligand_structure/79.pdb
REMARK  0 active torsions:
REMARK  status: ('A' for Active; 'I' for Inactive)
REMARK                            x       y       z     vdW  Elec       q    Type
REMARK                         _______ _______ _______ _____ _____    ______ ____
ROOT
ATOM      1  O1  UNL     1     -21.558   8.238 -37.173  0.00  0.00    +0.000 OA
ATOM      2  C1  UNL     1     -20.528   8.211 -37.816  0.00  0.00    +0.000 A 
ATOM      3  N1  UNL     1     -19.538   9.199 -37.900  0.00  0.00    +0.000 N 
ATOM      4  C2  UNL     1     -18.538   8.772 -38.736  0.00  0.00    +0.000 A 
ATOM      5  C3  UNL     1     -18.852   7.551 -39.187  0.00  0.00    +0.000 A 
ATOM      6  N2  UNL     1     -20.057   7.183 -38.645  0.00  0.00    +0.000 N 
ATOM      7  H1  UNL     1     -19.589  10.076 -37.406  0.00  0.00    +0.000 HD
ATOM      8  H4  UNL     1     -20.558   6.320 -38.795  0.00  0.00    +0.000 HD
ENDROOT
TORSDOF 0
ENDMDL
MODEL 9
REMARK VINA RESULT:    -2.595     28.879     29.505
REMARK INTER + INTRA:          -2.595
REMARK INTER:                  -2.595
REMARK INTRA:                   0.000
REMARK UNBOUND:                 0.000
REMARK  Name = /home/anacleto/Desktop/manuscript_Mpro/naturecomm/supplementary_file_S2/6-chemical-library/molecular_docking/3D_ligand_structure/79.pdb
REMARK  0 active torsions:
REMARK  status: ('A' for Active; 'I' for Inactive)
REMARK                            x       y       z     vdW  Elec       q    Type
REMARK                         _______ _______ _______ _____ _____    ______ ____
ROOT
ATOM      1  O1  UNL     1     -18.252   8.672 -39.057  0.00  0.00    +0.000 OA
ATOM      2  C1  UNL     1     -19.300   8.315 -38.558  0.00  0.00    +0.000 A 
ATOM      3  N1  UNL     1     -20.109   9.019 -37.657  0.00  0.00    +0.000 N 
ATOM      4  C2  UNL     1     -21.205   8.258 -37.338  0.00  0.00    +0.000 A 
ATOM      5  C3  UNL     1     -21.125   7.097 -38.001  0.00  0.00    +0.000 A 
ATOM      6  N2  UNL     1     -19.977   7.102 -38.752  0.00  0.00    +0.000 N 
ATOM      7  H1  UNL     1     -19.886   9.942 -37.318  0.00  0.00    +0.000 HD
ATOM      8  H4  UNL     1     -19.639   6.370 -39.358  0.00  0.00    +0.000 HD
ENDROOT
TORSDOF 0
ENDMDL
