MODEL 1
REMARK VINA RESULT:    -5.266      0.000      0.000
REMARK INTER + INTRA:          -6.529
REMARK INTER:                  -6.237
REMARK INTRA:                  -0.292
REMARK UNBOUND:                -0.339
REMARK  Name = /home/anacleto/Desktop/manuscript_Mpro/naturecomm/supplementary_file_S2/6-chemical-library/molecular_docking/3D_ligand_structure/624.pdb
REMARK  3 active torsions:
REMARK  status: ('A' for Active; 'I' for Inactive)
REMARK    1  A    between atoms: C5_6  and  N2_7
REMARK    2  A    between atoms: N3_10  and  C7_11
REMARK    3  A    between atoms: C7_11  and  C8_12
REMARK                            x       y       z     vdW  Elec       q    Type
REMARK                         _______ _______ _______ _____ _____    ______ ____
ROOT
ATOM      1  N2  UNL     1      18.019   4.723   8.106  0.00  0.00    +0.000 N 
ATOM      2  C6  UNL     1      17.262   3.885   8.894  0.00  0.00    +0.000 C 
ATOM      3  O1  UNL     1      17.332   3.755  10.108  0.00  0.00    +0.000 OA
ATOM      4  N3  UNL     1      16.355   3.185   8.125  0.00  0.00    +0.000 N 
ATOM      5  H5  UNL     1      17.674   4.861   7.168  0.00  0.00    +0.000 HD
ATOM      6  H6  UNL     1      16.673   2.943   7.199  0.00  0.00    +0.000 HD
ENDROOT
BRANCH   1  12
ATOM      7  C1  UNL     1      20.288   4.939   8.898  0.00  0.00    +0.000 A 
ATOM      8  N1  UNL     1      21.390   5.604   9.321  0.00  0.00    +0.000 NA
ATOM      9  C2  UNL     1      21.297   6.949   9.365  0.00  0.00    +0.000 A 
ATOM     10  C3  UNL     1      20.156   7.649   9.012  0.00  0.00    +0.000 A 
ATOM     11  C4  UNL     1      19.038   6.933   8.584  0.00  0.00    +0.000 A 
ATOM     12  C5  UNL     1      19.091   5.543   8.515  0.00  0.00    +0.000 A 
ENDBRANCH   1  12
BRANCH   4  13
ATOM     13  C7  UNL     1      15.506   2.206   8.768  0.00  0.00    +0.000 C 
BRANCH  13  14
ATOM     14  C8  UNL     1      15.725   0.845   8.170  0.00  0.00    +0.000 A 
ATOM     15  C9  UNL     1      14.645  -0.021   7.963  0.00  0.00    +0.000 A 
ATOM     16  C10 UNL     1      14.886  -1.257   7.385  0.00  0.00    +0.000 A 
ATOM     17  N4  UNL     1      16.109  -1.680   7.001  0.00  0.00    +0.000 NA
ATOM     18  C11 UNL     1      17.137  -0.830   7.208  0.00  0.00    +0.000 A 
ATOM     19  C12 UNL     1      16.998   0.426   7.777  0.00  0.00    +0.000 A 
ENDBRANCH  13  14
ENDBRANCH   4  13
TORSDOF 3
ENDMDL
MODEL 2
REMARK VINA RESULT:    -5.261      2.041      2.636
REMARK INTER + INTRA:          -6.524
REMARK INTER:                  -6.241
REMARK INTRA:                  -0.283
REMARK UNBOUND:                -0.339
REMARK  Name = /home/anacleto/Desktop/manuscript_Mpro/naturecomm/supplementary_file_S2/6-chemical-library/molecular_docking/3D_ligand_structure/624.pdb
REMARK  3 active torsions:
REMARK  status: ('A' for Active; 'I' for Inactive)
REMARK    1  A    between atoms: C5_6  and  N2_7
REMARK    2  A    between atoms: N3_10  and  C7_11
REMARK    3  A    between atoms: C7_11  and  C8_12
REMARK                            x       y       z     vdW  Elec       q    Type
REMARK                         _______ _______ _______ _____ _____    ______ ____
ROOT
ATOM      1  N2  UNL     1      17.987   5.039   8.808  0.00  0.00    +0.000 N 
ATOM      2  C6  UNL     1      17.695   3.694   8.766  0.00  0.00    +0.000 C 
ATOM      3  O1  UNL     1      18.357   2.783   9.242  0.00  0.00    +0.000 OA
ATOM      4  N3  UNL     1      16.499   3.477   8.113  0.00  0.00    +0.000 N 
ATOM      5  H5  UNL     1      17.225   5.653   8.564  0.00  0.00    +0.000 HD
ATOM      6  H6  UNL     1      16.301   4.114   7.356  0.00  0.00    +0.000 HD
ENDROOT
BRANCH   1  12
ATOM      7  C1  UNL     1      19.182   5.989  10.677  0.00  0.00    +0.000 A 
ATOM      8  N1  UNL     1      20.228   6.583  11.301  0.00  0.00    +0.000 NA
ATOM      9  C2  UNL     1      21.306   6.850  10.536  0.00  0.00    +0.000 A 
ATOM     10  C3  UNL     1      21.379   6.556   9.185  0.00  0.00    +0.000 A 
ATOM     11  C4  UNL     1      20.283   5.946   8.574  0.00  0.00    +0.000 A 
ATOM     12  C5  UNL     1      19.150   5.644   9.326  0.00  0.00    +0.000 A 
ENDBRANCH   1  12
BRANCH   4  13
ATOM     13  C7  UNL     1      16.048   2.117   7.917  0.00  0.00    +0.000 C 
BRANCH  13  14
ATOM     14  C8  UNL     1      14.873   1.817   8.804  0.00  0.00    +0.000 A 
ATOM     15  C9  UNL     1      13.794   1.068   8.323  0.00  0.00    +0.000 A 
ATOM     16  C10 UNL     1      12.742   0.791   9.181  0.00  0.00    +0.000 A 
ATOM     17  N4  UNL     1      12.696   1.200  10.467  0.00  0.00    +0.000 NA
ATOM     18  C11 UNL     1      13.746   1.920  10.913  0.00  0.00    +0.000 A 
ATOM     19  C12 UNL     1      14.845   2.247  10.132  0.00  0.00    +0.000 A 
ENDBRANCH  13  14
ENDBRANCH   4  13
TORSDOF 3
ENDMDL
MODEL 3
REMARK VINA RESULT:    -5.138     15.540     17.721
REMARK INTER + INTRA:          -6.378
REMARK INTER:                  -6.080
REMARK INTRA:                  -0.299
REMARK UNBOUND:                -0.339
REMARK  Name = /home/anacleto/Desktop/manuscript_Mpro/naturecomm/supplementary_file_S2/6-chemical-library/molecular_docking/3D_ligand_structure/624.pdb
REMARK  3 active torsions:
REMARK  status: ('A' for Active; 'I' for Inactive)
REMARK    1  A    between atoms: C5_6  and  N2_7
REMARK    2  A    between atoms: N3_10  and  C7_11
REMARK    3  A    between atoms: C7_11  and  C8_12
REMARK                            x       y       z     vdW  Elec       q    Type
REMARK                         _______ _______ _______ _____ _____    ______ ____
ROOT
ATOM      1  N2  UNL     1      14.501  14.301  -4.671  0.00  0.00    +0.000 N 
ATOM      2  C6  UNL     1      14.634  14.284  -3.301  0.00  0.00    +0.000 C 
ATOM      3  O1  UNL     1      14.793  13.303  -2.589  0.00  0.00    +0.000 OA
ATOM      4  N3  UNL     1      14.586  15.567  -2.794  0.00  0.00    +0.000 N 
ATOM      5  H5  UNL     1      14.603  15.207  -5.103  0.00  0.00    +0.000 HD
ATOM      6  H6  UNL     1      13.977  16.201  -3.287  0.00  0.00    +0.000 HD
ENDROOT
BRANCH   1  12
ATOM      7  C1  UNL     1      13.336  12.331  -5.437  0.00  0.00    +0.000 A 
ATOM      8  N1  UNL     1      13.149  11.224  -6.196  0.00  0.00    +0.000 NA
ATOM      9  C2  UNL     1      14.107  10.954  -7.107  0.00  0.00    +0.000 A 
ATOM     10  C3  UNL     1      15.236  11.735  -7.284  0.00  0.00    +0.000 A 
ATOM     11  C4  UNL     1      15.399  12.867  -6.484  0.00  0.00    +0.000 A 
ATOM     12  C5  UNL     1      14.432  13.189  -5.536  0.00  0.00    +0.000 A 
ENDBRANCH   1  12
BRANCH   4  13
ATOM     13  C7  UNL     1      14.650  15.753  -1.360  0.00  0.00    +0.000 C 
BRANCH  13  14
ATOM     14  C8  UNL     1      16.051  16.090  -0.935  0.00  0.00    +0.000 A 
ATOM     15  C9  UNL     1      16.794  17.048  -1.633  0.00  0.00    +0.000 A 
ATOM     16  C10 UNL     1      18.072  17.348  -1.192  0.00  0.00    +0.000 A 
ATOM     17  N4  UNL     1      18.649  16.773  -0.117  0.00  0.00    +0.000 NA
ATOM     18  C11 UNL     1      17.917  15.852   0.545  0.00  0.00    +0.000 A 
ATOM     19  C12 UNL     1      16.630  15.484   0.183  0.00  0.00    +0.000 A 
ENDBRANCH  13  14
ENDBRANCH   4  13
TORSDOF 3
ENDMDL
MODEL 4
REMARK VINA RESULT:    -5.122      2.167      7.325
REMARK INTER + INTRA:          -6.359
REMARK INTER:                  -5.984
REMARK INTRA:                  -0.375
REMARK UNBOUND:                -0.339
REMARK  Name = /home/anacleto/Desktop/manuscript_Mpro/naturecomm/supplementary_file_S2/6-chemical-library/molecular_docking/3D_ligand_structure/624.pdb
REMARK  3 active torsions:
REMARK  status: ('A' for Active; 'I' for Inactive)
REMARK    1  A    between atoms: C5_6  and  N2_7
REMARK    2  A    between atoms: N3_10  and  C7_11
REMARK    3  A    between atoms: C7_11  and  C8_12
REMARK                            x       y       z     vdW  Elec       q    Type
REMARK                         _______ _______ _______ _____ _____    ______ ____
ROOT
ATOM      1  N2  UNL     1      17.117   4.149   8.503  0.00  0.00    +0.000 N 
ATOM      2  C6  UNL     1      18.435   4.358   8.839  0.00  0.00    +0.000 C 
ATOM      3  O1  UNL     1      19.246   3.515   9.196  0.00  0.00    +0.000 OA
ATOM      4  N3  UNL     1      18.765   5.691   8.703  0.00  0.00    +0.000 N 
ATOM      5  H5  UNL     1      16.667   4.914   8.023  0.00  0.00    +0.000 HD
ATOM      6  H6  UNL     1      18.024   6.341   8.919  0.00  0.00    +0.000 HD
ENDROOT
BRANCH   1  12
ATOM      7  C1  UNL     1      15.860   2.557   9.812  0.00  0.00    +0.000 A 
ATOM      8  N1  UNL     1      15.158   1.419  10.031  0.00  0.00    +0.000 NA
ATOM      9  C2  UNL     1      14.978   0.613   8.965  0.00  0.00    +0.000 A 
ATOM     10  C3  UNL     1      15.473   0.892   7.702  0.00  0.00    +0.000 A 
ATOM     11  C4  UNL     1      16.194   2.071   7.512  0.00  0.00    +0.000 A 
ATOM     12  C5  UNL     1      16.397   2.938   8.582  0.00  0.00    +0.000 A 
ENDBRANCH   1  12
BRANCH   4  13
ATOM     13  C7  UNL     1      20.097   6.120   9.067  0.00  0.00    +0.000 C 
BRANCH  13  14
ATOM     14  C8  UNL     1      20.112   6.662  10.469  0.00  0.00    +0.000 A 
ATOM     15  C9  UNL     1      18.969   7.259  11.010  0.00  0.00    +0.000 A 
ATOM     16  C10 UNL     1      19.015   7.722  12.315  0.00  0.00    +0.000 A 
ATOM     17  N4  UNL     1      20.105   7.627  13.106  0.00  0.00    +0.000 NA
ATOM     18  C11 UNL     1      21.198   7.047  12.566  0.00  0.00    +0.000 A 
ATOM     19  C12 UNL     1      21.249   6.552  11.272  0.00  0.00    +0.000 A 
ENDBRANCH  13  14
ENDBRANCH   4  13
TORSDOF 3
ENDMDL
MODEL 5
REMARK VINA RESULT:    -5.026     14.561     16.642
REMARK INTER + INTRA:          -6.247
REMARK INTER:                  -5.950
REMARK INTRA:                  -0.297
REMARK UNBOUND:                -0.339
REMARK  Name = /home/anacleto/Desktop/manuscript_Mpro/naturecomm/supplementary_file_S2/6-chemical-library/molecular_docking/3D_ligand_structure/624.pdb
REMARK  3 active torsions:
REMARK  status: ('A' for Active; 'I' for Inactive)
REMARK    1  A    between atoms: C5_6  and  N2_7
REMARK    2  A    between atoms: N3_10  and  C7_11
REMARK    3  A    between atoms: C7_11  and  C8_12
REMARK                            x       y       z     vdW  Elec       q    Type
REMARK                         _______ _______ _______ _____ _____    ______ ____
ROOT
ATOM      1  N2  UNL     1      15.910  12.321  -3.459  0.00  0.00    +0.000 N 
ATOM      2  C6  UNL     1      15.603  13.337  -2.584  0.00  0.00    +0.000 C 
ATOM      3  O1  UNL     1      14.610  14.051  -2.603  0.00  0.00    +0.000 OA
ATOM      4  N3  UNL     1      16.580  13.456  -1.616  0.00  0.00    +0.000 N 
ATOM      5  H5  UNL     1      16.648  11.702  -3.160  0.00  0.00    +0.000 HD
ATOM      6  H6  UNL     1      17.518  13.251  -1.926  0.00  0.00    +0.000 HD
ENDROOT
BRANCH   1  12
ATOM      7  C1  UNL     1      14.256  10.917  -4.516  0.00  0.00    +0.000 A 
ATOM      8  N1  UNL     1      13.508  10.449  -5.545  0.00  0.00    +0.000 NA
ATOM      9  C2  UNL     1      13.705  11.038  -6.742  0.00  0.00    +0.000 A 
ATOM     10  C3  UNL     1      14.614  12.060  -6.953  0.00  0.00    +0.000 A 
ATOM     11  C4  UNL     1      15.370  12.516  -5.871  0.00  0.00    +0.000 A 
ATOM     12  C5  UNL     1      15.195  11.944  -4.614  0.00  0.00    +0.000 A 
ENDBRANCH   1  12
BRANCH   4  13
ATOM     13  C7  UNL     1      16.465  14.512  -0.634  0.00  0.00    +0.000 C 
BRANCH  13  14
ATOM     14  C8  UNL     1      17.823  14.924  -0.141  0.00  0.00    +0.000 A 
ATOM     15  C9  UNL     1      18.898  14.031  -0.196  0.00  0.00    +0.000 A 
ATOM     16  C10 UNL     1      20.140  14.458   0.245  0.00  0.00    +0.000 A 
ATOM     17  N4  UNL     1      20.381  15.697   0.724  0.00  0.00    +0.000 NA
ATOM     18  C11 UNL     1      19.331  16.544   0.769  0.00  0.00    +0.000 A 
ATOM     19  C12 UNL     1      18.052  16.211   0.350  0.00  0.00    +0.000 A 
ENDBRANCH  13  14
ENDBRANCH   4  13
TORSDOF 3
ENDMDL
MODEL 6
REMARK VINA RESULT:    -4.928     15.315     16.455
REMARK INTER + INTRA:          -6.131
REMARK INTER:                  -5.852
REMARK INTRA:                  -0.280
REMARK UNBOUND:                -0.339
REMARK  Name = /home/anacleto/Desktop/manuscript_Mpro/naturecomm/supplementary_file_S2/6-chemical-library/molecular_docking/3D_ligand_structure/624.pdb
REMARK  3 active torsions:
REMARK  status: ('A' for Active; 'I' for Inactive)
REMARK    1  A    between atoms: C5_6  and  N2_7
REMARK    2  A    between atoms: N3_10  and  C7_11
REMARK    3  A    between atoms: C7_11  and  C8_12
REMARK                            x       y       z     vdW  Elec       q    Type
REMARK                         _______ _______ _______ _____ _____    ______ ____
ROOT
ATOM      1  N2  UNL     1      20.165   8.527  -5.670  0.00  0.00    +0.000 N 
ATOM      2  C6  UNL     1      19.769   9.817  -5.397  0.00  0.00    +0.000 C 
ATOM      3  O1  UNL     1      20.488  10.802  -5.299  0.00  0.00    +0.000 OA
ATOM      4  N3  UNL     1      18.398   9.884  -5.260  0.00  0.00    +0.000 N 
ATOM      5  H5  UNL     1      19.424   7.895  -5.933  0.00  0.00    +0.000 HD
ATOM      6  H6  UNL     1      17.967   9.070  -4.849  0.00  0.00    +0.000 HD
ENDROOT
BRANCH   1  12
ATOM      7  C1  UNL     1      22.052   7.998  -7.080  0.00  0.00    +0.000 A 
ATOM      8  N1  UNL     1      23.302   7.553  -7.354  0.00  0.00    +0.000 NA
ATOM      9  C2  UNL     1      24.033   7.137  -6.300  0.00  0.00    +0.000 A 
ATOM     10  C3  UNL     1      23.568   7.141  -4.996  0.00  0.00    +0.000 A 
ATOM     11  C4  UNL     1      22.274   7.603  -4.749  0.00  0.00    +0.000 A 
ATOM     12  C5  UNL     1      21.486   8.050  -5.806  0.00  0.00    +0.000 A 
ENDBRANCH   1  12
BRANCH   4  13
ATOM     13  C7  UNL     1      17.794  11.152  -4.912  0.00  0.00    +0.000 C 
BRANCH  13  14
ATOM     14  C8  UNL     1      16.376  11.213  -5.406  0.00  0.00    +0.000 A 
ATOM     15  C9  UNL     1      15.308  11.014  -4.525  0.00  0.00    +0.000 A 
ATOM     16  C10 UNL     1      14.016  11.105  -5.016  0.00  0.00    +0.000 A 
ATOM     17  N4  UNL     1      13.720  11.382  -6.303  0.00  0.00    +0.000 NA
ATOM     18  C11 UNL     1      14.764  11.572  -7.138  0.00  0.00    +0.000 A 
ATOM     19  C12 UNL     1      16.091  11.503  -6.743  0.00  0.00    +0.000 A 
ENDBRANCH  13  14
ENDBRANCH   4  13
TORSDOF 3
ENDMDL
MODEL 7
REMARK VINA RESULT:    -4.923     16.170     17.248
REMARK INTER + INTRA:          -6.126
REMARK INTER:                  -5.787
REMARK INTRA:                  -0.339
REMARK UNBOUND:                -0.339
REMARK  Name = /home/anacleto/Desktop/manuscript_Mpro/naturecomm/supplementary_file_S2/6-chemical-library/molecular_docking/3D_ligand_structure/624.pdb
REMARK  3 active torsions:
REMARK  status: ('A' for Active; 'I' for Inactive)
REMARK    1  A    between atoms: C5_6  and  N2_7
REMARK    2  A    between atoms: N3_10  and  C7_11
REMARK    3  A    between atoms: C7_11  and  C8_12
REMARK                            x       y       z     vdW  Elec       q    Type
REMARK                         _______ _______ _______ _____ _____    ______ ____
ROOT
ATOM      1  N2  UNL     1      19.244   9.275  -7.649  0.00  0.00    +0.000 N 
ATOM      2  C6  UNL     1      18.719  10.477  -7.231  0.00  0.00    +0.000 C 
ATOM      3  O1  UNL     1      19.252  11.297  -6.497  0.00  0.00    +0.000 OA
ATOM      4  N3  UNL     1      17.467  10.675  -7.776  0.00  0.00    +0.000 N 
ATOM      5  H5  UNL     1      18.762   8.840  -8.421  0.00  0.00    +0.000 HD
ATOM      6  H6  UNL     1      16.916   9.840  -7.901  0.00  0.00    +0.000 HD
ENDROOT
BRANCH   1  12
ATOM      7  C1  UNL     1      21.473   8.536  -8.205  0.00  0.00    +0.000 A 
ATOM      8  N1  UNL     1      22.687   7.986  -7.963  0.00  0.00    +0.000 NA
ATOM      9  C2  UNL     1      22.914   7.566  -6.702  0.00  0.00    +0.000 A 
ATOM     10  C3  UNL     1      21.983   7.669  -5.682  0.00  0.00    +0.000 A 
ATOM     11  C4  UNL     1      20.741   8.239  -5.966  0.00  0.00    +0.000 A 
ATOM     12  C5  UNL     1      20.466   8.693  -7.253  0.00  0.00    +0.000 A 
ENDBRANCH   1  12
BRANCH   4  13
ATOM     13  C7  UNL     1      16.725  11.861  -7.406  0.00  0.00    +0.000 C 
BRANCH  13  14
ATOM     14  C8  UNL     1      15.526  11.496  -6.577  0.00  0.00    +0.000 A 
ATOM     15  C9  UNL     1      14.276  11.316  -7.178  0.00  0.00    +0.000 A 
ATOM     16  C10 UNL     1      13.202  10.953  -6.382  0.00  0.00    +0.000 A 
ATOM     17  N4  UNL     1      13.288  10.756  -5.049  0.00  0.00    +0.000 NA
ATOM     18  C11 UNL     1      14.503  10.933  -4.488  0.00  0.00    +0.000 A 
ATOM     19  C12 UNL     1      15.637  11.294  -5.199  0.00  0.00    +0.000 A 
ENDBRANCH  13  14
ENDBRANCH   4  13
TORSDOF 3
ENDMDL
MODEL 8
REMARK VINA RESULT:    -4.890     14.541     15.614
REMARK INTER + INTRA:          -6.088
REMARK INTER:                  -5.746
REMARK INTRA:                  -0.341
REMARK UNBOUND:                -0.339
REMARK  Name = /home/anacleto/Desktop/manuscript_Mpro/naturecomm/supplementary_file_S2/6-chemical-library/molecular_docking/3D_ligand_structure/624.pdb
REMARK  3 active torsions:
REMARK  status: ('A' for Active; 'I' for Inactive)
REMARK    1  A    between atoms: C5_6  and  N2_7
REMARK    2  A    between atoms: N3_10  and  C7_11
REMARK    3  A    between atoms: C7_11  and  C8_12
REMARK                            x       y       z     vdW  Elec       q    Type
REMARK                         _______ _______ _______ _____ _____    ______ ____
ROOT
ATOM      1  N2  UNL     1      15.781  14.434  -1.506  0.00  0.00    +0.000 N 
ATOM      2  C6  UNL     1      16.214  13.206  -1.953  0.00  0.00    +0.000 C 
ATOM      3  O1  UNL     1      17.347  12.752  -1.876  0.00  0.00    +0.000 OA
ATOM      4  N3  UNL     1      15.169  12.496  -2.508  0.00  0.00    +0.000 N 
ATOM      5  H5  UNL     1      14.780  14.545  -1.452  0.00  0.00    +0.000 HD
ATOM      6  H6  UNL     1      14.479  13.053  -2.989  0.00  0.00    +0.000 HD
ENDROOT
BRANCH   1  12
ATOM      7  C1  UNL     1      16.702  15.525   0.440  0.00  0.00    +0.000 A 
ATOM      8  N1  UNL     1      17.415  16.465   1.107  0.00  0.00    +0.000 NA
ATOM      9  C2  UNL     1      18.029  17.398   0.351  0.00  0.00    +0.000 A 
ATOM     10  C3  UNL     1      17.956  17.433  -1.030  0.00  0.00    +0.000 A 
ATOM     11  C4  UNL     1      17.211  16.452  -1.686  0.00  0.00    +0.000 A 
ATOM     12  C5  UNL     1      16.565  15.464  -0.947  0.00  0.00    +0.000 A 
ENDBRANCH   1  12
BRANCH   4  13
ATOM     13  C7  UNL     1      15.438  11.199  -3.089  0.00  0.00    +0.000 C 
BRANCH  13  14
ATOM     14  C8  UNL     1      14.987  11.159  -4.522  0.00  0.00    +0.000 A 
ATOM     15  C9  UNL     1      13.717  10.675  -4.853  0.00  0.00    +0.000 A 
ATOM     16  C10 UNL     1      13.331  10.680  -6.183  0.00  0.00    +0.000 A 
ATOM     17  N4  UNL     1      14.109  11.132  -7.189  0.00  0.00    +0.000 NA
ATOM     18  C11 UNL     1      15.330  11.596  -6.850  0.00  0.00    +0.000 A 
ATOM     19  C12 UNL     1      15.807  11.634  -5.549  0.00  0.00    +0.000 A 
ENDBRANCH  13  14
ENDBRANCH   4  13
TORSDOF 3
ENDMDL
MODEL 9
REMARK VINA RESULT:    -4.867     14.502     15.739
REMARK INTER + INTRA:          -6.060
REMARK INTER:                  -5.722
REMARK INTRA:                  -0.338
REMARK UNBOUND:                -0.339
REMARK  Name = /home/anacleto/Desktop/manuscript_Mpro/naturecomm/supplementary_file_S2/6-chemical-library/molecular_docking/3D_ligand_structure/624.pdb
REMARK  3 active torsions:
REMARK  status: ('A' for Active; 'I' for Inactive)
REMARK    1  A    between atoms: C5_6  and  N2_7
REMARK    2  A    between atoms: N3_10  and  C7_11
REMARK    3  A    between atoms: C7_11  and  C8_12
REMARK                            x       y       z     vdW  Elec       q    Type
REMARK                         _______ _______ _______ _____ _____    ______ ____
ROOT
ATOM      1  N2  UNL     1      20.618   8.144  -5.720  0.00  0.00    +0.000 N 
ATOM      2  C6  UNL     1      20.204   9.451  -5.836  0.00  0.00    +0.000 C 
ATOM      3  O1  UNL     1      20.890  10.455  -5.706  0.00  0.00    +0.000 OA
ATOM      4  N3  UNL     1      18.861   9.508  -6.152  0.00  0.00    +0.000 N 
ATOM      5  H5  UNL     1      19.974   7.454  -6.077  0.00  0.00    +0.000 HD
ATOM      6  H6  UNL     1      18.294   8.777  -5.751  0.00  0.00    +0.000 HD
ENDROOT
BRANCH   1  12
ATOM      7  C1  UNL     1      22.117   7.338  -4.008  0.00  0.00    +0.000 A 
ATOM      8  N1  UNL     1      23.295   6.893  -3.508  0.00  0.00    +0.000 NA
ATOM      9  C2  UNL     1      24.314   6.785  -4.385  0.00  0.00    +0.000 A 
ATOM     10  C3  UNL     1      24.206   7.105  -5.727  0.00  0.00    +0.000 A 
ATOM     11  C4  UNL     1      22.979   7.563  -6.209  0.00  0.00    +0.000 A 
ATOM     12  C5  UNL     1      21.896   7.684  -5.342  0.00  0.00    +0.000 A 
ENDBRANCH   1  12
BRANCH   4  13
ATOM     13  C7  UNL     1      18.225  10.803  -6.259  0.00  0.00    +0.000 C 
BRANCH  13  14
ATOM     14  C8  UNL     1      17.083  10.911  -5.288  0.00  0.00    +0.000 A 
ATOM     15  C9  UNL     1      15.807  11.277  -5.730  0.00  0.00    +0.000 A 
ATOM     16  C10 UNL     1      14.776  11.339  -4.807  0.00  0.00    +0.000 A 
ATOM     17  N4  UNL     1      14.926  11.060  -3.495  0.00  0.00    +0.000 NA
ATOM     18  C11 UNL     1      16.164  10.708  -3.088  0.00  0.00    +0.000 A 
ATOM     19  C12 UNL     1      17.258  10.616  -3.934  0.00  0.00    +0.000 A 
ENDBRANCH  13  14
ENDBRANCH   4  13
TORSDOF 3
ENDMDL
