MODEL 1
REMARK VINA RESULT:    -5.799      0.000      0.000
REMARK INTER + INTRA:          -8.782
REMARK INTER:                  -8.259
REMARK INTRA:                  -0.523
REMARK UNBOUND:                -0.610
REMARK  Name = /home/anacleto/Desktop/manuscript_Mpro/naturecomm/supplementary_file_S2/6-chemical-library/molecular_docking/3D_ligand_structure/413.pdb
REMARK  7 active torsions:
REMARK  status: ('A' for Active; 'I' for Inactive)
REMARK    1  A    between atoms: C6_6  and  C7_7
REMARK    2  A    between atoms: C7_7  and  C8_8
REMARK    3  A    between atoms: C8_8  and  N1_9
REMARK    4  A    between atoms: C9_10  and  C10_12
REMARK    5  A    between atoms: C10_12  and  N2_13
REMARK    6  A    between atoms: N3_16  and  C12_17
REMARK    7  A    between atoms: C12_17  and  C13_18
REMARK                            x       y       z     vdW  Elec       q    Type
REMARK                         _______ _______ _______ _____ _____    ______ ____
ROOT
ATOM      1  C10 UNL     1      12.803  17.704  -1.987  0.00  0.00    +0.000 C 
ENDROOT
BRANCH   1   2
ATOM      2  N2  UNL     1      12.936  16.569  -2.881  0.00  0.00    +0.000 N 
ATOM      3  C11 UNL     1      13.791  15.549  -2.565  0.00  0.00    +0.000 C 
ATOM      4  O2  UNL     1      14.419  15.496  -1.514  0.00  0.00    +0.000 OA
ATOM      5  N3  UNL     1      13.844  14.598  -3.536  0.00  0.00    +0.000 N 
ATOM      6  H13 UNL     1      12.795  16.754  -3.864  0.00  0.00    +0.000 HD
ATOM      7  H14 UNL     1      13.547  14.833  -4.474  0.00  0.00    +0.000 HD
BRANCH   5   8
ATOM      8  C12 UNL     1      14.782  13.505  -3.445  0.00  0.00    +0.000 C 
BRANCH   8   9
ATOM      9  C13 UNL     1      14.515  12.553  -4.568  0.00  0.00    +0.000 A 
ATOM     10  C14 UNL     1      14.614  12.830  -5.919  0.00  0.00    +0.000 A 
ATOM     11  S1  UNL     1      14.213  11.442  -6.843  0.00  0.00    +0.000 S 
ATOM     12  C15 UNL     1      13.935  10.578  -5.388  0.00  0.00    +0.000 A 
ATOM     13  N4  UNL     1      14.119  11.248  -4.272  0.00  0.00    +0.000 NA
ENDBRANCH   8   9
ENDBRANCH   5   8
ENDBRANCH   1   2
BRANCH   1  15
ATOM     14  N1  UNL     1      12.143  19.162  -3.818  0.00  0.00    +0.000 N 
ATOM     15  C9  UNL     1      13.027  18.996  -2.772  0.00  0.00    +0.000 C 
ATOM     16  O1  UNL     1      13.857  19.837  -2.435  0.00  0.00    +0.000 OA
ATOM     17  H10 UNL     1      11.287  18.608  -3.753  0.00  0.00    +0.000 HD
BRANCH  14  18
ATOM     18  C8  UNL     1      12.087  20.408  -4.556  0.00  0.00    +0.000 C 
BRANCH  18  19
ATOM     19  C7  UNL     1      10.729  21.104  -4.445  0.00  0.00    +0.000 C 
BRANCH  19  25
ATOM     20  C1  UNL     1      11.785  22.661  -2.754  0.00  0.00    +0.000 A 
ATOM     21  C2  UNL     1      11.836  23.881  -2.078  0.00  0.00    +0.000 A 
ATOM     22  C3  UNL     1      10.899  24.876  -2.356  0.00  0.00    +0.000 A 
ATOM     23  C4  UNL     1       9.908  24.650  -3.310  0.00  0.00    +0.000 A 
ATOM     24  C5  UNL     1       9.854  23.431  -3.989  0.00  0.00    +0.000 A 
ATOM     25  C6  UNL     1      10.794  22.426  -3.719  0.00  0.00    +0.000 A 
ENDBRANCH  19  25
ENDBRANCH  18  19
ENDBRANCH  14  18
ENDBRANCH   1  15
TORSDOF 7
ENDMDL
MODEL 2
REMARK VINA RESULT:    -5.664      3.337      9.032
REMARK INTER + INTRA:          -8.592
REMARK INTER:                  -8.113
REMARK INTRA:                  -0.479
REMARK UNBOUND:                -0.610
REMARK  Name = /home/anacleto/Desktop/manuscript_Mpro/naturecomm/supplementary_file_S2/6-chemical-library/molecular_docking/3D_ligand_structure/413.pdb
REMARK  7 active torsions:
REMARK  status: ('A' for Active; 'I' for Inactive)
REMARK    1  A    between atoms: C6_6  and  C7_7
REMARK    2  A    between atoms: C7_7  and  C8_8
REMARK    3  A    between atoms: C8_8  and  N1_9
REMARK    4  A    between atoms: C9_10  and  C10_12
REMARK    5  A    between atoms: C10_12  and  N2_13
REMARK    6  A    between atoms: N3_16  and  C12_17
REMARK    7  A    between atoms: C12_17  and  C13_18
REMARK                            x       y       z     vdW  Elec       q    Type
REMARK                         _______ _______ _______ _____ _____    ______ ____
ROOT
ATOM      1  C10 UNL     1      12.807  17.692  -2.059  0.00  0.00    +0.000 C 
ENDROOT
BRANCH   1   2
ATOM      2  N2  UNL     1      11.995  18.057  -3.205  0.00  0.00    +0.000 N 
ATOM      3  C11 UNL     1      11.996  19.348  -3.657  0.00  0.00    +0.000 C 
ATOM      4  O2  UNL     1      12.709  20.227  -3.188  0.00  0.00    +0.000 OA
ATOM      5  N3  UNL     1      11.137  19.535  -4.695  0.00  0.00    +0.000 N 
ATOM      6  H13 UNL     1      11.143  17.532  -3.336  0.00  0.00    +0.000 HD
ATOM      7  H14 UNL     1      10.385  18.873  -4.838  0.00  0.00    +0.000 HD
BRANCH   5   8
ATOM      8  C12 UNL     1      10.902  20.855  -5.229  0.00  0.00    +0.000 C 
BRANCH   8   9
ATOM      9  C13 UNL     1      10.607  20.733  -6.690  0.00  0.00    +0.000 A 
ATOM     10  C14 UNL     1      10.458  21.774  -7.587  0.00  0.00    +0.000 A 
ATOM     11  S1  UNL     1      10.124  21.167  -9.156  0.00  0.00    +0.000 S 
ATOM     12  C15 UNL     1      10.199  19.571  -8.533  0.00  0.00    +0.000 A 
ATOM     13  N4  UNL     1      10.453  19.462  -7.248  0.00  0.00    +0.000 NA
ENDBRANCH   8   9
ENDBRANCH   5   8
ENDBRANCH   1   2
BRANCH   1  15
ATOM     14  N1  UNL     1      13.723  15.707  -3.126  0.00  0.00    +0.000 N 
ATOM     15  C9  UNL     1      13.007  16.177  -2.043  0.00  0.00    +0.000 C 
ATOM     16  O1  UNL     1      12.641  15.473  -1.105  0.00  0.00    +0.000 OA
ATOM     17  H10 UNL     1      14.286  16.409  -3.610  0.00  0.00    +0.000 HD
BRANCH  14  18
ATOM     18  C8  UNL     1      14.165  14.328  -3.185  0.00  0.00    +0.000 C 
BRANCH  18  19
ATOM     19  C7  UNL     1      15.152  14.069  -4.325  0.00  0.00    +0.000 C 
BRANCH  19  25
ATOM     20  C1  UNL     1      13.561  12.218  -4.987  0.00  0.00    +0.000 A 
ATOM     21  C2  UNL     1      13.144  11.218  -5.867  0.00  0.00    +0.000 A 
ATOM     22  C3  UNL     1      13.851  10.982  -7.045  0.00  0.00    +0.000 A 
ATOM     23  C4  UNL     1      14.979  11.746  -7.344  0.00  0.00    +0.000 A 
ATOM     24  C5  UNL     1      15.399  12.747  -6.466  0.00  0.00    +0.000 A 
ATOM     25  C6  UNL     1      14.692  12.994  -5.280  0.00  0.00    +0.000 A 
ENDBRANCH  19  25
ENDBRANCH  18  19
ENDBRANCH  14  18
ENDBRANCH   1  15
TORSDOF 7
ENDMDL
MODEL 3
REMARK VINA RESULT:    -5.485      4.596     10.113
REMARK INTER + INTRA:          -8.340
REMARK INTER:                  -7.702
REMARK INTRA:                  -0.637
REMARK UNBOUND:                -0.610
REMARK  Name = /home/anacleto/Desktop/manuscript_Mpro/naturecomm/supplementary_file_S2/6-chemical-library/molecular_docking/3D_ligand_structure/413.pdb
REMARK  7 active torsions:
REMARK  status: ('A' for Active; 'I' for Inactive)
REMARK    1  A    between atoms: C6_6  and  C7_7
REMARK    2  A    between atoms: C7_7  and  C8_8
REMARK    3  A    between atoms: C8_8  and  N1_9
REMARK    4  A    between atoms: C9_10  and  C10_12
REMARK    5  A    between atoms: C10_12  and  N2_13
REMARK    6  A    between atoms: N3_16  and  C12_17
REMARK    7  A    between atoms: C12_17  and  C13_18
REMARK                            x       y       z     vdW  Elec       q    Type
REMARK                         _______ _______ _______ _____ _____    ______ ____
ROOT
ATOM      1  C10 UNL     1      12.314  19.842  -3.760  0.00  0.00    +0.000 C 
ENDROOT
BRANCH   1   2
ATOM      2  N2  UNL     1      11.644  20.930  -3.073  0.00  0.00    +0.000 N 
ATOM      3  C11 UNL     1      12.274  22.135  -2.926  0.00  0.00    +0.000 C 
ATOM      4  O2  UNL     1      13.371  22.386  -3.411  0.00  0.00    +0.000 OA
ATOM      5  N3  UNL     1      11.537  23.022  -2.206  0.00  0.00    +0.000 N 
ATOM      6  H13 UNL     1      10.994  20.668  -2.345  0.00  0.00    +0.000 HD
ATOM      7  H14 UNL     1      10.803  22.677  -1.601  0.00  0.00    +0.000 HD
BRANCH   5   8
ATOM      8  C12 UNL     1      12.084  24.306  -1.837  0.00  0.00    +0.000 C 
BRANCH   8   9
ATOM      9  C13 UNL     1      10.959  25.203  -1.428  0.00  0.00    +0.000 A 
ATOM     10  C14 UNL     1      10.901  25.976  -0.283  0.00  0.00    +0.000 A 
ATOM     11  S1  UNL     1       9.422  26.842  -0.223  0.00  0.00    +0.000 S 
ATOM     12  C15 UNL     1       8.966  26.128  -1.713  0.00  0.00    +0.000 A 
ATOM     13  N4  UNL     1       9.832  25.297  -2.248  0.00  0.00    +0.000 NA
ENDBRANCH   8   9
ENDBRANCH   5   8
ENDBRANCH   1   2
BRANCH   1  15
ATOM     14  N1  UNL     1      12.040  18.069  -2.118  0.00  0.00    +0.000 N 
ATOM     15  C9  UNL     1      12.949  18.907  -2.731  0.00  0.00    +0.000 C 
ATOM     16  O1  UNL     1      14.162  18.855  -2.547  0.00  0.00    +0.000 OA
ATOM     17  H10 UNL     1      11.159  17.943  -2.621  0.00  0.00    +0.000 HD
BRANCH  14  18
ATOM     18  C8  UNL     1      12.483  16.995  -1.252  0.00  0.00    +0.000 C 
BRANCH  18  19
ATOM     19  C7  UNL     1      12.758  15.695  -2.011  0.00  0.00    +0.000 C 
BRANCH  19  25
ATOM     20  C1  UNL     1      14.620  14.077  -2.566  0.00  0.00    +0.000 A 
ATOM     21  C2  UNL     1      15.928  13.614  -2.410  0.00  0.00    +0.000 A 
ATOM     22  C3  UNL     1      16.802  14.266  -1.540  0.00  0.00    +0.000 A 
ATOM     23  C4  UNL     1      16.368  15.381  -0.824  0.00  0.00    +0.000 A 
ATOM     24  C5  UNL     1      15.060  15.846  -0.978  0.00  0.00    +0.000 A 
ATOM     25  C6  UNL     1      14.175  15.199  -1.852  0.00  0.00    +0.000 A 
ENDBRANCH  19  25
ENDBRANCH  18  19
ENDBRANCH  14  18
ENDBRANCH   1  15
TORSDOF 7
ENDMDL
MODEL 4
REMARK VINA RESULT:    -5.416     19.433     21.638
REMARK INTER + INTRA:          -8.243
REMARK INTER:                  -7.622
REMARK INTRA:                  -0.620
REMARK UNBOUND:                -0.610
REMARK  Name = /home/anacleto/Desktop/manuscript_Mpro/naturecomm/supplementary_file_S2/6-chemical-library/molecular_docking/3D_ligand_structure/413.pdb
REMARK  7 active torsions:
REMARK  status: ('A' for Active; 'I' for Inactive)
REMARK    1  A    between atoms: C6_6  and  C7_7
REMARK    2  A    between atoms: C7_7  and  C8_8
REMARK    3  A    between atoms: C8_8  and  N1_9
REMARK    4  A    between atoms: C9_10  and  C10_12
REMARK    5  A    between atoms: C10_12  and  N2_13
REMARK    6  A    between atoms: N3_16  and  C12_17
REMARK    7  A    between atoms: C12_17  and  C13_18
REMARK                            x       y       z     vdW  Elec       q    Type
REMARK                         _______ _______ _______ _____ _____    ______ ____
ROOT
ATOM      1  C10 UNL     1      20.601   6.751   9.859  0.00  0.00    +0.000 C 
ENDROOT
BRANCH   1   2
ATOM      2  N2  UNL     1      20.006   7.616  10.860  0.00  0.00    +0.000 N 
ATOM      3  C11 UNL     1      20.211   7.363  12.188  0.00  0.00    +0.000 C 
ATOM      4  O2  UNL     1      20.941   6.469  12.600  0.00  0.00    +0.000 OA
ATOM      5  N3  UNL     1      19.535   8.227  12.992  0.00  0.00    +0.000 N 
ATOM      6  H13 UNL     1      19.129   8.051  10.612  0.00  0.00    +0.000 HD
ATOM      7  H14 UNL     1      18.743   8.733  12.616  0.00  0.00    +0.000 HD
BRANCH   5   8
ATOM      8  C12 UNL     1      19.523   8.045  14.423  0.00  0.00    +0.000 C 
BRANCH   8   9
ATOM      9  C13 UNL     1      18.196   7.481  14.822  0.00  0.00    +0.000 A 
ATOM     10  C14 UNL     1      16.983   7.725  14.206  0.00  0.00    +0.000 A 
ATOM     11  S1  UNL     1      15.728   6.869  15.003  0.00  0.00    +0.000 S 
ATOM     12  C15 UNL     1      16.882   6.243  16.106  0.00  0.00    +0.000 A 
ATOM     13  N4  UNL     1      18.126   6.624  15.922  0.00  0.00    +0.000 NA
ENDBRANCH   8   9
ENDBRANCH   5   8
ENDBRANCH   1   2
BRANCH   1  15
ATOM     14  N1  UNL     1      19.129   4.861   9.437  0.00  0.00    +0.000 N 
ATOM     15  C9  UNL     1      19.495   6.122   9.011  0.00  0.00    +0.000 C 
ATOM     16  O1  UNL     1      18.936   6.728   8.101  0.00  0.00    +0.000 OA
ATOM     17  H10 UNL     1      19.384   4.640  10.402  0.00  0.00    +0.000 HD
BRANCH  14  18
ATOM     18  C8  UNL     1      17.977   4.189   8.871  0.00  0.00    +0.000 C 
BRANCH  18  19
ATOM     19  C7  UNL     1      17.186   3.389   9.908  0.00  0.00    +0.000 C 
BRANCH  19  25
ATOM     20  C1  UNL     1      16.447   1.753   8.127  0.00  0.00    +0.000 A 
ATOM     21  C2  UNL     1      15.488   0.913   7.558  0.00  0.00    +0.000 A 
ATOM     22  C3  UNL     1      14.231   0.784   8.148  0.00  0.00    +0.000 A 
ATOM     23  C4  UNL     1      13.931   1.498   9.308  0.00  0.00    +0.000 A 
ATOM     24  C5  UNL     1      14.887   2.339   9.880  0.00  0.00    +0.000 A 
ATOM     25  C6  UNL     1      16.155   2.472   9.296  0.00  0.00    +0.000 A 
ENDBRANCH  19  25
ENDBRANCH  18  19
ENDBRANCH  14  18
ENDBRANCH   1  15
TORSDOF 7
ENDMDL
MODEL 5
REMARK VINA RESULT:    -5.214      3.730      8.033
REMARK INTER + INTRA:          -7.958
REMARK INTER:                  -7.406
REMARK INTRA:                  -0.552
REMARK UNBOUND:                -0.610
REMARK  Name = /home/anacleto/Desktop/manuscript_Mpro/naturecomm/supplementary_file_S2/6-chemical-library/molecular_docking/3D_ligand_structure/413.pdb
REMARK  7 active torsions:
REMARK  status: ('A' for Active; 'I' for Inactive)
REMARK    1  A    between atoms: C6_6  and  C7_7
REMARK    2  A    between atoms: C7_7  and  C8_8
REMARK    3  A    between atoms: C8_8  and  N1_9
REMARK    4  A    between atoms: C9_10  and  C10_12
REMARK    5  A    between atoms: C10_12  and  N2_13
REMARK    6  A    between atoms: N3_16  and  C12_17
REMARK    7  A    between atoms: C12_17  and  C13_18
REMARK                            x       y       z     vdW  Elec       q    Type
REMARK                         _______ _______ _______ _____ _____    ______ ____
ROOT
ATOM      1  C10 UNL     1      13.065  18.829  -2.515  0.00  0.00    +0.000 C 
ENDROOT
BRANCH   1   2
ATOM      2  N2  UNL     1      11.838  19.135  -3.226  0.00  0.00    +0.000 N 
ATOM      3  C11 UNL     1      11.860  20.001  -4.283  0.00  0.00    +0.000 C 
ATOM      4  O2  UNL     1      12.889  20.498  -4.727  0.00  0.00    +0.000 OA
ATOM      5  N3  UNL     1      10.621  20.227  -4.796  0.00  0.00    +0.000 N 
ATOM      6  H13 UNL     1      10.986  19.105  -2.683  0.00  0.00    +0.000 HD
ATOM      7  H14 UNL     1       9.808  20.034  -4.225  0.00  0.00    +0.000 HD
BRANCH   5   8
ATOM      8  C12 UNL     1      10.421  21.207  -5.836  0.00  0.00    +0.000 C 
BRANCH   8   9
ATOM      9  C13 UNL     1      10.494  20.517  -7.162  0.00  0.00    +0.000 A 
ATOM     10  C14 UNL     1      11.505  20.640  -8.096  0.00  0.00    +0.000 A 
ATOM     11  S1  UNL     1      11.169  19.669  -9.469  0.00  0.00    +0.000 S 
ATOM     12  C15 UNL     1       9.710  19.159  -8.727  0.00  0.00    +0.000 A 
ATOM     13  N4  UNL     1       9.459  19.659  -7.538  0.00  0.00    +0.000 NA
ENDBRANCH   8   9
ENDBRANCH   5   8
ENDBRANCH   1   2
BRANCH   1  15
ATOM     14  N1  UNL     1      14.028  16.596  -2.463  0.00  0.00    +0.000 N 
ATOM     15  C9  UNL     1      13.004  17.393  -1.993  0.00  0.00    +0.000 C 
ATOM     16  O1  UNL     1      12.173  17.026  -1.166  0.00  0.00    +0.000 OA
ATOM     17  H10 UNL     1      14.843  17.102  -2.816  0.00  0.00    +0.000 HD
BRANCH  14  18
ATOM     18  C8  UNL     1      14.236  15.262  -1.936  0.00  0.00    +0.000 C 
BRANCH  18  19
ATOM     19  C7  UNL     1      15.712  14.861  -1.901  0.00  0.00    +0.000 C 
BRANCH  19  25
ATOM     20  C1  UNL     1      17.473  16.613  -1.426  0.00  0.00    +0.000 A 
ATOM     21  C2  UNL     1      18.239  17.371  -0.537  0.00  0.00    +0.000 A 
ATOM     22  C3  UNL     1      18.075  17.213   0.838  0.00  0.00    +0.000 A 
ATOM     23  C4  UNL     1      17.147  16.295   1.328  0.00  0.00    +0.000 A 
ATOM     24  C5  UNL     1      16.380  15.536   0.442  0.00  0.00    +0.000 A 
ATOM     25  C6  UNL     1      16.534  15.689  -0.943  0.00  0.00    +0.000 A 
ENDBRANCH  19  25
ENDBRANCH  18  19
ENDBRANCH  14  18
ENDBRANCH   1  15
TORSDOF 7
ENDMDL
MODEL 6
REMARK VINA RESULT:    -5.198     18.911     20.732
REMARK INTER + INTRA:          -7.935
REMARK INTER:                  -7.221
REMARK INTRA:                  -0.714
REMARK UNBOUND:                -0.610
REMARK  Name = /home/anacleto/Desktop/manuscript_Mpro/naturecomm/supplementary_file_S2/6-chemical-library/molecular_docking/3D_ligand_structure/413.pdb
REMARK  7 active torsions:
REMARK  status: ('A' for Active; 'I' for Inactive)
REMARK    1  A    between atoms: C6_6  and  C7_7
REMARK    2  A    between atoms: C7_7  and  C8_8
REMARK    3  A    between atoms: C8_8  and  N1_9
REMARK    4  A    between atoms: C9_10  and  C10_12
REMARK    5  A    between atoms: C10_12  and  N2_13
REMARK    6  A    between atoms: N3_16  and  C12_17
REMARK    7  A    between atoms: C12_17  and  C13_18
REMARK                            x       y       z     vdW  Elec       q    Type
REMARK                         _______ _______ _______ _____ _____    ______ ____
ROOT
ATOM      1  C10 UNL     1      15.893   5.369  14.313  0.00  0.00    +0.000 C 
ENDROOT
BRANCH   1   2
ATOM      2  N2  UNL     1      15.864   4.605  13.080  0.00  0.00    +0.000 N 
ATOM      3  C11 UNL     1      14.672   4.154  12.585  0.00  0.00    +0.000 C 
ATOM      4  O2  UNL     1      13.588   4.417  13.092  0.00  0.00    +0.000 OA
ATOM      5  N3  UNL     1      14.827   3.404  11.461  0.00  0.00    +0.000 N 
ATOM      6  H13 UNL     1      16.679   4.041  12.883  0.00  0.00    +0.000 HD
ATOM      7  H14 UNL     1      15.728   2.986  11.267  0.00  0.00    +0.000 HD
BRANCH   5   8
ATOM      8  C12 UNL     1      13.698   2.735  10.861  0.00  0.00    +0.000 C 
BRANCH   8   9
ATOM      9  C13 UNL     1      14.193   1.885   9.733  0.00  0.00    +0.000 A 
ATOM     10  C14 UNL     1      13.690   0.655   9.351  0.00  0.00    +0.000 A 
ATOM     11  S1  UNL     1      14.566   0.043   8.010  0.00  0.00    +0.000 S 
ATOM     12  C15 UNL     1      15.548   1.449   8.035  0.00  0.00    +0.000 A 
ATOM     13  N4  UNL     1      15.269   2.334   8.966  0.00  0.00    +0.000 NA
ENDBRANCH   8   9
ENDBRANCH   5   8
ENDBRANCH   1   2
BRANCH   1  15
ATOM     14  N1  UNL     1      17.757   6.461  13.194  0.00  0.00    +0.000 N 
ATOM     15  C9  UNL     1      16.738   6.627  14.110  0.00  0.00    +0.000 C 
ATOM     16  O1  UNL     1      16.466   7.698  14.648  0.00  0.00    +0.000 OA
ATOM     17  H10 UNL     1      17.637   5.675  12.552  0.00  0.00    +0.000 HD
BRANCH  14  18
ATOM     18  C8  UNL     1      18.542   7.591  12.740  0.00  0.00    +0.000 C 
BRANCH  18  19
ATOM     19  C7  UNL     1      19.871   7.175  12.106  0.00  0.00    +0.000 C 
BRANCH  19  25
ATOM     20  C1  UNL     1      19.466   7.586   9.644  0.00  0.00    +0.000 A 
ATOM     21  C2  UNL     1      19.324   7.128   8.333  0.00  0.00    +0.000 A 
ATOM     22  C3  UNL     1      19.439   5.767   8.050  0.00  0.00    +0.000 A 
ATOM     23  C4  UNL     1      19.695   4.862   9.080  0.00  0.00    +0.000 A 
ATOM     24  C5  UNL     1      19.837   5.317  10.392  0.00  0.00    +0.000 A 
ATOM     25  C6  UNL     1      19.727   6.684  10.686  0.00  0.00    +0.000 A 
ENDBRANCH  19  25
ENDBRANCH  18  19
ENDBRANCH  14  18
ENDBRANCH   1  15
TORSDOF 7
ENDMDL
MODEL 7
REMARK VINA RESULT:    -5.182     19.919     21.839
REMARK INTER + INTRA:          -7.912
REMARK INTER:                  -7.302
REMARK INTRA:                  -0.610
REMARK UNBOUND:                -0.610
REMARK  Name = /home/anacleto/Desktop/manuscript_Mpro/naturecomm/supplementary_file_S2/6-chemical-library/molecular_docking/3D_ligand_structure/413.pdb
REMARK  7 active torsions:
REMARK  status: ('A' for Active; 'I' for Inactive)
REMARK    1  A    between atoms: C6_6  and  C7_7
REMARK    2  A    between atoms: C7_7  and  C8_8
REMARK    3  A    between atoms: C8_8  and  N1_9
REMARK    4  A    between atoms: C9_10  and  C10_12
REMARK    5  A    between atoms: C10_12  and  N2_13
REMARK    6  A    between atoms: N3_16  and  C12_17
REMARK    7  A    between atoms: C12_17  and  C13_18
REMARK                            x       y       z     vdW  Elec       q    Type
REMARK                         _______ _______ _______ _____ _____    ______ ____
ROOT
ATOM      1  C10 UNL     1      19.536   5.630   9.082  0.00  0.00    +0.000 C 
ENDROOT
BRANCH   1   2
ATOM      2  N2  UNL     1      19.119   6.670  10.003  0.00  0.00    +0.000 N 
ATOM      3  C11 UNL     1      19.741   6.798  11.214  0.00  0.00    +0.000 C 
ATOM      4  O2  UNL     1      20.701   6.116  11.555  0.00  0.00    +0.000 OA
ATOM      5  N3  UNL     1      19.190   7.778  11.980  0.00  0.00    +0.000 N 
ATOM      6  H13 UNL     1      18.147   6.941   9.962  0.00  0.00    +0.000 HD
ATOM      7  H14 UNL     1      18.249   8.091  11.778  0.00  0.00    +0.000 HD
BRANCH   5   8
ATOM      8  C12 UNL     1      19.626   7.982  13.340  0.00  0.00    +0.000 C 
BRANCH   8   9
ATOM      9  C13 UNL     1      18.553   7.498  14.262  0.00  0.00    +0.000 A 
ATOM     10  C14 UNL     1      18.735   6.764  15.419  0.00  0.00    +0.000 A 
ATOM     11  S1  UNL     1      17.223   6.427  16.156  0.00  0.00    +0.000 S 
ATOM     12  C15 UNL     1      16.439   7.275  14.889  0.00  0.00    +0.000 A 
ATOM     13  N4  UNL     1      17.220   7.787  13.964  0.00  0.00    +0.000 NA
ENDBRANCH   8   9
ENDBRANCH   5   8
ENDBRANCH   1   2
BRANCH   1  15
ATOM     14  N1  UNL     1      17.577   4.317   8.485  0.00  0.00    +0.000 N 
ATOM     15  C9  UNL     1      18.683   4.381   9.308  0.00  0.00    +0.000 C 
ATOM     16  O1  UNL     1      19.013   3.489  10.085  0.00  0.00    +0.000 OA
ATOM     17  H10 UNL     1      17.628   4.899   7.646  0.00  0.00    +0.000 HD
BRANCH  14  18
ATOM     18  C8  UNL     1      16.758   3.123   8.430  0.00  0.00    +0.000 C 
BRANCH  18  19
ATOM     19  C7  UNL     1      15.708   3.072   9.542  0.00  0.00    +0.000 C 
BRANCH  19  25
ATOM     20  C1  UNL     1      13.539   1.918  10.141  0.00  0.00    +0.000 A 
ATOM     21  C2  UNL     1      12.624   0.874   9.989  0.00  0.00    +0.000 A 
ATOM     22  C3  UNL     1      12.873  -0.147   9.072  0.00  0.00    +0.000 A 
ATOM     23  C4  UNL     1      14.038  -0.125   8.306  0.00  0.00    +0.000 A 
ATOM     24  C5  UNL     1      14.955   0.917   8.456  0.00  0.00    +0.000 A 
ATOM     25  C6  UNL     1      14.712   1.950   9.373  0.00  0.00    +0.000 A 
ENDBRANCH  19  25
ENDBRANCH  18  19
ENDBRANCH  14  18
ENDBRANCH   1  15
TORSDOF 7
ENDMDL
MODEL 8
REMARK VINA RESULT:    -5.176      4.270      9.253
REMARK INTER + INTRA:          -7.905
REMARK INTER:                  -7.358
REMARK INTRA:                  -0.547
REMARK UNBOUND:                -0.610
REMARK  Name = /home/anacleto/Desktop/manuscript_Mpro/naturecomm/supplementary_file_S2/6-chemical-library/molecular_docking/3D_ligand_structure/413.pdb
REMARK  7 active torsions:
REMARK  status: ('A' for Active; 'I' for Inactive)
REMARK    1  A    between atoms: C6_6  and  C7_7
REMARK    2  A    between atoms: C7_7  and  C8_8
REMARK    3  A    between atoms: C8_8  and  N1_9
REMARK    4  A    between atoms: C9_10  and  C10_12
REMARK    5  A    between atoms: C10_12  and  N2_13
REMARK    6  A    between atoms: N3_16  and  C12_17
REMARK    7  A    between atoms: C12_17  and  C13_18
REMARK                            x       y       z     vdW  Elec       q    Type
REMARK                         _______ _______ _______ _____ _____    ______ ____
ROOT
ATOM      1  C10 UNL     1      13.225  18.840  -2.444  0.00  0.00    +0.000 C 
ENDROOT
BRANCH   1   2
ATOM      2  N2  UNL     1      11.948  19.330  -2.929  0.00  0.00    +0.000 N 
ATOM      3  C11 UNL     1      11.910  20.287  -3.903  0.00  0.00    +0.000 C 
ATOM      4  O2  UNL     1      12.911  20.724  -4.460  0.00  0.00    +0.000 OA
ATOM      5  N3  UNL     1      10.641  20.679  -4.198  0.00  0.00    +0.000 N 
ATOM      6  H13 UNL     1      11.187  19.329  -2.264  0.00  0.00    +0.000 HD
ATOM      7  H14 UNL     1       9.905  20.511  -3.524  0.00  0.00    +0.000 HD
BRANCH   5   8
ATOM      8  C12 UNL     1      10.401  21.770  -5.111  0.00  0.00    +0.000 C 
BRANCH   8   9
ATOM      9  C13 UNL     1       9.992  22.972  -4.320  0.00  0.00    +0.000 A 
ATOM     10  C14 UNL     1       8.713  23.485  -4.209  0.00  0.00    +0.000 A 
ATOM     11  S1  UNL     1       8.713  24.874  -3.202  0.00  0.00    +0.000 S 
ATOM     12  C15 UNL     1      10.405  24.697  -2.991  0.00  0.00    +0.000 A 
ATOM     13  N4  UNL     1      10.964  23.683  -3.613  0.00  0.00    +0.000 NA
ENDBRANCH   8   9
ENDBRANCH   5   8
ENDBRANCH   1   2
BRANCH   1  15
ATOM     14  N1  UNL     1      14.093  16.568  -2.450  0.00  0.00    +0.000 N 
ATOM     15  C9  UNL     1      13.075  17.385  -2.001  0.00  0.00    +0.000 C 
ATOM     16  O1  UNL     1      12.181  17.015  -1.244  0.00  0.00    +0.000 OA
ATOM     17  H10 UNL     1      14.947  17.054  -2.728  0.00  0.00    +0.000 HD
BRANCH  14  18
ATOM     18  C8  UNL     1      14.215  15.202  -1.979  0.00  0.00    +0.000 C 
BRANCH  18  19
ATOM     19  C7  UNL     1      15.663  14.711  -1.952  0.00  0.00    +0.000 C 
BRANCH  19  25
ATOM     20  C1  UNL     1      17.635  16.252  -1.592  0.00  0.00    +0.000 A 
ATOM     21  C2  UNL     1      18.465  17.005  -0.759  0.00  0.00    +0.000 A 
ATOM     22  C3  UNL     1      18.227  17.046   0.614  0.00  0.00    +0.000 A 
ATOM     23  C4  UNL     1      17.159  16.333   1.157  0.00  0.00    +0.000 A 
ATOM     24  C5  UNL     1      16.327  15.579   0.327  0.00  0.00    +0.000 A 
ATOM     25  C6  UNL     1      16.556  15.534  -1.055  0.00  0.00    +0.000 A 
ENDBRANCH  19  25
ENDBRANCH  18  19
ENDBRANCH  14  18
ENDBRANCH   1  15
TORSDOF 7
ENDMDL
MODEL 9
REMARK VINA RESULT:    -5.176      7.985      9.775
REMARK INTER + INTRA:          -7.904
REMARK INTER:                  -7.167
REMARK INTRA:                  -0.737
REMARK UNBOUND:                -0.610
REMARK  Name = /home/anacleto/Desktop/manuscript_Mpro/naturecomm/supplementary_file_S2/6-chemical-library/molecular_docking/3D_ligand_structure/413.pdb
REMARK  7 active torsions:
REMARK  status: ('A' for Active; 'I' for Inactive)
REMARK    1  A    between atoms: C6_6  and  C7_7
REMARK    2  A    between atoms: C7_7  and  C8_8
REMARK    3  A    between atoms: C8_8  and  N1_9
REMARK    4  A    between atoms: C9_10  and  C10_12
REMARK    5  A    between atoms: C10_12  and  N2_13
REMARK    6  A    between atoms: N3_16  and  C12_17
REMARK    7  A    between atoms: C12_17  and  C13_18
REMARK                            x       y       z     vdW  Elec       q    Type
REMARK                         _______ _______ _______ _____ _____    ______ ____
ROOT
ATOM      1  C10 UNL     1      16.128  10.761  -3.937  0.00  0.00    +0.000 C 
ENDROOT
BRANCH   1   2
ATOM      2  N2  UNL     1      17.240   9.894  -4.277  0.00  0.00    +0.000 N 
ATOM      3  C11 UNL     1      18.361  10.418  -4.859  0.00  0.00    +0.000 C 
ATOM      4  O2  UNL     1      18.520  11.617  -5.057  0.00  0.00    +0.000 OA
ATOM      5  N3  UNL     1      19.279   9.465  -5.170  0.00  0.00    +0.000 N 
ATOM      6  H13 UNL     1      17.008   8.941  -4.520  0.00  0.00    +0.000 HD
ATOM      7  H14 UNL     1      18.981   8.502  -5.257  0.00  0.00    +0.000 HD
BRANCH   5   8
ATOM      8  C12 UNL     1      20.474   9.804  -5.904  0.00  0.00    +0.000 C 
BRANCH   8   9
ATOM      9  C13 UNL     1      21.608   8.984  -5.375  0.00  0.00    +0.000 A 
ATOM     10  C14 UNL     1      22.944   9.340  -5.365  0.00  0.00    +0.000 A 
ATOM     11  S1  UNL     1      23.888   8.092  -4.665  0.00  0.00    +0.000 S 
ATOM     12  C15 UNL     1      22.461   7.171  -4.430  0.00  0.00    +0.000 A 
ATOM     13  N4  UNL     1      21.340   7.725  -4.833  0.00  0.00    +0.000 NA
ENDBRANCH   8   9
ENDBRANCH   5   8
ENDBRANCH   1   2
BRANCH   1  15
ATOM     14  N1  UNL     1      16.849  12.557  -2.463  0.00  0.00    +0.000 N 
ATOM     15  C9  UNL     1      16.312  11.286  -2.513  0.00  0.00    +0.000 C 
ATOM     16  O1  UNL     1      15.929  10.664  -1.526  0.00  0.00    +0.000 OA
ATOM     17  H10 UNL     1      16.761  13.098  -3.326  0.00  0.00    +0.000 HD
BRANCH  14  18
ATOM     18  C8  UNL     1      16.925  13.285  -1.213  0.00  0.00    +0.000 C 
BRANCH  18  19
ATOM     19  C7  UNL     1      18.263  13.095  -0.495  0.00  0.00    +0.000 C 
BRANCH  19  25
ATOM     20  C1  UNL     1      20.267  14.391   0.342  0.00  0.00    +0.000 A 
ATOM     21  C2  UNL     1      20.921  15.594   0.614  0.00  0.00    +0.000 A 
ATOM     22  C3  UNL     1      20.294  16.809   0.343  0.00  0.00    +0.000 A 
ATOM     23  C4  UNL     1      19.010  16.823  -0.201  0.00  0.00    +0.000 A 
ATOM     24  C5  UNL     1      18.353  15.622  -0.475  0.00  0.00    +0.000 A 
ATOM     25  C6  UNL     1      18.976  14.395  -0.209  0.00  0.00    +0.000 A 
ENDBRANCH  19  25
ENDBRANCH  18  19
ENDBRANCH  14  18
ENDBRANCH   1  15
TORSDOF 7
ENDMDL
