MODEL 1
REMARK VINA RESULT:    -4.421      0.000      0.000
REMARK INTER + INTRA:          -5.150
REMARK INTER:                  -4.920
REMARK INTRA:                  -0.230
REMARK UNBOUND:                -0.212
REMARK  Name = /home/anacleto/Desktop/manuscript_Mpro/naturecomm/supplementary_file_S2/6-chemical-library/molecular_docking/3D_ligand_structure/907.pdb
REMARK  2 active torsions:
REMARK  status: ('A' for Active; 'I' for Inactive)
REMARK    1  A    between atoms: C3_5  and  C4_6
REMARK    2  A    between atoms: N2_8  and  C5_9
REMARK                            x       y       z     vdW  Elec       q    Type
REMARK                         _______ _______ _______ _____ _____    ______ ____
ROOT
ATOM      1  C4  UNL     1     -38.398   4.871 -13.563  0.00  0.00    +0.000 C 
ATOM      2  O2  UNL     1     -38.843   4.935 -12.421  0.00  0.00    +0.000 OA
ATOM      3  N2  UNL     1     -37.996   6.000 -14.259  0.00  0.00    +0.000 N 
ATOM      4  H3  UNL     1     -37.399   5.873 -15.062  0.00  0.00    +0.000 HD
ENDROOT
BRANCH   3   5
ATOM      5  C5  UNL     1     -37.960   7.310 -13.603  0.00  0.00    +0.000 C 
ATOM      6  C6  UNL     1     -39.036   8.235 -14.193  0.00  0.00    +0.000 C 
ATOM      7  C7  UNL     1     -38.480   9.225 -15.219  0.00  0.00    +0.000 C 
ATOM      8  C8  UNL     1     -37.285   8.657 -15.980  0.00  0.00    +0.000 C 
ATOM      9  N3  UNL     1     -36.176   8.276 -15.109  0.00  0.00    +0.000 NA
ATOM     10  C9  UNL     1     -36.566   7.958 -13.727  0.00  0.00    +0.000 C 
ATOM     11  H11 UNL     1     -35.659   7.496 -15.514  0.00  0.00    +0.000 HD
ENDBRANCH   3   5
BRANCH   1  16
ATOM     12  N1  UNL     1     -37.541   3.485 -15.474  0.00  0.00    +0.000 NA
ATOM     13  C1  UNL     1     -37.615   2.206 -15.760  0.00  0.00    +0.000 A 
ATOM     14  O1  UNL     1     -38.296   1.454 -14.855  0.00  0.00    +0.000 OA
ATOM     15  C2  UNL     1     -38.681   2.353 -13.907  0.00  0.00    +0.000 A 
ATOM     16  C3  UNL     1     -38.230   3.604 -14.275  0.00  0.00    +0.000 A 
ENDBRANCH   1  16
TORSDOF 2
ENDMDL
MODEL 2
REMARK VINA RESULT:    -4.233     18.545     19.461
REMARK INTER + INTRA:          -4.940
REMARK INTER:                  -4.709
REMARK INTRA:                  -0.231
REMARK UNBOUND:                -0.212
REMARK  Name = /home/anacleto/Desktop/manuscript_Mpro/naturecomm/supplementary_file_S2/6-chemical-library/molecular_docking/3D_ligand_structure/907.pdb
REMARK  2 active torsions:
REMARK  status: ('A' for Active; 'I' for Inactive)
REMARK    1  A    between atoms: C3_5  and  C4_6
REMARK    2  A    between atoms: N2_8  and  C5_9
REMARK                            x       y       z     vdW  Elec       q    Type
REMARK                         _______ _______ _______ _____ _____    ______ ____
ROOT
ATOM      1  C4  UNL     1     -26.409  -4.774 -26.137  0.00  0.00    +0.000 C 
ATOM      2  O2  UNL     1     -26.235  -4.214 -27.215  0.00  0.00    +0.000 OA
ATOM      3  N2  UNL     1     -25.447  -4.760 -25.139  0.00  0.00    +0.000 N 
ATOM      4  H3  UNL     1     -25.736  -4.990 -24.200  0.00  0.00    +0.000 HD
ENDROOT
BRANCH   3   5
ATOM      5  C5  UNL     1     -24.231  -3.955 -25.283  0.00  0.00    +0.000 C 
ATOM      6  C6  UNL     1     -22.982  -4.835 -25.115  0.00  0.00    +0.000 C 
ATOM      7  C7  UNL     1     -22.357  -4.730 -23.721  0.00  0.00    +0.000 C 
ATOM      8  C8  UNL     1     -23.399  -4.454 -22.641  0.00  0.00    +0.000 C 
ATOM      9  N3  UNL     1     -24.151  -3.221 -22.866  0.00  0.00    +0.000 NA
ATOM     10  C9  UNL     1     -24.210  -2.791 -24.271  0.00  0.00    +0.000 C 
ATOM     11  H11 UNL     1     -25.093  -3.307 -22.487  0.00  0.00    +0.000 HD
ENDBRANCH   3   5
BRANCH   1  16
ATOM     12  N1  UNL     1     -28.788  -5.437 -26.590  0.00  0.00    +0.000 NA
ATOM     13  C1  UNL     1     -29.645  -6.198 -25.952  0.00  0.00    +0.000 A 
ATOM     14  O1  UNL     1     -29.178  -6.748 -24.800  0.00  0.00    +0.000 OA
ATOM     15  C2  UNL     1     -27.898  -6.289 -24.715  0.00  0.00    +0.000 A 
ATOM     16  C3  UNL     1     -27.647  -5.479 -25.803  0.00  0.00    +0.000 A 
ENDBRANCH   1  16
TORSDOF 2
ENDMDL
MODEL 3
REMARK VINA RESULT:    -4.199     21.144     23.424
REMARK INTER + INTRA:          -4.902
REMARK INTER:                  -4.714
REMARK INTRA:                  -0.188
REMARK UNBOUND:                -0.212
REMARK  Name = /home/anacleto/Desktop/manuscript_Mpro/naturecomm/supplementary_file_S2/6-chemical-library/molecular_docking/3D_ligand_structure/907.pdb
REMARK  2 active torsions:
REMARK  status: ('A' for Active; 'I' for Inactive)
REMARK    1  A    between atoms: C3_5  and  C4_6
REMARK    2  A    between atoms: N2_8  and  C5_9
REMARK                            x       y       z     vdW  Elec       q    Type
REMARK                         _______ _______ _______ _____ _____    ______ ____
ROOT
ATOM      1  C4  UNL     1     -22.589  -3.768 -27.655  0.00  0.00    +0.000 C 
ATOM      2  O2  UNL     1     -22.662  -2.935 -28.553  0.00  0.00    +0.000 OA
ATOM      3  N2  UNL     1     -21.429  -4.487 -27.413  0.00  0.00    +0.000 N 
ATOM      4  H3  UNL     1     -21.334  -4.944 -26.519  0.00  0.00    +0.000 HD
ENDROOT
BRANCH   3   5
ATOM      5  C5  UNL     1     -20.193  -4.180 -28.138  0.00  0.00    +0.000 C 
ATOM      6  C6  UNL     1     -20.105  -5.015 -29.425  0.00  0.00    +0.000 C 
ATOM      7  C7  UNL     1     -19.197  -6.240 -29.286  0.00  0.00    +0.000 C 
ATOM      8  C8  UNL     1     -19.196  -6.798 -27.865  0.00  0.00    +0.000 C 
ATOM      9  N3  UNL     1     -18.760  -5.827 -26.864  0.00  0.00    +0.000 NA
ATOM     10  C9  UNL     1     -18.952  -4.422 -27.254  0.00  0.00    +0.000 C 
ATOM     11  H11 UNL     1     -19.218  -6.008 -25.972  0.00  0.00    +0.000 HD
ENDBRANCH   3   5
BRANCH   1  16
ATOM     12  N1  UNL     1     -23.563  -4.182 -25.378  0.00  0.00    +0.000 NA
ATOM     13  C1  UNL     1     -24.780  -4.424 -24.952  0.00  0.00    +0.000 A 
ATOM     14  O1  UNL     1     -25.729  -4.471 -25.923  0.00  0.00    +0.000 OA
ATOM     15  C2  UNL     1     -25.035  -4.229 -27.070  0.00  0.00    +0.000 A 
ATOM     16  C3  UNL     1     -23.703  -4.056 -26.752  0.00  0.00    +0.000 A 
ENDBRANCH   1  16
TORSDOF 2
ENDMDL
MODEL 4
REMARK VINA RESULT:    -4.135     20.413     22.695
REMARK INTER + INTRA:          -4.831
REMARK INTER:                  -4.595
REMARK INTRA:                  -0.236
REMARK UNBOUND:                -0.212
REMARK  Name = /home/anacleto/Desktop/manuscript_Mpro/naturecomm/supplementary_file_S2/6-chemical-library/molecular_docking/3D_ligand_structure/907.pdb
REMARK  2 active torsions:
REMARK  status: ('A' for Active; 'I' for Inactive)
REMARK    1  A    between atoms: C3_5  and  C4_6
REMARK    2  A    between atoms: N2_8  and  C5_9
REMARK                            x       y       z     vdW  Elec       q    Type
REMARK                         _______ _______ _______ _____ _____    ______ ____
ROOT
ATOM      1  C4  UNL     1     -23.121  -4.310 -26.326  0.00  0.00    +0.000 C 
ATOM      2  O2  UNL     1     -23.912  -4.050 -27.227  0.00  0.00    +0.000 OA
ATOM      3  N2  UNL     1     -21.882  -4.879 -26.577  0.00  0.00    +0.000 N 
ATOM      4  H3  UNL     1     -21.180  -4.820 -25.856  0.00  0.00    +0.000 HD
ENDROOT
BRANCH   3   5
ATOM      5  C5  UNL     1     -21.411  -5.068 -27.952  0.00  0.00    +0.000 C 
ATOM      6  C6  UNL     1     -20.578  -6.354 -28.062  0.00  0.00    +0.000 C 
ATOM      7  C7  UNL     1     -19.069  -6.095 -28.048  0.00  0.00    +0.000 C 
ATOM      8  C8  UNL     1     -18.702  -4.869 -27.218  0.00  0.00    +0.000 C 
ATOM      9  N3  UNL     1     -19.342  -3.642 -27.686  0.00  0.00    +0.000 NA
ATOM     10  C9  UNL     1     -20.592  -3.852 -28.433  0.00  0.00    +0.000 C 
ATOM     11  H11 UNL     1     -19.503  -3.006 -26.906  0.00  0.00    +0.000 HD
ENDBRANCH   3   5
BRANCH   1  16
ATOM     12  N1  UNL     1     -22.745  -4.637 -23.865  0.00  0.00    +0.000 NA
ATOM     13  C1  UNL     1     -23.279  -4.097 -22.795  0.00  0.00    +0.000 A 
ATOM     14  O1  UNL     1     -24.241  -3.169 -23.040  0.00  0.00    +0.000 OA
ATOM     15  C2  UNL     1     -24.311  -3.122 -24.399  0.00  0.00    +0.000 A 
ATOM     16  C3  UNL     1     -23.403  -4.022 -24.919  0.00  0.00    +0.000 A 
ENDBRANCH   1  16
TORSDOF 2
ENDMDL
MODEL 5
REMARK VINA RESULT:    -4.057     19.340     20.618
REMARK INTER + INTRA:          -4.743
REMARK INTER:                  -4.521
REMARK INTRA:                  -0.223
REMARK UNBOUND:                -0.212
REMARK  Name = /home/anacleto/Desktop/manuscript_Mpro/naturecomm/supplementary_file_S2/6-chemical-library/molecular_docking/3D_ligand_structure/907.pdb
REMARK  2 active torsions:
REMARK  status: ('A' for Active; 'I' for Inactive)
REMARK    1  A    between atoms: C3_5  and  C4_6
REMARK    2  A    between atoms: N2_8  and  C5_9
REMARK                            x       y       z     vdW  Elec       q    Type
REMARK                         _______ _______ _______ _____ _____    ______ ____
ROOT
ATOM      1  C4  UNL     1     -25.348  -4.948 -24.921  0.00  0.00    +0.000 C 
ATOM      2  O2  UNL     1     -26.331  -5.628 -24.644  0.00  0.00    +0.000 OA
ATOM      3  N2  UNL     1     -25.057  -4.575 -26.224  0.00  0.00    +0.000 N 
ATOM      4  H3  UNL     1     -24.414  -3.810 -26.364  0.00  0.00    +0.000 HD
ENDROOT
BRANCH   3   5
ATOM      5  C5  UNL     1     -25.993  -4.866 -27.312  0.00  0.00    +0.000 C 
ATOM      6  C6  UNL     1     -25.499  -6.063 -28.140  0.00  0.00    +0.000 C 
ATOM      7  C7  UNL     1     -24.804  -5.648 -29.440  0.00  0.00    +0.000 C 
ATOM      8  C8  UNL     1     -24.091  -4.306 -29.310  0.00  0.00    +0.000 C 
ATOM      9  N3  UNL     1     -24.984  -3.212 -28.935  0.00  0.00    +0.000 NA
ATOM     10  C9  UNL     1     -26.197  -3.633 -28.218  0.00  0.00    +0.000 C 
ATOM     11  H11 UNL     1     -24.480  -2.514 -28.390  0.00  0.00    +0.000 HD
ENDBRANCH   3   5
BRANCH   1  16
ATOM     12  N1  UNL     1     -23.893  -5.249 -22.897  0.00  0.00    +0.000 NA
ATOM     13  C1  UNL     1     -23.110  -4.438 -22.225  0.00  0.00    +0.000 A 
ATOM     14  O1  UNL     1     -23.064  -3.164 -22.696  0.00  0.00    +0.000 OA
ATOM     15  C2  UNL     1     -23.896  -3.183 -23.774  0.00  0.00    +0.000 A 
ATOM     16  C3  UNL     1     -24.417  -4.454 -23.906  0.00  0.00    +0.000 A 
ENDBRANCH   1  16
TORSDOF 2
ENDMDL
MODEL 6
REMARK VINA RESULT:    -3.992      2.662      6.564
REMARK INTER + INTRA:          -4.670
REMARK INTER:                  -4.458
REMARK INTRA:                  -0.212
REMARK UNBOUND:                -0.212
REMARK  Name = /home/anacleto/Desktop/manuscript_Mpro/naturecomm/supplementary_file_S2/6-chemical-library/molecular_docking/3D_ligand_structure/907.pdb
REMARK  2 active torsions:
REMARK  status: ('A' for Active; 'I' for Inactive)
REMARK    1  A    between atoms: C3_5  and  C4_6
REMARK    2  A    between atoms: N2_8  and  C5_9
REMARK                            x       y       z     vdW  Elec       q    Type
REMARK                         _______ _______ _______ _____ _____    ______ ____
ROOT
ATOM      1  C4  UNL     1     -38.220   1.774 -15.369  0.00  0.00    +0.000 C 
ATOM      2  O2  UNL     1     -39.083   0.999 -14.967  0.00  0.00    +0.000 OA
ATOM      3  N2  UNL     1     -37.357   1.441 -16.401  0.00  0.00    +0.000 N 
ATOM      4  H3  UNL     1     -36.864   2.189 -16.865  0.00  0.00    +0.000 HD
ENDROOT
BRANCH   3   5
ATOM      5  C5  UNL     1     -37.532   0.194 -17.150  0.00  0.00    +0.000 C 
ATOM      6  C6  UNL     1     -36.652  -0.917 -16.556  0.00  0.00    +0.000 C 
ATOM      7  C7  UNL     1     -35.358  -1.143 -17.343  0.00  0.00    +0.000 C 
ATOM      8  C8  UNL     1     -34.848   0.139 -17.994  0.00  0.00    +0.000 C 
ATOM      9  N3  UNL     1     -35.809   0.740 -18.917  0.00  0.00    +0.000 NA
ATOM     10  C9  UNL     1     -37.213   0.393 -18.647  0.00  0.00    +0.000 C 
ATOM     11  H11 UNL     1     -35.697   1.753 -18.935  0.00  0.00    +0.000 HD
ENDBRANCH   3   5
BRANCH   1  16
ATOM     12  N1  UNL     1     -37.280   4.102 -15.421  0.00  0.00    +0.000 NA
ATOM     13  C1  UNL     1     -37.392   5.134 -14.619  0.00  0.00    +0.000 A 
ATOM     14  O1  UNL     1     -38.166   4.926 -13.521  0.00  0.00    +0.000 OA
ATOM     15  C2  UNL     1     -38.583   3.637 -13.655  0.00  0.00    +0.000 A 
ATOM     16  C3  UNL     1     -38.042   3.116 -14.813  0.00  0.00    +0.000 A 
ENDBRANCH   1  16
TORSDOF 2
ENDMDL
MODEL 7
REMARK VINA RESULT:    -3.980     20.973     23.303
REMARK INTER + INTRA:          -4.657
REMARK INTER:                  -4.419
REMARK INTRA:                  -0.239
REMARK UNBOUND:                -0.212
REMARK  Name = /home/anacleto/Desktop/manuscript_Mpro/naturecomm/supplementary_file_S2/6-chemical-library/molecular_docking/3D_ligand_structure/907.pdb
REMARK  2 active torsions:
REMARK  status: ('A' for Active; 'I' for Inactive)
REMARK    1  A    between atoms: C3_5  and  C4_6
REMARK    2  A    between atoms: N2_8  and  C5_9
REMARK                            x       y       z     vdW  Elec       q    Type
REMARK                         _______ _______ _______ _____ _____    ______ ____
ROOT
ATOM      1  C4  UNL     1     -23.280  -4.839 -28.347  0.00  0.00    +0.000 C 
ATOM      2  O2  UNL     1     -23.525  -4.991 -29.540  0.00  0.00    +0.000 OA
ATOM      3  N2  UNL     1     -22.033  -5.120 -27.811  0.00  0.00    +0.000 N 
ATOM      4  H3  UNL     1     -21.808  -4.729 -26.909  0.00  0.00    +0.000 HD
ENDROOT
BRANCH   3   5
ATOM      5  C5  UNL     1     -20.910  -5.481 -28.680  0.00  0.00    +0.000 C 
ATOM      6  C6  UNL     1     -20.079  -6.606 -28.043  0.00  0.00    +0.000 C 
ATOM      7  C7  UNL     1     -18.810  -6.099 -27.354  0.00  0.00    +0.000 C 
ATOM      8  C8  UNL     1     -18.985  -4.695 -26.783  0.00  0.00    +0.000 C 
ATOM      9  N3  UNL     1     -19.348  -3.703 -27.792  0.00  0.00    +0.000 NA
ATOM     10  C9  UNL     1     -20.019  -4.257 -28.978  0.00  0.00    +0.000 C 
ATOM     11  H11 UNL     1     -19.921  -2.969 -27.377  0.00  0.00    +0.000 HD
ENDBRANCH   3   5
BRANCH   1  16
ATOM     12  N1  UNL     1     -23.993  -4.091 -26.058  0.00  0.00    +0.000 NA
ATOM     13  C1  UNL     1     -25.125  -3.639 -25.573  0.00  0.00    +0.000 A 
ATOM     14  O1  UNL     1     -26.141  -3.554 -26.471  0.00  0.00    +0.000 OA
ATOM     15  C2  UNL     1     -25.586  -3.991 -27.635  0.00  0.00    +0.000 A 
ATOM     16  C3  UNL     1     -24.269  -4.330 -27.396  0.00  0.00    +0.000 A 
ENDBRANCH   1  16
TORSDOF 2
ENDMDL
MODEL 8
REMARK VINA RESULT:    -3.928     26.759     28.069
REMARK INTER + INTRA:          -4.599
REMARK INTER:                  -4.379
REMARK INTRA:                  -0.220
REMARK UNBOUND:                -0.212
REMARK  Name = /home/anacleto/Desktop/manuscript_Mpro/naturecomm/supplementary_file_S2/6-chemical-library/molecular_docking/3D_ligand_structure/907.pdb
REMARK  2 active torsions:
REMARK  status: ('A' for Active; 'I' for Inactive)
REMARK    1  A    between atoms: C3_5  and  C4_6
REMARK    2  A    between atoms: N2_8  and  C5_9
REMARK                            x       y       z     vdW  Elec       q    Type
REMARK                         _______ _______ _______ _____ _____    ______ ____
ROOT
ATOM      1  C4  UNL     1     -24.609   4.992 -39.632  0.00  0.00    +0.000 C 
ATOM      2  O2  UNL     1     -24.254   4.668 -40.761  0.00  0.00    +0.000 OA
ATOM      3  N2  UNL     1     -23.820   5.786 -38.814  0.00  0.00    +0.000 N 
ATOM      4  H3  UNL     1     -24.262   6.240 -38.028  0.00  0.00    +0.000 HD
ENDROOT
BRANCH   3   5
ATOM      5  C5  UNL     1     -22.584   6.387 -39.321  0.00  0.00    +0.000 C 
ATOM      6  C6  UNL     1     -21.544   6.504 -38.196  0.00  0.00    +0.000 C 
ATOM      7  C7  UNL     1     -21.461   7.912 -37.598  0.00  0.00    +0.000 C 
ATOM      8  C8  UNL     1     -22.803   8.637 -37.645  0.00  0.00    +0.000 C 
ATOM      9  N3  UNL     1     -23.336   8.778 -38.997  0.00  0.00    +0.000 NA
ATOM     10  C9  UNL     1     -22.852   7.769 -39.952  0.00  0.00    +0.000 C 
ATOM     11  H11 UNL     1     -24.355   8.780 -38.978  0.00  0.00    +0.000 HD
ENDBRANCH   3   5
BRANCH   1  16
ATOM     12  N1  UNL     1     -27.053   5.347 -39.181  0.00  0.00    +0.000 NA
ATOM     13  C1  UNL     1     -27.963   4.640 -38.554  0.00  0.00    +0.000 A 
ATOM     14  O1  UNL     1     -27.516   3.472 -38.022  0.00  0.00    +0.000 OA
ATOM     15  C2  UNL     1     -26.196   3.445 -38.357  0.00  0.00    +0.000 A 
ATOM     16  C3  UNL     1     -25.896   4.592 -39.063  0.00  0.00    +0.000 A 
ENDBRANCH   1  16
TORSDOF 2
ENDMDL
MODEL 9
REMARK VINA RESULT:    -3.924     28.190     29.714
REMARK INTER + INTRA:          -4.595
REMARK INTER:                  -4.360
REMARK INTRA:                  -0.235
REMARK UNBOUND:                -0.212
REMARK  Name = /home/anacleto/Desktop/manuscript_Mpro/naturecomm/supplementary_file_S2/6-chemical-library/molecular_docking/3D_ligand_structure/907.pdb
REMARK  2 active torsions:
REMARK  status: ('A' for Active; 'I' for Inactive)
REMARK    1  A    between atoms: C3_5  and  C4_6
REMARK    2  A    between atoms: N2_8  and  C5_9
REMARK                            x       y       z     vdW  Elec       q    Type
REMARK                         _______ _______ _______ _____ _____    ______ ____
ROOT
ATOM      1  C4  UNL     1     -21.091   8.512 -37.655  0.00  0.00    +0.000 C 
ATOM      2  O2  UNL     1     -21.514   9.017 -36.620  0.00  0.00    +0.000 OA
ATOM      3  N2  UNL     1     -21.822   7.575 -38.368  0.00  0.00    +0.000 N 
ATOM      4  H3  UNL     1     -21.561   7.401 -39.327  0.00  0.00    +0.000 HD
ENDROOT
BRANCH   3   5
ATOM      5  C5  UNL     1     -23.197   7.249 -37.983  0.00  0.00    +0.000 C 
ATOM      6  C6  UNL     1     -23.429   5.731 -38.052  0.00  0.00    +0.000 C 
ATOM      7  C7  UNL     1     -24.151   5.292 -39.329  0.00  0.00    +0.000 C 
ATOM      8  C8  UNL     1     -23.824   6.194 -40.516  0.00  0.00    +0.000 C 
ATOM      9  N3  UNL     1     -24.173   7.594 -40.289  0.00  0.00    +0.000 NA
ATOM     10  C9  UNL     1     -24.217   7.990 -38.873  0.00  0.00    +0.000 C 
ATOM     11  H11 UNL     1     -23.539   8.205 -40.803  0.00  0.00    +0.000 HD
ENDBRANCH   3   5
BRANCH   1  16
ATOM     12  N1  UNL     1     -19.006   7.982 -38.951  0.00  0.00    +0.000 NA
ATOM     13  C1  UNL     1     -17.960   8.694 -39.300  0.00  0.00    +0.000 A 
ATOM     14  O1  UNL     1     -17.980   9.986 -38.880  0.00  0.00    +0.000 OA
ATOM     15  C2  UNL     1     -19.159  10.094 -38.207  0.00  0.00    +0.000 A 
ATOM     16  C3  UNL     1     -19.797   8.870 -38.237  0.00  0.00    +0.000 A 
ENDBRANCH   1  16
TORSDOF 2
ENDMDL
