MODEL 1
REMARK VINA RESULT:    -4.792      0.000      0.000
REMARK INTER + INTRA:          -5.387
REMARK INTER:                  -5.088
REMARK INTRA:                  -0.299
REMARK UNBOUND:                -0.315
REMARK  Name = /home/anacleto/Desktop/manuscript_Mpro/naturecomm/supplementary_file_S2/6-chemical-library/molecular_docking/3D_ligand_structure/1243.pdb
REMARK  1 active torsions:
REMARK  status: ('A' for Active; 'I' for Inactive)
REMARK    1  A    between atoms: C6_6  and  C7_7
REMARK                            x       y       z     vdW  Elec       q    Type
REMARK                         _______ _______ _______ _____ _____    ______ ____
ROOT
ATOM      1  C1  UNL     1     -24.126   5.633 -40.131  0.00  0.00    +0.000 A 
ATOM      2  C2  UNL     1     -22.964   6.318 -40.496  0.00  0.00    +0.000 A 
ATOM      3  C3  UNL     1     -22.001   6.618 -39.537  0.00  0.00    +0.000 A 
ATOM      4  C4  UNL     1     -22.197   6.236 -38.212  0.00  0.00    +0.000 A 
ATOM      5  C5  UNL     1     -23.359   5.552 -37.846  0.00  0.00    +0.000 A 
ATOM      6  C6  UNL     1     -24.338   5.239 -38.801  0.00  0.00    +0.000 A 
ENDROOT
BRANCH   6   7
ATOM      7  C7  UNL     1     -25.596   4.500 -38.378  0.00  0.00    +0.000 C 
ATOM      8  C8  UNL     1     -26.836   4.996 -39.149  0.00  0.00    +0.000 C 
ATOM      9  C9  UNL     1     -28.045   4.127 -38.939  0.00  0.00    +0.000 C 
ATOM     10  C10 UNL     1     -27.983   2.904 -38.393  0.00  0.00    +0.000 C 
ATOM     11  C11 UNL     1     -26.697   2.258 -37.965  0.00  0.00    +0.000 C 
ATOM     12  C12 UNL     1     -25.454   2.973 -38.506  0.00  0.00    +0.000 C 
ENDBRANCH   6   7
TORSDOF 1
ENDMDL
MODEL 2
REMARK VINA RESULT:    -4.756      0.305      4.877
REMARK INTER + INTRA:          -5.349
REMARK INTER:                  -5.049
REMARK INTRA:                  -0.300
REMARK UNBOUND:                -0.315
REMARK  Name = /home/anacleto/Desktop/manuscript_Mpro/naturecomm/supplementary_file_S2/6-chemical-library/molecular_docking/3D_ligand_structure/1243.pdb
REMARK  1 active torsions:
REMARK  status: ('A' for Active; 'I' for Inactive)
REMARK    1  A    between atoms: C6_6  and  C7_7
REMARK                            x       y       z     vdW  Elec       q    Type
REMARK                         _______ _______ _______ _____ _____    ______ ____
ROOT
ATOM      1  C1  UNL     1     -26.776   4.929 -39.022  0.00  0.00    +0.000 A 
ATOM      2  C2  UNL     1     -28.010   4.324 -38.772  0.00  0.00    +0.000 A 
ATOM      3  C3  UNL     1     -28.063   3.008 -38.321  0.00  0.00    +0.000 A 
ATOM      4  C4  UNL     1     -26.884   2.295 -38.122  0.00  0.00    +0.000 A 
ATOM      5  C5  UNL     1     -25.650   2.898 -38.372  0.00  0.00    +0.000 A 
ATOM      6  C6  UNL     1     -25.579   4.225 -38.824  0.00  0.00    +0.000 A 
ENDROOT
BRANCH   6   7
ATOM      7  C7  UNL     1     -24.225   4.858 -39.096  0.00  0.00    +0.000 C 
ATOM      8  C8  UNL     1     -24.281   5.834 -40.289  0.00  0.00    +0.000 C 
ATOM      9  C9  UNL     1     -23.033   6.660 -40.431  0.00  0.00    +0.000 C 
ATOM     10  C10 UNL     1     -22.104   6.757 -39.468  0.00  0.00    +0.000 C 
ATOM     11  C11 UNL     1     -22.228   6.081 -38.134  0.00  0.00    +0.000 C 
ATOM     12  C12 UNL     1     -23.639   5.553 -37.854  0.00  0.00    +0.000 C 
ENDBRANCH   6   7
TORSDOF 1
ENDMDL
MODEL 3
REMARK VINA RESULT:    -4.506      2.583      6.816
REMARK INTER + INTRA:          -5.084
REMARK INTER:                  -4.782
REMARK INTRA:                  -0.303
REMARK UNBOUND:                -0.315
REMARK  Name = /home/anacleto/Desktop/manuscript_Mpro/naturecomm/supplementary_file_S2/6-chemical-library/molecular_docking/3D_ligand_structure/1243.pdb
REMARK  1 active torsions:
REMARK  status: ('A' for Active; 'I' for Inactive)
REMARK    1  A    between atoms: C6_6  and  C7_7
REMARK                            x       y       z     vdW  Elec       q    Type
REMARK                         _______ _______ _______ _____ _____    ______ ____
ROOT
ATOM      1  C1  UNL     1     -22.446   6.088 -37.667  0.00  0.00    +0.000 A 
ATOM      2  C2  UNL     1     -23.614   5.365 -37.922  0.00  0.00    +0.000 A 
ATOM      3  C3  UNL     1     -24.156   5.346 -39.204  0.00  0.00    +0.000 A 
ATOM      4  C4  UNL     1     -23.533   6.049 -40.233  0.00  0.00    +0.000 A 
ATOM      5  C5  UNL     1     -22.367   6.773 -39.978  0.00  0.00    +0.000 A 
ATOM      6  C6  UNL     1     -21.806   6.801 -38.692  0.00  0.00    +0.000 A 
ENDROOT
BRANCH   6   7
ATOM      7  C7  UNL     1     -20.539   7.601 -38.438  0.00  0.00    +0.000 C 
ATOM      8  C8  UNL     1     -19.442   7.275 -39.473  0.00  0.00    +0.000 C 
ATOM      9  C9  UNL     1     -18.273   8.218 -39.405  0.00  0.00    +0.000 C 
ATOM     10  C10 UNL     1     -18.306   9.381 -38.736  0.00  0.00    +0.000 C 
ATOM     11  C11 UNL     1     -19.523   9.880 -38.014  0.00  0.00    +0.000 C 
ATOM     12  C12 UNL     1     -20.799   9.116 -38.382  0.00  0.00    +0.000 C 
ENDBRANCH   6   7
TORSDOF 1
ENDMDL
MODEL 4
REMARK VINA RESULT:    -4.484      3.214      5.317
REMARK INTER + INTRA:          -5.060
REMARK INTER:                  -4.752
REMARK INTRA:                  -0.309
REMARK UNBOUND:                -0.315
REMARK  Name = /home/anacleto/Desktop/manuscript_Mpro/naturecomm/supplementary_file_S2/6-chemical-library/molecular_docking/3D_ligand_structure/1243.pdb
REMARK  1 active torsions:
REMARK  status: ('A' for Active; 'I' for Inactive)
REMARK    1  A    between atoms: C6_6  and  C7_7
REMARK                            x       y       z     vdW  Elec       q    Type
REMARK                         _______ _______ _______ _____ _____    ______ ____
ROOT
ATOM      1  C1  UNL     1     -20.323  10.035 -38.024  0.00  0.00    +0.000 A 
ATOM      2  C2  UNL     1     -19.126  10.701 -38.303  0.00  0.00    +0.000 A 
ATOM      3  C3  UNL     1     -18.035   9.994 -38.800  0.00  0.00    +0.000 A 
ATOM      4  C4  UNL     1     -18.136   8.623 -39.018  0.00  0.00    +0.000 A 
ATOM      5  C5  UNL     1     -19.331   7.957 -38.738  0.00  0.00    +0.000 A 
ATOM      6  C6  UNL     1     -20.442   8.654 -38.239  0.00  0.00    +0.000 A 
ENDROOT
BRANCH   6   7
ATOM      7  C7  UNL     1     -21.730   7.906 -37.937  0.00  0.00    +0.000 C 
ATOM      8  C8  UNL     1     -22.933   8.517 -38.685  0.00  0.00    +0.000 C 
ATOM      9  C9  UNL     1     -24.167   7.663 -38.607  0.00  0.00    +0.000 C 
ATOM     10  C10 UNL     1     -24.151   6.386 -38.198  0.00  0.00    +0.000 C 
ATOM     11  C11 UNL     1     -22.895   5.663 -37.806  0.00  0.00    +0.000 C 
ATOM     12  C12 UNL     1     -21.619   6.400 -38.228  0.00  0.00    +0.000 C 
ENDBRANCH   6   7
TORSDOF 1
ENDMDL
MODEL 5
REMARK VINA RESULT:    -4.273      2.138      5.366
REMARK INTER + INTRA:          -4.837
REMARK INTER:                  -4.529
REMARK INTRA:                  -0.308
REMARK UNBOUND:                -0.315
REMARK  Name = /home/anacleto/Desktop/manuscript_Mpro/naturecomm/supplementary_file_S2/6-chemical-library/molecular_docking/3D_ligand_structure/1243.pdb
REMARK  1 active torsions:
REMARK  status: ('A' for Active; 'I' for Inactive)
REMARK    1  A    between atoms: C6_6  and  C7_7
REMARK                            x       y       z     vdW  Elec       q    Type
REMARK                         _______ _______ _______ _____ _____    ______ ____
ROOT
ATOM      1  C1  UNL     1     -25.495   6.962 -39.352  0.00  0.00    +0.000 A 
ATOM      2  C2  UNL     1     -26.446   5.975 -39.625  0.00  0.00    +0.000 A 
ATOM      3  C3  UNL     1     -26.206   4.655 -39.255  0.00  0.00    +0.000 A 
ATOM      4  C4  UNL     1     -25.016   4.319 -38.614  0.00  0.00    +0.000 A 
ATOM      5  C5  UNL     1     -24.065   5.304 -38.342  0.00  0.00    +0.000 A 
ATOM      6  C6  UNL     1     -24.292   6.640 -38.705  0.00  0.00    +0.000 A 
ENDROOT
BRANCH   6   7
ATOM      7  C7  UNL     1     -23.240   7.694 -38.404  0.00  0.00    +0.000 C 
ATOM      8  C8  UNL     1     -23.796   8.813 -37.500  0.00  0.00    +0.000 C 
ATOM      9  C9  UNL     1     -22.728   9.735 -36.982  0.00  0.00    +0.000 C 
ATOM     10  C10 UNL     1     -21.418   9.450 -37.047  0.00  0.00    +0.000 C 
ATOM     11  C11 UNL     1     -20.882   8.167 -37.613  0.00  0.00    +0.000 C 
ATOM     12  C12 UNL     1     -21.960   7.093 -37.798  0.00  0.00    +0.000 C 
ENDBRANCH   6   7
TORSDOF 1
ENDMDL
MODEL 6
REMARK VINA RESULT:    -4.072     14.452     16.791
REMARK INTER + INTRA:          -4.625
REMARK INTER:                  -4.314
REMARK INTRA:                  -0.311
REMARK UNBOUND:                -0.315
REMARK  Name = /home/anacleto/Desktop/manuscript_Mpro/naturecomm/supplementary_file_S2/6-chemical-library/molecular_docking/3D_ligand_structure/1243.pdb
REMARK  1 active torsions:
REMARK  status: ('A' for Active; 'I' for Inactive)
REMARK    1  A    between atoms: C6_6  and  C7_7
REMARK                            x       y       z     vdW  Elec       q    Type
REMARK                         _______ _______ _______ _____ _____    ______ ____
ROOT
ATOM      1  C1  UNL     1     -27.223  -5.086 -26.067  0.00  0.00    +0.000 A 
ATOM      2  C2  UNL     1     -28.171  -4.894 -27.074  0.00  0.00    +0.000 A 
ATOM      3  C3  UNL     1     -27.858  -4.119 -28.188  0.00  0.00    +0.000 A 
ATOM      4  C4  UNL     1     -26.598  -3.535 -28.296  0.00  0.00    +0.000 A 
ATOM      5  C5  UNL     1     -25.651  -3.726 -27.289  0.00  0.00    +0.000 A 
ATOM      6  C6  UNL     1     -25.949  -4.505 -26.161  0.00  0.00    +0.000 A 
ENDROOT
BRANCH   6   7
ATOM      7  C7  UNL     1     -24.903  -4.694 -25.075  0.00  0.00    +0.000 C 
ATOM      8  C8  UNL     1     -24.259  -3.353 -24.665  0.00  0.00    +0.000 C 
ATOM      9  C9  UNL     1     -23.406  -3.465 -23.432  0.00  0.00    +0.000 C 
ATOM     10  C10 UNL     1     -23.437  -4.526 -22.612  0.00  0.00    +0.000 C 
ATOM     11  C11 UNL     1     -24.350  -5.699 -22.818  0.00  0.00    +0.000 C 
ATOM     12  C12 UNL     1     -25.458  -5.428 -23.842  0.00  0.00    +0.000 C 
ENDBRANCH   6   7
TORSDOF 1
ENDMDL
MODEL 7
REMARK VINA RESULT:    -3.998      2.211      3.483
REMARK INTER + INTRA:          -4.546
REMARK INTER:                  -4.233
REMARK INTRA:                  -0.313
REMARK UNBOUND:                -0.315
REMARK  Name = /home/anacleto/Desktop/manuscript_Mpro/naturecomm/supplementary_file_S2/6-chemical-library/molecular_docking/3D_ligand_structure/1243.pdb
REMARK  1 active torsions:
REMARK  status: ('A' for Active; 'I' for Inactive)
REMARK    1  A    between atoms: C6_6  and  C7_7
REMARK                            x       y       z     vdW  Elec       q    Type
REMARK                         _______ _______ _______ _____ _____    ______ ____
ROOT
ATOM      1  C1  UNL     1     -23.393   9.045 -38.133  0.00  0.00    +0.000 A 
ATOM      2  C2  UNL     1     -22.497   9.962 -37.577  0.00  0.00    +0.000 A 
ATOM      3  C3  UNL     1     -21.203   9.565 -37.255  0.00  0.00    +0.000 A 
ATOM      4  C4  UNL     1     -20.801   8.252 -37.485  0.00  0.00    +0.000 A 
ATOM      5  C5  UNL     1     -21.696   7.334 -38.039  0.00  0.00    +0.000 A 
ATOM      6  C6  UNL     1     -23.003   7.718 -38.373  0.00  0.00    +0.000 A 
ENDROOT
BRANCH   6   7
ATOM      7  C7  UNL     1     -23.960   6.700 -38.970  0.00  0.00    +0.000 C 
ATOM      8  C8  UNL     1     -23.892   5.350 -38.227  0.00  0.00    +0.000 C 
ATOM      9  C9  UNL     1     -24.991   4.405 -38.625  0.00  0.00    +0.000 C 
ATOM     10  C10 UNL     1     -26.075   4.789 -39.316  0.00  0.00    +0.000 C 
ATOM     11  C11 UNL     1     -26.323   6.209 -39.735  0.00  0.00    +0.000 C 
ATOM     12  C12 UNL     1     -25.409   7.215 -39.026  0.00  0.00    +0.000 C 
ENDBRANCH   6   7
TORSDOF 1
ENDMDL
MODEL 8
REMARK VINA RESULT:    -3.967     27.473     28.524
REMARK INTER + INTRA:          -4.514
REMARK INTER:                  -4.205
REMARK INTRA:                  -0.309
REMARK UNBOUND:                -0.315
REMARK  Name = /home/anacleto/Desktop/manuscript_Mpro/naturecomm/supplementary_file_S2/6-chemical-library/molecular_docking/3D_ligand_structure/1243.pdb
REMARK  1 active torsions:
REMARK  status: ('A' for Active; 'I' for Inactive)
REMARK    1  A    between atoms: C6_6  and  C7_7
REMARK                            x       y       z     vdW  Elec       q    Type
REMARK                         _______ _______ _______ _____ _____    ______ ____
ROOT
ATOM      1  C1  UNL     1     -12.959  -8.268 -16.536  0.00  0.00    +0.000 A 
ATOM      2  C2  UNL     1     -12.162  -8.481 -17.664  0.00  0.00    +0.000 A 
ATOM      3  C3  UNL     1     -11.461  -7.421 -18.233  0.00  0.00    +0.000 A 
ATOM      4  C4  UNL     1     -11.557  -6.148 -17.677  0.00  0.00    +0.000 A 
ATOM      5  C5  UNL     1     -12.354  -5.934 -16.551  0.00  0.00    +0.000 A 
ATOM      6  C6  UNL     1     -13.064  -6.991 -15.963  0.00  0.00    +0.000 A 
ENDROOT
BRANCH   6   7
ATOM      7  C7  UNL     1     -13.930  -6.733 -14.741  0.00  0.00    +0.000 C 
ATOM      8  C8  UNL     1     -13.455  -5.491 -13.959  0.00  0.00    +0.000 C 
ATOM      9  C9  UNL     1     -14.426  -5.062 -12.894  0.00  0.00    +0.000 C 
ATOM     10  C10 UNL     1     -15.687  -5.513 -12.826  0.00  0.00    +0.000 C 
ATOM     11  C11 UNL     1     -16.275  -6.468 -13.825  0.00  0.00    +0.000 C 
ATOM     12  C12 UNL     1     -15.424  -6.615 -15.091  0.00  0.00    +0.000 C 
ENDBRANCH   6   7
TORSDOF 1
ENDMDL
MODEL 9
REMARK VINA RESULT:    -3.890      2.731      5.047
REMARK INTER + INTRA:          -4.432
REMARK INTER:                  -4.118
REMARK INTRA:                  -0.315
REMARK UNBOUND:                -0.315
REMARK  Name = /home/anacleto/Desktop/manuscript_Mpro/naturecomm/supplementary_file_S2/6-chemical-library/molecular_docking/3D_ligand_structure/1243.pdb
REMARK  1 active torsions:
REMARK  status: ('A' for Active; 'I' for Inactive)
REMARK    1  A    between atoms: C6_6  and  C7_7
REMARK                            x       y       z     vdW  Elec       q    Type
REMARK                         _______ _______ _______ _____ _____    ______ ____
ROOT
ATOM      1  C1  UNL     1     -20.167   8.693 -40.679  0.00  0.00    +0.000 A 
ATOM      2  C2  UNL     1     -19.237   9.733 -40.758  0.00  0.00    +0.000 A 
ATOM      3  C3  UNL     1     -18.616  10.202 -39.604  0.00  0.00    +0.000 A 
ATOM      4  C4  UNL     1     -18.924   9.635 -38.370  0.00  0.00    +0.000 A 
ATOM      5  C5  UNL     1     -19.853   8.596 -38.290  0.00  0.00    +0.000 A 
ATOM      6  C6  UNL     1     -20.486   8.109 -39.443  0.00  0.00    +0.000 A 
ENDROOT
BRANCH   6   7
ATOM      7  C7  UNL     1     -21.498   6.981 -39.330  0.00  0.00    +0.000 C 
ATOM      8  C8  UNL     1     -21.790   6.622 -37.859  0.00  0.00    +0.000 C 
ATOM      9  C9  UNL     1     -22.959   5.690 -37.703  0.00  0.00    +0.000 C 
ATOM     10  C10 UNL     1     -23.832   5.436 -38.690  0.00  0.00    +0.000 C 
ATOM     11  C11 UNL     1     -23.754   6.081 -40.043  0.00  0.00    +0.000 C 
ATOM     12  C12 UNL     1     -22.804   7.283 -40.085  0.00  0.00    +0.000 C 
ENDBRANCH   6   7
TORSDOF 1
ENDMDL
