MODEL 1
REMARK VINA RESULT:    -4.962      0.000      0.000
REMARK INTER + INTRA:          -5.441
REMARK INTER:                  -5.290
REMARK INTRA:                  -0.151
REMARK UNBOUND:                -0.189
REMARK  Name = /home/anacleto/Desktop/manuscript_Mpro/naturecomm/supplementary_file_S2/6-chemical-library/molecular_docking/3D_ligand_structure/792.pdb
REMARK  1 active torsions:
REMARK  status: ('A' for Active; 'I' for Inactive)
REMARK    1  A    between atoms: N2_9  and  C7_10
REMARK                            x       y       z     vdW  Elec       q    Type
REMARK                         _______ _______ _______ _____ _____    ______ ____
ROOT
ATOM      1  C1  UNL     1      18.401  12.695  -1.891  0.00  0.00    +0.000 C 
ATOM      2  C2  UNL     1      19.141  12.638  -0.559  0.00  0.00    +0.000 C 
ATOM      3  C3  UNL     1      19.395  14.029   0.019  0.00  0.00    +0.000 C 
ATOM      4  C4  UNL     1      18.299  15.034  -0.336  0.00  0.00    +0.000 C 
ATOM      5  C5  UNL     1      16.980  14.351  -0.679  0.00  0.00    +0.000 C 
ATOM      6  N1  UNL     1      17.132  13.420  -1.797  0.00  0.00    +0.000 N 
ATOM      7  C6  UNL     1      16.008  13.164  -2.582  0.00  0.00    +0.000 C 
ATOM      8  O1  UNL     1      14.902  13.606  -2.282  0.00  0.00    +0.000 OA
ATOM      9  N2  UNL     1      16.262  12.408  -3.703  0.00  0.00    +0.000 N 
ATOM     10  H11 UNL     1      17.225  12.362  -3.994  0.00  0.00    +0.000 HD
ENDROOT
BRANCH   9  11
ATOM     11  C7  UNL     1      15.312  11.895  -4.611  0.00  0.00    +0.000 A 
ATOM     12  C8  UNL     1      15.322  12.395  -5.915  0.00  0.00    +0.000 A 
ATOM     13  C9  UNL     1      14.414  11.912  -6.855  0.00  0.00    +0.000 A 
ATOM     14  C10 UNL     1      13.521  10.932  -6.461  0.00  0.00    +0.000 A 
ATOM     15  N3  UNL     1      13.481  10.416  -5.217  0.00  0.00    +0.000 NA
ATOM     16  C11 UNL     1      14.376  10.907  -4.319  0.00  0.00    +0.000 A 
ENDBRANCH   9  11
TORSDOF 1
ENDMDL
MODEL 2
REMARK VINA RESULT:    -4.873      0.725      1.241
REMARK INTER + INTRA:          -5.347
REMARK INTER:                  -5.185
REMARK INTRA:                  -0.161
REMARK UNBOUND:                -0.189
REMARK  Name = /home/anacleto/Desktop/manuscript_Mpro/naturecomm/supplementary_file_S2/6-chemical-library/molecular_docking/3D_ligand_structure/792.pdb
REMARK  1 active torsions:
REMARK  status: ('A' for Active; 'I' for Inactive)
REMARK    1  A    between atoms: N2_9  and  C7_10
REMARK                            x       y       z     vdW  Elec       q    Type
REMARK                         _______ _______ _______ _____ _____    ______ ____
ROOT
ATOM      1  C1  UNL     1      18.417  12.615  -1.880  0.00  0.00    +0.000 C 
ATOM      2  C2  UNL     1      19.130  12.513  -0.536  0.00  0.00    +0.000 C 
ATOM      3  C3  UNL     1      19.466  13.885   0.045  0.00  0.00    +0.000 C 
ATOM      4  C4  UNL     1      18.445  14.960  -0.330  0.00  0.00    +0.000 C 
ATOM      5  C5  UNL     1      17.089  14.365  -0.693  0.00  0.00    +0.000 C 
ATOM      6  N1  UNL     1      17.198  13.423  -1.807  0.00  0.00    +0.000 N 
ATOM      7  C6  UNL     1      16.072  13.240  -2.611  0.00  0.00    +0.000 C 
ATOM      8  O1  UNL     1      14.993  13.755  -2.330  0.00  0.00    +0.000 OA
ATOM      9  N2  UNL     1      16.294  12.466  -3.726  0.00  0.00    +0.000 N 
ATOM     10  H11 UNL     1      17.257  12.356  -4.002  0.00  0.00    +0.000 HD
ENDROOT
BRANCH   9  11
ATOM     11  C7  UNL     1      15.327  12.015  -4.649  0.00  0.00    +0.000 A 
ATOM     12  C8  UNL     1      14.494  10.965  -4.258  0.00  0.00    +0.000 A 
ATOM     13  C9  UNL     1      13.512  10.491  -5.128  0.00  0.00    +0.000 A 
ATOM     14  C10 UNL     1      13.389  11.092  -6.368  0.00  0.00    +0.000 A 
ATOM     15  N3  UNL     1      14.166  12.112  -6.782  0.00  0.00    +0.000 NA
ATOM     16  C11 UNL     1      15.117  12.552  -5.917  0.00  0.00    +0.000 A 
ENDBRANCH   9  11
TORSDOF 1
ENDMDL
MODEL 3
REMARK VINA RESULT:    -4.861     14.575     15.423
REMARK INTER + INTRA:          -5.335
REMARK INTER:                  -5.240
REMARK INTRA:                  -0.094
REMARK UNBOUND:                -0.189
REMARK  Name = /home/anacleto/Desktop/manuscript_Mpro/naturecomm/supplementary_file_S2/6-chemical-library/molecular_docking/3D_ligand_structure/792.pdb
REMARK  1 active torsions:
REMARK  status: ('A' for Active; 'I' for Inactive)
REMARK    1  A    between atoms: N2_9  and  C7_10
REMARK                            x       y       z     vdW  Elec       q    Type
REMARK                         _______ _______ _______ _____ _____    ______ ____
ROOT
ATOM      1  C1  UNL     1      19.110   5.639   8.459  0.00  0.00    +0.000 C 
ATOM      2  C2  UNL     1      20.533   6.187   8.465  0.00  0.00    +0.000 C 
ATOM      3  C3  UNL     1      20.744   7.229   9.562  0.00  0.00    +0.000 C 
ATOM      4  C4  UNL     1      19.897   6.967  10.808  0.00  0.00    +0.000 C 
ATOM      5  C5  UNL     1      19.480   5.506  10.924  0.00  0.00    +0.000 C 
ATOM      6  N1  UNL     1      18.723   5.068   9.751  0.00  0.00    +0.000 N 
ATOM      7  C6  UNL     1      17.815   4.023   9.920  0.00  0.00    +0.000 C 
ATOM      8  O1  UNL     1      17.735   3.409  10.980  0.00  0.00    +0.000 OA
ATOM      9  N2  UNL     1      17.030   3.772   8.818  0.00  0.00    +0.000 N 
ATOM     10  H11 UNL     1      16.978   4.513   8.137  0.00  0.00    +0.000 HD
ENDROOT
BRANCH   9  11
ATOM     11  C7  UNL     1      16.116   2.711   8.654  0.00  0.00    +0.000 A 
ATOM     12  C8  UNL     1      16.400   1.752   7.680  0.00  0.00    +0.000 A 
ATOM     13  C9  UNL     1      15.536   0.674   7.487  0.00  0.00    +0.000 A 
ATOM     14  C10 UNL     1      14.411   0.585   8.286  0.00  0.00    +0.000 A 
ATOM     15  N3  UNL     1      14.102   1.483   9.243  0.00  0.00    +0.000 NA
ATOM     16  C11 UNL     1      14.959   2.525   9.407  0.00  0.00    +0.000 A 
ENDBRANCH   9  11
TORSDOF 1
ENDMDL
MODEL 4
REMARK VINA RESULT:    -4.817     14.113     16.174
REMARK INTER + INTRA:          -5.288
REMARK INTER:                  -5.112
REMARK INTRA:                  -0.176
REMARK UNBOUND:                -0.189
REMARK  Name = /home/anacleto/Desktop/manuscript_Mpro/naturecomm/supplementary_file_S2/6-chemical-library/molecular_docking/3D_ligand_structure/792.pdb
REMARK  1 active torsions:
REMARK  status: ('A' for Active; 'I' for Inactive)
REMARK    1  A    between atoms: N2_9  and  C7_10
REMARK                            x       y       z     vdW  Elec       q    Type
REMARK                         _______ _______ _______ _____ _____    ______ ____
ROOT
ATOM      1  C1  UNL     1      16.502   2.521   8.055  0.00  0.00    +0.000 C 
ATOM      2  C2  UNL     1      15.094   1.959   7.892  0.00  0.00    +0.000 C 
ATOM      3  C3  UNL     1      14.873   0.705   8.735  0.00  0.00    +0.000 C 
ATOM      4  C4  UNL     1      15.672   0.711  10.038  0.00  0.00    +0.000 C 
ATOM      5  C5  UNL     1      16.049   2.121  10.477  0.00  0.00    +0.000 C 
ATOM      6  N1  UNL     1      16.832   2.811   9.452  0.00  0.00    +0.000 N 
ATOM      7  C6  UNL     1      17.707   3.813   9.873  0.00  0.00    +0.000 C 
ATOM      8  O1  UNL     1      17.737   4.189  11.041  0.00  0.00    +0.000 OA
ATOM      9  N2  UNL     1      18.522   4.305   8.879  0.00  0.00    +0.000 N 
ATOM     10  H11 UNL     1      18.614   3.728   8.059  0.00  0.00    +0.000 HD
ENDROOT
BRANCH   9  11
ATOM     11  C7  UNL     1      19.413   5.394   8.978  0.00  0.00    +0.000 A 
ATOM     12  C8  UNL     1      18.981   6.635   8.504  0.00  0.00    +0.000 A 
ATOM     13  C9  UNL     1      19.819   7.746   8.592  0.00  0.00    +0.000 A 
ATOM     14  C10 UNL     1      21.069   7.582   9.160  0.00  0.00    +0.000 A 
ATOM     15  N3  UNL     1      21.523   6.405   9.637  0.00  0.00    +0.000 NA
ATOM     16  C11 UNL     1      20.688   5.338   9.536  0.00  0.00    +0.000 A 
ENDBRANCH   9  11
TORSDOF 1
ENDMDL
MODEL 5
REMARK VINA RESULT:    -4.500      1.341      6.234
REMARK INTER + INTRA:          -4.952
REMARK INTER:                  -4.776
REMARK INTRA:                  -0.176
REMARK UNBOUND:                -0.189
REMARK  Name = /home/anacleto/Desktop/manuscript_Mpro/naturecomm/supplementary_file_S2/6-chemical-library/molecular_docking/3D_ligand_structure/792.pdb
REMARK  1 active torsions:
REMARK  status: ('A' for Active; 'I' for Inactive)
REMARK    1  A    between atoms: N2_9  and  C7_10
REMARK                            x       y       z     vdW  Elec       q    Type
REMARK                         _______ _______ _______ _____ _____    ______ ____
ROOT
ATOM      1  C1  UNL     1      15.938  11.560  -5.978  0.00  0.00    +0.000 C 
ATOM      2  C2  UNL     1      15.188  11.712  -7.297  0.00  0.00    +0.000 C 
ATOM      3  C3  UNL     1      13.856  10.965  -7.293  0.00  0.00    +0.000 C 
ATOM      4  C4  UNL     1      13.203  10.914  -5.911  0.00  0.00    +0.000 C 
ATOM      5  C5  UNL     1      13.690  12.036  -5.001  0.00  0.00    +0.000 C 
ATOM      6  N1  UNL     1      15.142  11.994  -4.828  0.00  0.00    +0.000 N 
ATOM      7  C6  UNL     1      15.668  12.530  -3.652  0.00  0.00    +0.000 C 
ATOM      8  O1  UNL     1      14.958  13.122  -2.844  0.00  0.00    +0.000 OA
ATOM      9  N2  UNL     1      17.017  12.314  -3.487  0.00  0.00    +0.000 N 
ATOM     10  H11 UNL     1      17.417  11.579  -4.048  0.00  0.00    +0.000 HD
ENDROOT
BRANCH   9  11
ATOM     11  C7  UNL     1      17.838  12.835  -2.466  0.00  0.00    +0.000 A 
ATOM     12  C8  UNL     1      18.279  11.957  -1.473  0.00  0.00    +0.000 A 
ATOM     13  C9  UNL     1      19.105  12.419  -0.449  0.00  0.00    +0.000 A 
ATOM     14  C10 UNL     1      19.471  13.753  -0.452  0.00  0.00    +0.000 A 
ATOM     15  N3  UNL     1      19.075  14.632  -1.394  0.00  0.00    +0.000 NA
ATOM     16  C11 UNL     1      18.269  14.157  -2.379  0.00  0.00    +0.000 A 
ENDBRANCH   9  11
TORSDOF 1
ENDMDL
MODEL 6
REMARK VINA RESULT:    -4.420      1.598      2.212
REMARK INTER + INTRA:          -4.867
REMARK INTER:                  -4.679
REMARK INTRA:                  -0.188
REMARK UNBOUND:                -0.189
REMARK  Name = /home/anacleto/Desktop/manuscript_Mpro/naturecomm/supplementary_file_S2/6-chemical-library/molecular_docking/3D_ligand_structure/792.pdb
REMARK  1 active torsions:
REMARK  status: ('A' for Active; 'I' for Inactive)
REMARK    1  A    between atoms: N2_9  and  C7_10
REMARK                            x       y       z     vdW  Elec       q    Type
REMARK                         _______ _______ _______ _____ _____    ______ ____
ROOT
ATOM      1  C1  UNL     1      17.223  14.871  -0.199  0.00  0.00    +0.000 C 
ATOM      2  C2  UNL     1      17.931  16.089   0.384  0.00  0.00    +0.000 C 
ATOM      3  C3  UNL     1      19.277  15.729   1.011  0.00  0.00    +0.000 C 
ATOM      4  C4  UNL     1      19.970  14.562   0.308  0.00  0.00    +0.000 C 
ATOM      5  C5  UNL     1      19.488  14.384  -1.127  0.00  0.00    +0.000 C 
ATOM      6  N1  UNL     1      18.043  14.165  -1.185  0.00  0.00    +0.000 N 
ATOM      7  C6  UNL     1      17.541  13.446  -2.270  0.00  0.00    +0.000 C 
ATOM      8  O1  UNL     1      18.263  13.109  -3.205  0.00  0.00    +0.000 OA
ATOM      9  N2  UNL     1      16.202  13.144  -2.177  0.00  0.00    +0.000 N 
ATOM     10  H11 UNL     1      15.800  13.206  -1.256  0.00  0.00    +0.000 HD
ENDROOT
BRANCH   9  11
ATOM     11  C7  UNL     1      15.401  12.537  -3.167  0.00  0.00    +0.000 A 
ATOM     12  C8  UNL     1      14.779  13.368  -4.101  0.00  0.00    +0.000 A 
ATOM     13  C9  UNL     1      13.988  12.817  -5.108  0.00  0.00    +0.000 A 
ATOM     14  C10 UNL     1      13.848  11.442  -5.155  0.00  0.00    +0.000 A 
ATOM     15  N3  UNL     1      14.436  10.603  -4.279  0.00  0.00    +0.000 NA
ATOM     16  C11 UNL     1      15.199  11.166  -3.305  0.00  0.00    +0.000 A 
ENDBRANCH   9  11
TORSDOF 1
ENDMDL
MODEL 7
REMARK VINA RESULT:    -4.402      4.498      6.665
REMARK INTER + INTRA:          -4.849
REMARK INTER:                  -4.725
REMARK INTRA:                  -0.124
REMARK UNBOUND:                -0.189
REMARK  Name = /home/anacleto/Desktop/manuscript_Mpro/naturecomm/supplementary_file_S2/6-chemical-library/molecular_docking/3D_ligand_structure/792.pdb
REMARK  1 active torsions:
REMARK  status: ('A' for Active; 'I' for Inactive)
REMARK    1  A    between atoms: N2_9  and  C7_10
REMARK                            x       y       z     vdW  Elec       q    Type
REMARK                         _______ _______ _______ _____ _____    ______ ____
ROOT
ATOM      1  C1  UNL     1      16.077  11.405  -6.883  0.00  0.00    +0.000 C 
ATOM      2  C2  UNL     1      14.990  12.472  -6.812  0.00  0.00    +0.000 C 
ATOM      3  C3  UNL     1      13.727  11.963  -6.120  0.00  0.00    +0.000 C 
ATOM      4  C4  UNL     1      14.017  10.929  -5.032  0.00  0.00    +0.000 C 
ATOM      5  C5  UNL     1      15.440  11.037  -4.498  0.00  0.00    +0.000 C 
ATOM      6  N1  UNL     1      16.428  10.873  -5.564  0.00  0.00    +0.000 N 
ATOM      7  C6  UNL     1      17.686  10.385  -5.211  0.00  0.00    +0.000 C 
ATOM      8  O1  UNL     1      17.999  10.209  -4.037  0.00  0.00    +0.000 OA
ATOM      9  N2  UNL     1      18.505  10.108  -6.281  0.00  0.00    +0.000 N 
ATOM     10  H11 UNL     1      18.047  10.007  -7.172  0.00  0.00    +0.000 HD
ENDROOT
BRANCH   9  11
ATOM     11  C7  UNL     1      19.860   9.720  -6.230  0.00  0.00    +0.000 A 
ATOM     12  C8  UNL     1      20.201   8.474  -6.761  0.00  0.00    +0.000 A 
ATOM     13  C9  UNL     1      21.529   8.049  -6.749  0.00  0.00    +0.000 A 
ATOM     14  C10 UNL     1      22.483   8.892  -6.208  0.00  0.00    +0.000 A 
ATOM     15  N3  UNL     1      22.200  10.105  -5.693  0.00  0.00    +0.000 NA
ATOM     16  C11 UNL     1      20.897  10.493  -5.714  0.00  0.00    +0.000 A 
ENDBRANCH   9  11
TORSDOF 1
ENDMDL
MODEL 8
REMARK VINA RESULT:    -4.388      1.865      6.560
REMARK INTER + INTRA:          -4.834
REMARK INTER:                  -4.652
REMARK INTRA:                  -0.182
REMARK UNBOUND:                -0.189
REMARK  Name = /home/anacleto/Desktop/manuscript_Mpro/naturecomm/supplementary_file_S2/6-chemical-library/molecular_docking/3D_ligand_structure/792.pdb
REMARK  1 active torsions:
REMARK  status: ('A' for Active; 'I' for Inactive)
REMARK    1  A    between atoms: N2_9  and  C7_10
REMARK                            x       y       z     vdW  Elec       q    Type
REMARK                         _______ _______ _______ _____ _____    ______ ____
ROOT
ATOM      1  C1  UNL     1      15.941  13.624  -3.892  0.00  0.00    +0.000 C 
ATOM      2  C2  UNL     1      14.571  13.474  -4.544  0.00  0.00    +0.000 C 
ATOM      3  C3  UNL     1      14.281  12.029  -4.949  0.00  0.00    +0.000 C 
ATOM      4  C4  UNL     1      14.929  11.005  -4.017  0.00  0.00    +0.000 C 
ATOM      5  C5  UNL     1      15.227  11.586  -2.640  0.00  0.00    +0.000 C 
ATOM      6  N1  UNL     1      16.107  12.751  -2.728  0.00  0.00    +0.000 N 
ATOM      7  C6  UNL     1      16.911  13.039  -1.625  0.00  0.00    +0.000 C 
ATOM      8  O1  UNL     1      16.803  12.415  -0.573  0.00  0.00    +0.000 OA
ATOM      9  N2  UNL     1      17.822  14.048  -1.837  0.00  0.00    +0.000 N 
ATOM     10  H11 UNL     1      18.017  14.270  -2.800  0.00  0.00    +0.000 HD
ENDROOT
BRANCH   9  11
ATOM     11  C7  UNL     1      18.677  14.632  -0.879  0.00  0.00    +0.000 A 
ATOM     12  C8  UNL     1      20.031  14.290  -0.920  0.00  0.00    +0.000 A 
ATOM     13  C9  UNL     1      20.920  14.850  -0.004  0.00  0.00    +0.000 A 
ATOM     14  C10 UNL     1      20.426  15.746   0.927  0.00  0.00    +0.000 A 
ATOM     15  N3  UNL     1      19.130  16.109   0.997  0.00  0.00    +0.000 NA
ATOM     16  C11 UNL     1      18.284  15.546   0.095  0.00  0.00    +0.000 A 
ENDBRANCH   9  11
TORSDOF 1
ENDMDL
MODEL 9
REMARK VINA RESULT:    -4.352     15.273     17.497
REMARK INTER + INTRA:          -4.795
REMARK INTER:                  -4.606
REMARK INTRA:                  -0.189
REMARK UNBOUND:                -0.189
REMARK  Name = /home/anacleto/Desktop/manuscript_Mpro/naturecomm/supplementary_file_S2/6-chemical-library/molecular_docking/3D_ligand_structure/792.pdb
REMARK  1 active torsions:
REMARK  status: ('A' for Active; 'I' for Inactive)
REMARK    1  A    between atoms: N2_9  and  C7_10
REMARK                            x       y       z     vdW  Elec       q    Type
REMARK                         _______ _______ _______ _____ _____    ______ ____
ROOT
ATOM      1  C1  UNL     1      16.781   7.227  14.496  0.00  0.00    +0.000 C 
ATOM      2  C2  UNL     1      16.244   6.931  15.892  0.00  0.00    +0.000 C 
ATOM      3  C3  UNL     1      14.824   6.368  15.857  0.00  0.00    +0.000 C 
ATOM      4  C4  UNL     1      14.544   5.529  14.610  0.00  0.00    +0.000 C 
ATOM      5  C5  UNL     1      15.821   4.979  13.986  0.00  0.00    +0.000 C 
ATOM      6  N1  UNL     1      16.745   6.053  13.621  0.00  0.00    +0.000 N 
ATOM      7  C6  UNL     1      17.639   5.810  12.578  0.00  0.00    +0.000 C 
ATOM      8  O1  UNL     1      17.734   4.701  12.061  0.00  0.00    +0.000 OA
ATOM      9  N2  UNL     1      18.364   6.912  12.187  0.00  0.00    +0.000 N 
ATOM     10  H11 UNL     1      17.994   7.806  12.469  0.00  0.00    +0.000 HD
ENDROOT
BRANCH   9  11
ATOM     11  C7  UNL     1      19.417   6.943  11.249  0.00  0.00    +0.000 A 
ATOM     12  C8  UNL     1      19.123   7.372   9.953  0.00  0.00    +0.000 A 
ATOM     13  C9  UNL     1      20.130   7.435   8.992  0.00  0.00    +0.000 A 
ATOM     14  C10 UNL     1      21.412   7.069   9.360  0.00  0.00    +0.000 A 
ATOM     15  N3  UNL     1      21.742   6.656  10.600  0.00  0.00    +0.000 NA
ATOM     16  C11 UNL     1      20.740   6.602  11.517  0.00  0.00    +0.000 A 
ENDBRANCH   9  11
TORSDOF 1
ENDMDL
