MODEL 1
REMARK VINA RESULT:    -4.711      0.000      0.000
REMARK INTER + INTRA:          -4.711
REMARK INTER:                  -4.711
REMARK INTRA:                   0.000
REMARK UNBOUND:                 0.000
REMARK  Name = /home/anacleto/Desktop/manuscript_Mpro/naturecomm/supplementary_file_S2/6-chemical-library/molecular_docking/3D_ligand_structure/196.pdb
REMARK  0 active torsions:
REMARK  status: ('A' for Active; 'I' for Inactive)
REMARK                            x       y       z     vdW  Elec       q    Type
REMARK                         _______ _______ _______ _____ _____    ______ ____
ROOT
ATOM      1  C1  UNL     1     -21.122   6.516 -38.689  0.00  0.00    +0.000 A 
ATOM      2  C2  UNL     1     -22.402   6.697 -38.167  0.00  0.00    +0.000 A 
ATOM      3  C3  UNL     1     -22.752   7.918 -37.587  0.00  0.00    +0.000 A 
ATOM      4  C4  UNL     1     -21.823   8.961 -37.523  0.00  0.00    +0.000 A 
ATOM      5  C5  UNL     1     -20.531   8.787 -38.028  0.00  0.00    +0.000 A 
ATOM      6  C6  UNL     1     -20.191   7.558 -38.625  0.00  0.00    +0.000 A 
ATOM      7  N1  UNL     1     -19.603   9.839 -38.005  0.00  0.00    +0.000 N 
ATOM      8  C7  UNL     1     -18.332   9.660 -38.478  0.00  0.00    +0.000 A 
ATOM      9  C8  UNL     1     -17.884   8.539 -39.054  0.00  0.00    +0.000 A 
ATOM     10  C9  UNL     1     -18.818   7.386 -39.182  0.00  0.00    +0.000 A 
ATOM     11  N2  UNL     1     -18.462   6.274 -39.745  0.00  0.00    +0.000 NA
ATOM     12  H5  UNL     1     -19.805  10.656 -37.444  0.00  0.00    +0.000 HD
ATOM     13  H8  UNL     1     -17.492   6.324 -40.071  0.00  0.00    +0.000 HD
ENDROOT
TORSDOF 0
ENDMDL
MODEL 2
REMARK VINA RESULT:    -4.461      7.118      8.934
REMARK INTER + INTRA:          -4.461
REMARK INTER:                  -4.461
REMARK INTRA:                   0.000
REMARK UNBOUND:                 0.000
REMARK  Name = /home/anacleto/Desktop/manuscript_Mpro/naturecomm/supplementary_file_S2/6-chemical-library/molecular_docking/3D_ligand_structure/196.pdb
REMARK  0 active torsions:
REMARK  status: ('A' for Active; 'I' for Inactive)
REMARK                            x       y       z     vdW  Elec       q    Type
REMARK                         _______ _______ _______ _____ _____    ______ ____
ROOT
ATOM      1  C1  UNL     1     -28.105   2.998 -38.284  0.00  0.00    +0.000 A 
ATOM      2  C2  UNL     1     -26.906   2.294 -38.380  0.00  0.00    +0.000 A 
ATOM      3  C3  UNL     1     -25.732   2.960 -38.736  0.00  0.00    +0.000 A 
ATOM      4  C4  UNL     1     -25.754   4.333 -39.002  0.00  0.00    +0.000 A 
ATOM      5  C5  UNL     1     -26.952   5.048 -38.925  0.00  0.00    +0.000 A 
ATOM      6  C6  UNL     1     -28.128   4.371 -38.550  0.00  0.00    +0.000 A 
ATOM      7  N1  UNL     1     -26.979   6.433 -39.150  0.00  0.00    +0.000 N 
ATOM      8  C7  UNL     1     -28.156   7.127 -39.098  0.00  0.00    +0.000 A 
ATOM      9  C8  UNL     1     -29.339   6.597 -38.768  0.00  0.00    +0.000 A 
ATOM     10  C9  UNL     1     -29.399   5.144 -38.448  0.00  0.00    +0.000 A 
ATOM     11  N2  UNL     1     -30.506   4.564 -38.102  0.00  0.00    +0.000 NA
ATOM     12  H5  UNL     1     -26.167   6.876 -39.563  0.00  0.00    +0.000 HD
ATOM     13  H8  UNL     1     -31.279   5.235 -38.082  0.00  0.00    +0.000 HD
ENDROOT
TORSDOF 0
ENDMDL
MODEL 3
REMARK VINA RESULT:    -4.429     17.242     18.692
REMARK INTER + INTRA:          -4.429
REMARK INTER:                  -4.429
REMARK INTRA:                   0.000
REMARK UNBOUND:                 0.000
REMARK  Name = /home/anacleto/Desktop/manuscript_Mpro/naturecomm/supplementary_file_S2/6-chemical-library/molecular_docking/3D_ligand_structure/196.pdb
REMARK  0 active torsions:
REMARK  status: ('A' for Active; 'I' for Inactive)
REMARK                            x       y       z     vdW  Elec       q    Type
REMARK                         _______ _______ _______ _____ _____    ______ ____
ROOT
ATOM      1  C1  UNL     1     -26.625  -5.601 -25.106  0.00  0.00    +0.000 A 
ATOM      2  C2  UNL     1     -25.406  -5.742 -24.443  0.00  0.00    +0.000 A 
ATOM      3  C3  UNL     1     -24.274  -5.077 -24.917  0.00  0.00    +0.000 A 
ATOM      4  C4  UNL     1     -24.354  -4.272 -26.057  0.00  0.00    +0.000 A 
ATOM      5  C5  UNL     1     -25.566  -4.135 -26.740  0.00  0.00    +0.000 A 
ATOM      6  C6  UNL     1     -26.706  -4.796 -26.247  0.00  0.00    +0.000 A 
ATOM      7  N1  UNL     1     -25.667  -3.298 -27.862  0.00  0.00    +0.000 N 
ATOM      8  C7  UNL     1     -26.848  -3.184 -28.544  0.00  0.00    +0.000 A 
ATOM      9  C8  UNL     1     -27.995  -3.770 -28.185  0.00  0.00    +0.000 A 
ATOM     10  C9  UNL     1     -28.001  -4.628 -26.968  0.00  0.00    +0.000 A 
ATOM     11  N2  UNL     1     -29.078  -5.214 -26.548  0.00  0.00    +0.000 NA
ATOM     12  H5  UNL     1     -24.818  -2.953 -28.292  0.00  0.00    +0.000 HD
ATOM     13  H8  UNL     1     -29.874  -4.994 -27.155  0.00  0.00    +0.000 HD
ENDROOT
TORSDOF 0
ENDMDL
MODEL 4
REMARK VINA RESULT:    -4.428      1.367      3.595
REMARK INTER + INTRA:          -4.428
REMARK INTER:                  -4.428
REMARK INTRA:                   0.000
REMARK UNBOUND:                 0.000
REMARK  Name = /home/anacleto/Desktop/manuscript_Mpro/naturecomm/supplementary_file_S2/6-chemical-library/molecular_docking/3D_ligand_structure/196.pdb
REMARK  0 active torsions:
REMARK  status: ('A' for Active; 'I' for Inactive)
REMARK                            x       y       z     vdW  Elec       q    Type
REMARK                         _______ _______ _______ _____ _____    ______ ____
ROOT
ATOM      1  C1  UNL     1     -18.591   8.172 -39.044  0.00  0.00    +0.000 A 
ATOM      2  C2  UNL     1     -17.559   9.054 -39.362  0.00  0.00    +0.000 A 
ATOM      3  C3  UNL     1     -17.683  10.411 -39.059  0.00  0.00    +0.000 A 
ATOM      4  C4  UNL     1     -18.841  10.893 -38.441  0.00  0.00    +0.000 A 
ATOM      5  C5  UNL     1     -19.890  10.022 -38.132  0.00  0.00    +0.000 A 
ATOM      6  C6  UNL     1     -19.750   8.653 -38.427  0.00  0.00    +0.000 A 
ATOM      7  N1  UNL     1     -21.040  10.487 -37.475  0.00  0.00    +0.000 N 
ATOM      8  C7  UNL     1     -22.076   9.639 -37.196  0.00  0.00    +0.000 A 
ATOM      9  C8  UNL     1     -22.070   8.324 -37.438  0.00  0.00    +0.000 A 
ATOM     10  C9  UNL     1     -20.864   7.726 -38.074  0.00  0.00    +0.000 A 
ATOM     11  N2  UNL     1     -20.778   6.457 -38.323  0.00  0.00    +0.000 NA
ATOM     12  H5  UNL     1     -21.193  11.486 -37.407  0.00  0.00    +0.000 HD
ATOM     13  H8  UNL     1     -21.625   5.967 -38.020  0.00  0.00    +0.000 HD
ENDROOT
TORSDOF 0
ENDMDL
MODEL 5
REMARK VINA RESULT:    -4.349      2.637      4.193
REMARK INTER + INTRA:          -4.349
REMARK INTER:                  -4.349
REMARK INTRA:                   0.000
REMARK UNBOUND:                 0.000
REMARK  Name = /home/anacleto/Desktop/manuscript_Mpro/naturecomm/supplementary_file_S2/6-chemical-library/molecular_docking/3D_ligand_structure/196.pdb
REMARK  0 active torsions:
REMARK  status: ('A' for Active; 'I' for Inactive)
REMARK                            x       y       z     vdW  Elec       q    Type
REMARK                         _______ _______ _______ _____ _____    ______ ____
ROOT
ATOM      1  C1  UNL     1     -24.776   7.693 -38.483  0.00  0.00    +0.000 A 
ATOM      2  C2  UNL     1     -24.710   6.392 -38.981  0.00  0.00    +0.000 A 
ATOM      3  C3  UNL     1     -23.501   5.696 -38.953  0.00  0.00    +0.000 A 
ATOM      4  C4  UNL     1     -22.352   6.298 -38.431  0.00  0.00    +0.000 A 
ATOM      5  C5  UNL     1     -22.401   7.606 -37.943  0.00  0.00    +0.000 A 
ATOM      6  C6  UNL     1     -23.628   8.296 -37.961  0.00  0.00    +0.000 A 
ATOM      7  N1  UNL     1     -21.264   8.207 -37.380  0.00  0.00    +0.000 N 
ATOM      8  C7  UNL     1     -21.308   9.496 -36.925  0.00  0.00    +0.000 A 
ATOM      9  C8  UNL     1     -22.406  10.258 -36.900  0.00  0.00    +0.000 A 
ATOM     10  C9  UNL     1     -23.679   9.684 -37.418  0.00  0.00    +0.000 A 
ATOM     11  N2  UNL     1     -24.787  10.356 -37.409  0.00  0.00    +0.000 NA
ATOM     12  H5  UNL     1     -20.363   7.764 -37.510  0.00  0.00    +0.000 HD
ATOM     13  H8  UNL     1     -24.647  11.287 -37.005  0.00  0.00    +0.000 HD
ENDROOT
TORSDOF 0
ENDMDL
MODEL 6
REMARK VINA RESULT:    -4.349     17.954     19.534
REMARK INTER + INTRA:          -4.349
REMARK INTER:                  -4.349
REMARK INTRA:                   0.000
REMARK UNBOUND:                 0.000
REMARK  Name = /home/anacleto/Desktop/manuscript_Mpro/naturecomm/supplementary_file_S2/6-chemical-library/molecular_docking/3D_ligand_structure/196.pdb
REMARK  0 active torsions:
REMARK  status: ('A' for Active; 'I' for Inactive)
REMARK                            x       y       z     vdW  Elec       q    Type
REMARK                         _______ _______ _______ _____ _____    ______ ____
ROOT
ATOM      1  C1  UNL     1     -25.678  -4.660 -26.460  0.00  0.00    +0.000 A 
ATOM      2  C2  UNL     1     -25.419  -3.841 -27.559  0.00  0.00    +0.000 A 
ATOM      3  C3  UNL     1     -26.460  -3.468 -28.410  0.00  0.00    +0.000 A 
ATOM      4  C4  UNL     1     -27.763  -3.915 -28.170  0.00  0.00    +0.000 A 
ATOM      5  C5  UNL     1     -28.033  -4.749 -27.082  0.00  0.00    +0.000 A 
ATOM      6  C6  UNL     1     -26.980  -5.108 -26.219  0.00  0.00    +0.000 A 
ATOM      7  N1  UNL     1     -29.343  -5.171 -26.807  0.00  0.00    +0.000 N 
ATOM      8  C7  UNL     1     -29.602  -6.007 -25.756  0.00  0.00    +0.000 A 
ATOM      9  C8  UNL     1     -28.689  -6.428 -24.875  0.00  0.00    +0.000 A 
ATOM     10  C9  UNL     1     -27.279  -5.980 -25.046  0.00  0.00    +0.000 A 
ATOM     11  N2  UNL     1     -26.343  -6.332 -24.222  0.00  0.00    +0.000 NA
ATOM     12  H5  UNL     1     -30.057  -5.034 -27.511  0.00  0.00    +0.000 HD
ATOM     13  H8  UNL     1     -26.717  -6.928 -23.478  0.00  0.00    +0.000 HD
ENDROOT
TORSDOF 0
ENDMDL
MODEL 7
REMARK VINA RESULT:    -4.319     17.543     18.983
REMARK INTER + INTRA:          -4.319
REMARK INTER:                  -4.319
REMARK INTRA:                   0.000
REMARK UNBOUND:                 0.000
REMARK  Name = /home/anacleto/Desktop/manuscript_Mpro/naturecomm/supplementary_file_S2/6-chemical-library/molecular_docking/3D_ligand_structure/196.pdb
REMARK  0 active torsions:
REMARK  status: ('A' for Active; 'I' for Inactive)
REMARK                            x       y       z     vdW  Elec       q    Type
REMARK                         _______ _______ _______ _____ _____    ______ ____
ROOT
ATOM      1  C1  UNL     1     -26.084  -5.429 -25.248  0.00  0.00    +0.000 A 
ATOM      2  C2  UNL     1     -26.837  -6.258 -24.417  0.00  0.00    +0.000 A 
ATOM      3  C3  UNL     1     -28.186  -6.485 -24.697  0.00  0.00    +0.000 A 
ATOM      4  C4  UNL     1     -28.788  -5.882 -25.805  0.00  0.00    +0.000 A 
ATOM      5  C5  UNL     1     -28.049  -5.035 -26.636  0.00  0.00    +0.000 A 
ATOM      6  C6  UNL     1     -26.685  -4.824 -26.356  0.00  0.00    +0.000 A 
ATOM      7  N1  UNL     1     -28.632  -4.456 -27.773  0.00  0.00    +0.000 N 
ATOM      8  C7  UNL     1     -27.914  -3.609 -28.572  0.00  0.00    +0.000 A 
ATOM      9  C8  UNL     1     -26.619  -3.318 -28.405  0.00  0.00    +0.000 A 
ATOM     10  C9  UNL     1     -25.896  -3.938 -27.260  0.00  0.00    +0.000 A 
ATOM     11  N2  UNL     1     -24.637  -3.718 -27.044  0.00  0.00    +0.000 NA
ATOM     12  H5  UNL     1     -29.638  -4.491 -27.878  0.00  0.00    +0.000 HD
ATOM     13  H8  UNL     1     -24.250  -3.090 -27.754  0.00  0.00    +0.000 HD
ENDROOT
TORSDOF 0
ENDMDL
MODEL 8
REMARK VINA RESULT:    -4.299     28.987     30.230
REMARK INTER + INTRA:          -4.299
REMARK INTER:                  -4.299
REMARK INTRA:                   0.000
REMARK UNBOUND:                 0.000
REMARK  Name = /home/anacleto/Desktop/manuscript_Mpro/naturecomm/supplementary_file_S2/6-chemical-library/molecular_docking/3D_ligand_structure/196.pdb
REMARK  0 active torsions:
REMARK  status: ('A' for Active; 'I' for Inactive)
REMARK                            x       y       z     vdW  Elec       q    Type
REMARK                         _______ _______ _______ _____ _____    ______ ____
ROOT
ATOM      1  C1  UNL     1     -37.211   5.691 -14.694  0.00  0.00    +0.000 A 
ATOM      2  C2  UNL     1     -37.692   4.444 -14.297  0.00  0.00    +0.000 A 
ATOM      3  C3  UNL     1     -39.029   4.300 -13.921  0.00  0.00    +0.000 A 
ATOM      4  C4  UNL     1     -39.889   5.402 -13.937  0.00  0.00    +0.000 A 
ATOM      5  C5  UNL     1     -39.416   6.661 -14.318  0.00  0.00    +0.000 A 
ATOM      6  C6  UNL     1     -38.070   6.795 -14.709  0.00  0.00    +0.000 A 
ATOM      7  N1  UNL     1     -40.279   7.766 -14.376  0.00  0.00    +0.000 N 
ATOM      8  C7  UNL     1     -39.809   9.002 -14.724  0.00  0.00    +0.000 A 
ATOM      9  C8  UNL     1     -38.553   9.261 -15.103  0.00  0.00    +0.000 A 
ATOM     10  C9  UNL     1     -37.577   8.136 -15.135  0.00  0.00    +0.000 A 
ATOM     11  N2  UNL     1     -36.347   8.306 -15.509  0.00  0.00    +0.000 NA
ATOM     12  H5  UNL     1     -41.195   7.693 -13.951  0.00  0.00    +0.000 HD
ATOM     13  H8  UNL     1     -36.176   9.282 -15.767  0.00  0.00    +0.000 HD
ENDROOT
TORSDOF 0
ENDMDL
MODEL 9
REMARK VINA RESULT:    -4.120     17.395     18.799
REMARK INTER + INTRA:          -4.120
REMARK INTER:                  -4.120
REMARK INTRA:                   0.000
REMARK UNBOUND:                 0.000
REMARK  Name = /home/anacleto/Desktop/manuscript_Mpro/naturecomm/supplementary_file_S2/6-chemical-library/molecular_docking/3D_ligand_structure/196.pdb
REMARK  0 active torsions:
REMARK  status: ('A' for Active; 'I' for Inactive)
REMARK                            x       y       z     vdW  Elec       q    Type
REMARK                         _______ _______ _______ _____ _____    ______ ____
ROOT
ATOM      1  C1  UNL     1     -28.463  -5.327 -26.294  0.00  0.00    +0.000 A 
ATOM      2  C2  UNL     1     -28.466  -6.069 -25.113  0.00  0.00    +0.000 A 
ATOM      3  C3  UNL     1     -27.266  -6.326 -24.448  0.00  0.00    +0.000 A 
ATOM      4  C4  UNL     1     -26.058  -5.847 -24.962  0.00  0.00    +0.000 A 
ATOM      5  C5  UNL     1     -26.038  -5.116 -26.153  0.00  0.00    +0.000 A 
ATOM      6  C6  UNL     1     -27.254  -4.848 -26.809  0.00  0.00    +0.000 A 
ATOM      7  N1  UNL     1     -24.836  -4.596 -26.657  0.00  0.00    +0.000 N 
ATOM      8  C7  UNL     1     -24.815  -3.902 -27.836  0.00  0.00    +0.000 A 
ATOM      9  C8  UNL     1     -25.898  -3.594 -28.558  0.00  0.00    +0.000 A 
ATOM     10  C9  UNL     1     -27.229  -4.048 -28.068  0.00  0.00    +0.000 A 
ATOM     11  N2  UNL     1     -28.324  -3.772 -28.704  0.00  0.00    +0.000 NA
ATOM     12  H5  UNL     1     -23.962  -4.921 -26.265  0.00  0.00    +0.000 HD
ATOM     13  H8  UNL     1     -28.129  -3.219 -29.544  0.00  0.00    +0.000 HD
ENDROOT
TORSDOF 0
ENDMDL
