MODEL 1
REMARK VINA RESULT:    -4.674      0.000      0.000
REMARK INTER + INTRA:          -5.029
REMARK INTER:                  -4.909
REMARK INTRA:                  -0.120
REMARK UNBOUND:                -0.081
REMARK  Name = /home/anacleto/Desktop/manuscript_Mpro/naturecomm/supplementary_file_S2/6-chemical-library/molecular_docking/3D_ligand_structure/932.pdb
REMARK  1 active torsions:
REMARK  status: ('A' for Active; 'I' for Inactive)
REMARK    1  A    between atoms: C5_7  and  C6_9
REMARK                            x       y       z     vdW  Elec       q    Type
REMARK                         _______ _______ _______ _____ _____    ______ ____
ROOT
ATOM      1  C1  UNL     1      14.617  13.986  -3.438  0.00  0.00    +0.000 C 
ATOM      2  C2  UNL     1      14.125  14.888  -2.291  0.00  0.00    +0.000 C 
ATOM      3  N1  UNL     1      15.202  15.444  -1.457  0.00  0.00    +0.000 NA
ATOM      4  C3  UNL     1      16.350  14.529  -1.337  0.00  0.00    +0.000 C 
ATOM      5  C4  UNL     1      16.047  13.050  -1.632  0.00  0.00    +0.000 C 
ATOM      6  N2  UNL     1      15.430  12.865  -2.945  0.00  0.00    +0.000 N 
ATOM      7  C5  UNL     1      15.458  11.594  -3.507  0.00  0.00    +0.000 C 
ATOM      8  O1  UNL     1      15.898  10.609  -2.921  0.00  0.00    +0.000 OA
ATOM      9  H5  UNL     1      14.828  15.651  -0.531  0.00  0.00    +0.000 HD
ENDROOT
BRANCH   7  10
ATOM     10  C6  UNL     1      14.937  11.403  -4.878  0.00  0.00    +0.000 A 
ATOM     11  C7  UNL     1      15.695  11.766  -5.991  0.00  0.00    +0.000 A 
ATOM     12  C8  UNL     1      15.148  11.534  -7.238  0.00  0.00    +0.000 A 
ATOM     13  N3  UNL     1      13.934  10.974  -7.433  0.00  0.00    +0.000 NA
ATOM     14  C9  UNL     1      13.242  10.603  -6.332  0.00  0.00    +0.000 A 
ATOM     15  C10 UNL     1      13.698  10.791  -5.042  0.00  0.00    +0.000 A 
ENDBRANCH   7  10
TORSDOF 1
ENDMDL
MODEL 2
REMARK VINA RESULT:    -4.463      1.282      5.247
REMARK INTER + INTRA:          -4.804
REMARK INTER:                  -4.678
REMARK INTRA:                  -0.127
REMARK UNBOUND:                -0.081
REMARK  Name = /home/anacleto/Desktop/manuscript_Mpro/naturecomm/supplementary_file_S2/6-chemical-library/molecular_docking/3D_ligand_structure/932.pdb
REMARK  1 active torsions:
REMARK  status: ('A' for Active; 'I' for Inactive)
REMARK    1  A    between atoms: C5_7  and  C6_9
REMARK                            x       y       z     vdW  Elec       q    Type
REMARK                         _______ _______ _______ _____ _____    ______ ____
ROOT
ATOM      1  C1  UNL     1      14.605  13.197  -5.376  0.00  0.00    +0.000 C 
ATOM      2  C2  UNL     1      14.927  12.427  -6.671  0.00  0.00    +0.000 C 
ATOM      3  N1  UNL     1      14.006  11.316  -6.956  0.00  0.00    +0.000 NA
ATOM      4  C3  UNL     1      13.504  10.672  -5.729  0.00  0.00    +0.000 C 
ATOM      5  C4  UNL     1      14.360  10.894  -4.472  0.00  0.00    +0.000 C 
ATOM      6  N2  UNL     1      14.586  12.314  -4.202  0.00  0.00    +0.000 N 
ATOM      7  C5  UNL     1      14.992  12.680  -2.924  0.00  0.00    +0.000 C 
ATOM      8  O1  UNL     1      15.250  11.866  -2.041  0.00  0.00    +0.000 OA
ATOM      9  H5  UNL     1      14.489  10.627  -7.533  0.00  0.00    +0.000 HD
ENDROOT
BRANCH   7  10
ATOM     10  C6  UNL     1      15.124  14.116  -2.596  0.00  0.00    +0.000 A 
ATOM     11  C7  UNL     1      14.010  14.878  -2.250  0.00  0.00    +0.000 A 
ATOM     12  C8  UNL     1      14.218  16.207  -1.934  0.00  0.00    +0.000 A 
ATOM     13  N3  UNL     1      15.434  16.796  -1.935  0.00  0.00    +0.000 NA
ATOM     14  C9  UNL     1      16.497  16.018  -2.242  0.00  0.00    +0.000 A 
ATOM     15  C10 UNL     1      16.396  14.681  -2.573  0.00  0.00    +0.000 A 
ENDBRANCH   7  10
TORSDOF 1
ENDMDL
MODEL 3
REMARK VINA RESULT:    -4.332      2.624      5.180
REMARK INTER + INTRA:          -4.666
REMARK INTER:                  -4.539
REMARK INTRA:                  -0.127
REMARK UNBOUND:                -0.081
REMARK  Name = /home/anacleto/Desktop/manuscript_Mpro/naturecomm/supplementary_file_S2/6-chemical-library/molecular_docking/3D_ligand_structure/932.pdb
REMARK  1 active torsions:
REMARK  status: ('A' for Active; 'I' for Inactive)
REMARK    1  A    between atoms: C5_7  and  C6_9
REMARK                            x       y       z     vdW  Elec       q    Type
REMARK                         _______ _______ _______ _____ _____    ______ ____
ROOT
ATOM      1  C1  UNL     1      14.183  11.197  -4.888  0.00  0.00    +0.000 C 
ATOM      2  C2  UNL     1      12.821  11.676  -5.425  0.00  0.00    +0.000 C 
ATOM      3  N1  UNL     1      12.372  10.976  -6.639  0.00  0.00    +0.000 NA
ATOM      4  C3  UNL     1      13.494  10.575  -7.506  0.00  0.00    +0.000 C 
ATOM      5  C4  UNL     1      14.802  11.355  -7.291  0.00  0.00    +0.000 C 
ATOM      6  N2  UNL     1      15.244  11.317  -5.898  0.00  0.00    +0.000 N 
ATOM      7  C5  UNL     1      16.572  11.626  -5.625  0.00  0.00    +0.000 C 
ATOM      8  O1  UNL     1      17.364  12.010  -6.482  0.00  0.00    +0.000 OA
ATOM      9  H5  UNL     1      11.738  11.585  -7.155  0.00  0.00    +0.000 HD
ENDROOT
BRANCH   7  10
ATOM     10  C6  UNL     1      17.071  11.492  -4.239  0.00  0.00    +0.000 A 
ATOM     11  C7  UNL     1      17.512  10.263  -3.752  0.00  0.00    +0.000 A 
ATOM     12  C8  UNL     1      17.986  10.223  -2.454  0.00  0.00    +0.000 A 
ATOM     13  N3  UNL     1      18.049  11.304  -1.646  0.00  0.00    +0.000 NA
ATOM     14  C9  UNL     1      17.645  12.486  -2.163  0.00  0.00    +0.000 A 
ATOM     15  C10 UNL     1      17.155  12.633  -3.447  0.00  0.00    +0.000 A 
ENDBRANCH   7  10
TORSDOF 1
ENDMDL
MODEL 4
REMARK VINA RESULT:    -4.288      2.331      5.490
REMARK INTER + INTRA:          -4.619
REMARK INTER:                  -4.554
REMARK INTRA:                  -0.065
REMARK UNBOUND:                -0.081
REMARK  Name = /home/anacleto/Desktop/manuscript_Mpro/naturecomm/supplementary_file_S2/6-chemical-library/molecular_docking/3D_ligand_structure/932.pdb
REMARK  1 active torsions:
REMARK  status: ('A' for Active; 'I' for Inactive)
REMARK    1  A    between atoms: C5_7  and  C6_9
REMARK                            x       y       z     vdW  Elec       q    Type
REMARK                         _______ _______ _______ _____ _____    ______ ____
ROOT
ATOM      1  C1  UNL     1      14.387  13.853  -3.817  0.00  0.00    +0.000 C 
ATOM      2  C2  UNL     1      15.013  12.995  -4.933  0.00  0.00    +0.000 C 
ATOM      3  N1  UNL     1      15.141  11.568  -4.596  0.00  0.00    +0.000 NA
ATOM      4  C3  UNL     1      15.393  11.349  -3.161  0.00  0.00    +0.000 C 
ATOM      5  C4  UNL     1      15.968  12.557  -2.402  0.00  0.00    +0.000 C 
ATOM      6  N2  UNL     1      15.140  13.752  -2.559  0.00  0.00    +0.000 N 
ATOM      7  C5  UNL     1      15.302  14.785  -1.643  0.00  0.00    +0.000 C 
ATOM      8  O1  UNL     1      16.162  14.778  -0.766  0.00  0.00    +0.000 OA
ATOM      9  H5  UNL     1      15.900  11.167  -5.145  0.00  0.00    +0.000 HD
ENDROOT
BRANCH   7  10
ATOM     10  C6  UNL     1      14.404  15.957  -1.716  0.00  0.00    +0.000 A 
ATOM     11  C7  UNL     1      14.843  17.165  -2.255  0.00  0.00    +0.000 A 
ATOM     12  C8  UNL     1      13.937  18.207  -2.309  0.00  0.00    +0.000 A 
ATOM     13  N3  UNL     1      12.660  18.113  -1.877  0.00  0.00    +0.000 NA
ATOM     14  C9  UNL     1      12.259  16.917  -1.392  0.00  0.00    +0.000 A 
ATOM     15  C10 UNL     1      13.085  15.814  -1.295  0.00  0.00    +0.000 A 
ENDBRANCH   7  10
TORSDOF 1
ENDMDL
MODEL 5
REMARK VINA RESULT:    -4.265      1.777      2.098
REMARK INTER + INTRA:          -4.595
REMARK INTER:                  -4.476
REMARK INTRA:                  -0.119
REMARK UNBOUND:                -0.081
REMARK  Name = /home/anacleto/Desktop/manuscript_Mpro/naturecomm/supplementary_file_S2/6-chemical-library/molecular_docking/3D_ligand_structure/932.pdb
REMARK  1 active torsions:
REMARK  status: ('A' for Active; 'I' for Inactive)
REMARK    1  A    between atoms: C5_7  and  C6_9
REMARK                            x       y       z     vdW  Elec       q    Type
REMARK                         _______ _______ _______ _____ _____    ______ ____
ROOT
ATOM      1  C1  UNL     1      16.684  13.202  -2.377  0.00  0.00    +0.000 C 
ATOM      2  C2  UNL     1      16.726  13.857  -0.983  0.00  0.00    +0.000 C 
ATOM      3  N1  UNL     1      18.075  13.949  -0.402  0.00  0.00    +0.000 NA
ATOM      4  C3  UNL     1      18.938  12.823  -0.799  0.00  0.00    +0.000 C 
ATOM      5  C4  UNL     1      18.197  11.563  -1.278  0.00  0.00    +0.000 C 
ATOM      6  N2  UNL     1      17.265  11.853  -2.368  0.00  0.00    +0.000 N 
ATOM      7  C5  UNL     1      16.827  10.792  -3.152  0.00  0.00    +0.000 C 
ATOM      8  O1  UNL     1      17.116   9.620  -2.922  0.00  0.00    +0.000 OA
ATOM      9  H5  UNL     1      17.994  13.980   0.614  0.00  0.00    +0.000 HD
ENDROOT
BRANCH   7  10
ATOM     10  C6  UNL     1      15.971  11.071  -4.324  0.00  0.00    +0.000 A 
ATOM     11  C7  UNL     1      16.529  11.374  -5.565  0.00  0.00    +0.000 A 
ATOM     12  C8  UNL     1      15.663  11.600  -6.618  0.00  0.00    +0.000 A 
ATOM     13  N3  UNL     1      14.317  11.534  -6.508  0.00  0.00    +0.000 NA
ATOM     14  C9  UNL     1      13.812  11.203  -5.299  0.00  0.00    +0.000 A 
ATOM     15  C10 UNL     1      14.590  10.958  -4.184  0.00  0.00    +0.000 A 
ENDBRANCH   7  10
TORSDOF 1
ENDMDL
MODEL 6
REMARK VINA RESULT:    -4.188      2.643      6.351
REMARK INTER + INTRA:          -4.514
REMARK INTER:                  -4.417
REMARK INTRA:                  -0.097
REMARK UNBOUND:                -0.081
REMARK  Name = /home/anacleto/Desktop/manuscript_Mpro/naturecomm/supplementary_file_S2/6-chemical-library/molecular_docking/3D_ligand_structure/932.pdb
REMARK  1 active torsions:
REMARK  status: ('A' for Active; 'I' for Inactive)
REMARK    1  A    between atoms: C5_7  and  C6_9
REMARK                            x       y       z     vdW  Elec       q    Type
REMARK                         _______ _______ _______ _____ _____    ______ ____
ROOT
ATOM      1  C1  UNL     1      16.461  15.156  -3.008  0.00  0.00    +0.000 C 
ATOM      2  C2  UNL     1      16.386  14.948  -4.532  0.00  0.00    +0.000 C 
ATOM      3  N1  UNL     1      15.089  14.444  -5.009  0.00  0.00    +0.000 NA
ATOM      4  C3  UNL     1      14.438  13.552  -4.033  0.00  0.00    +0.000 C 
ATOM      5  C4  UNL     1      15.376  12.918  -2.993  0.00  0.00    +0.000 C 
ATOM      6  N2  UNL     1      16.157  13.922  -2.270  0.00  0.00    +0.000 N 
ATOM      7  C5  UNL     1      16.739  13.552  -1.063  0.00  0.00    +0.000 C 
ATOM      8  O1  UNL     1      16.701  12.407  -0.620  0.00  0.00    +0.000 OA
ATOM      9  H5  UNL     1      15.232  13.947  -5.888  0.00  0.00    +0.000 HD
ENDROOT
BRANCH   7  10
ATOM     10  C6  UNL     1      17.442  14.576  -0.261  0.00  0.00    +0.000 A 
ATOM     11  C7  UNL     1      16.733  15.542   0.451  0.00  0.00    +0.000 A 
ATOM     12  C8  UNL     1      17.460  16.450   1.195  0.00  0.00    +0.000 A 
ATOM     13  N3  UNL     1      18.810  16.444   1.274  0.00  0.00    +0.000 NA
ATOM     14  C9  UNL     1      19.464  15.472   0.599  0.00  0.00    +0.000 A 
ATOM     15  C10 UNL     1      18.830  14.518  -0.173  0.00  0.00    +0.000 A 
ENDBRANCH   7  10
TORSDOF 1
ENDMDL
MODEL 7
REMARK VINA RESULT:    -4.170      3.916      7.000
REMARK INTER + INTRA:          -4.495
REMARK INTER:                  -4.372
REMARK INTRA:                  -0.123
REMARK UNBOUND:                -0.081
REMARK  Name = /home/anacleto/Desktop/manuscript_Mpro/naturecomm/supplementary_file_S2/6-chemical-library/molecular_docking/3D_ligand_structure/932.pdb
REMARK  1 active torsions:
REMARK  status: ('A' for Active; 'I' for Inactive)
REMARK    1  A    between atoms: C5_7  and  C6_9
REMARK                            x       y       z     vdW  Elec       q    Type
REMARK                         _______ _______ _______ _____ _____    ______ ____
ROOT
ATOM      1  C1  UNL     1      16.488  15.518  -2.373  0.00  0.00    +0.000 C 
ATOM      2  C2  UNL     1      15.565  14.669  -3.267  0.00  0.00    +0.000 C 
ATOM      3  N1  UNL     1      14.232  15.253  -3.485  0.00  0.00    +0.000 NA
ATOM      4  C3  UNL     1      13.757  16.020  -2.320  0.00  0.00    +0.000 C 
ATOM      5  C4  UNL     1      14.433  15.672  -0.983  0.00  0.00    +0.000 C 
ATOM      6  N2  UNL     1      15.890  15.779  -1.057  0.00  0.00    +0.000 N 
ATOM      7  C5  UNL     1      16.599  15.880   0.134  0.00  0.00    +0.000 C 
ATOM      8  O1  UNL     1      16.072  15.800   1.241  0.00  0.00    +0.000 OA
ATOM      9  H5  UNL     1      13.574  14.503  -3.695  0.00  0.00    +0.000 HD
ENDROOT
BRANCH   7  10
ATOM     10  C6  UNL     1      18.061  16.097   0.084  0.00  0.00    +0.000 A 
ATOM     11  C7  UNL     1      18.593  17.381  -0.018  0.00  0.00    +0.000 A 
ATOM     12  C8  UNL     1      19.969  17.503  -0.036  0.00  0.00    +0.000 A 
ATOM     13  N3  UNL     1      20.816  16.452   0.047  0.00  0.00    +0.000 NA
ATOM     14  C9  UNL     1      20.265  15.225   0.179  0.00  0.00    +0.000 A 
ATOM     15  C10 UNL     1      18.903  14.996   0.207  0.00  0.00    +0.000 A 
ENDBRANCH   7  10
TORSDOF 1
ENDMDL
MODEL 8
REMARK VINA RESULT:    -4.112     15.752     17.592
REMARK INTER + INTRA:          -4.434
REMARK INTER:                  -4.316
REMARK INTRA:                  -0.117
REMARK UNBOUND:                -0.081
REMARK  Name = /home/anacleto/Desktop/manuscript_Mpro/naturecomm/supplementary_file_S2/6-chemical-library/molecular_docking/3D_ligand_structure/932.pdb
REMARK  1 active torsions:
REMARK  status: ('A' for Active; 'I' for Inactive)
REMARK    1  A    between atoms: C5_7  and  C6_9
REMARK                            x       y       z     vdW  Elec       q    Type
REMARK                         _______ _______ _______ _____ _____    ______ ____
ROOT
ATOM      1  C1  UNL     1      21.579   6.908  12.425  0.00  0.00    +0.000 C 
ATOM      2  C2  UNL     1      22.615   7.651  13.290  0.00  0.00    +0.000 C 
ATOM      3  N1  UNL     1      22.567   7.305  14.719  0.00  0.00    +0.000 NA
ATOM      4  C3  UNL     1      21.202   6.989  15.176  0.00  0.00    +0.000 C 
ATOM      5  C4  UNL     1      20.069   7.542  14.296  0.00  0.00    +0.000 C 
ATOM      6  N2  UNL     1      20.207   7.134  12.898  0.00  0.00    +0.000 N 
ATOM      7  C5  UNL     1      19.086   7.218  12.079  0.00  0.00    +0.000 C 
ATOM      8  O1  UNL     1      18.016   7.695  12.449  0.00  0.00    +0.000 OA
ATOM      9  H5  UNL     1      22.939   8.086  15.260  0.00  0.00    +0.000 HD
ENDROOT
BRANCH   7  10
ATOM     10  C6  UNL     1      19.170   6.711  10.693  0.00  0.00    +0.000 A 
ATOM     11  C7  UNL     1      18.898   5.376  10.399  0.00  0.00    +0.000 A 
ATOM     12  C8  UNL     1      18.975   4.985   9.076  0.00  0.00    +0.000 A 
ATOM     13  N3  UNL     1      19.290   5.823   8.063  0.00  0.00    +0.000 NA
ATOM     14  C9  UNL     1      19.513   7.118   8.381  0.00  0.00    +0.000 A 
ATOM     15  C10 UNL     1      19.462   7.610   9.671  0.00  0.00    +0.000 A 
ENDBRANCH   7  10
TORSDOF 1
ENDMDL
MODEL 9
REMARK VINA RESULT:    -4.042      1.950      5.413
REMARK INTER + INTRA:          -4.359
REMARK INTER:                  -4.278
REMARK INTRA:                  -0.081
REMARK UNBOUND:                -0.081
REMARK  Name = /home/anacleto/Desktop/manuscript_Mpro/naturecomm/supplementary_file_S2/6-chemical-library/molecular_docking/3D_ligand_structure/932.pdb
REMARK  1 active torsions:
REMARK  status: ('A' for Active; 'I' for Inactive)
REMARK    1  A    between atoms: C5_7  and  C6_9
REMARK                            x       y       z     vdW  Elec       q    Type
REMARK                         _______ _______ _______ _____ _____    ______ ____
ROOT
ATOM      1  C1  UNL     1      16.168  13.096  -4.289  0.00  0.00    +0.000 C 
ATOM      2  C2  UNL     1      16.027  12.761  -5.786  0.00  0.00    +0.000 C 
ATOM      3  N1  UNL     1      14.643  12.511  -6.219  0.00  0.00    +0.000 NA
ATOM      4  C3  UNL     1      13.828  11.883  -5.165  0.00  0.00    +0.000 C 
ATOM      5  C4  UNL     1      14.620  11.163  -4.061  0.00  0.00    +0.000 C 
ATOM      6  N2  UNL     1      15.612  12.037  -3.435  0.00  0.00    +0.000 N 
ATOM      7  C5  UNL     1      16.118  11.668  -2.194  0.00  0.00    +0.000 C 
ATOM      8  O1  UNL     1      15.836  10.608  -1.640  0.00  0.00    +0.000 OA
ATOM      9  H5  UNL     1      14.661  11.911  -7.044  0.00  0.00    +0.000 HD
ENDROOT
BRANCH   7  10
ATOM     10  C6  UNL     1      17.040  12.585  -1.492  0.00  0.00    +0.000 A 
ATOM     11  C7  UNL     1      16.578  13.772  -0.924  0.00  0.00    +0.000 A 
ATOM     12  C8  UNL     1      17.497  14.565  -0.264  0.00  0.00    +0.000 A 
ATOM     13  N3  UNL     1      18.805  14.249  -0.137  0.00  0.00    +0.000 NA
ATOM     14  C9  UNL     1      19.211  13.075  -0.670  0.00  0.00    +0.000 A 
ATOM     15  C10 UNL     1      18.373  12.211  -1.348  0.00  0.00    +0.000 A 
ENDBRANCH   7  10
TORSDOF 1
ENDMDL
