MODEL 1
REMARK VINA RESULT:    -4.060      0.000      0.000
REMARK INTER + INTRA:          -4.658
REMARK INTER:                  -4.505
REMARK INTRA:                  -0.153
REMARK UNBOUND:                -0.123
REMARK  Name = /home/anacleto/Desktop/manuscript_Mpro/naturecomm/supplementary_file_S2/6-chemical-library/molecular_docking/3D_ligand_structure/1188.pdb
REMARK  2 active torsions:
REMARK  status: ('A' for Active; 'I' for Inactive)
REMARK    1  A    between atoms: C4_5  and  C5_6
REMARK    2  A    between atoms: C5_6  and  N1_7
REMARK                            x       y       z     vdW  Elec       q    Type
REMARK                         _______ _______ _______ _____ _____    ______ ____
ROOT
ATOM      1  N1  UNL     1      19.139   5.667   9.582  0.00  0.00    +0.000 NA
ATOM      2  C6  UNL     1      20.152   5.918  10.629  0.00  0.00    +0.000 C 
ATOM      3  C7  UNL     1      21.478   6.505  10.101  0.00  0.00    +0.000 C 
ATOM      4  N2  UNL     1      21.326   7.784   9.388  0.00  0.00    +0.000 NA
ATOM      5  C8  UNL     1      19.977   7.923   8.813  0.00  0.00    +0.000 C 
ATOM      6  C9  UNL     1      19.325   6.578   8.429  0.00  0.00    +0.000 C 
ATOM      7  H10 UNL     1      22.022   7.829   8.646  0.00  0.00    +0.000 HD
ENDROOT
BRANCH   1   8
ATOM      8  C5  UNL     1      19.127   4.257   9.170  0.00  0.00    +0.000 C 
BRANCH   8  13
ATOM      9  C1  UNL     1      17.089   3.495  10.547  0.00  0.00    +0.000 A 
ATOM     10  O1  UNL     1      15.872   2.932  10.334  0.00  0.00    +0.000 OA
ATOM     11  C2  UNL     1      15.756   2.736   8.997  0.00  0.00    +0.000 A 
ATOM     12  C3  UNL     1      16.888   3.171   8.350  0.00  0.00    +0.000 A 
ATOM     13  C4  UNL     1      17.769   3.665   9.356  0.00  0.00    +0.000 A 
ENDBRANCH   8  13
ENDBRANCH   1   8
TORSDOF 2
ENDMDL
MODEL 2
REMARK VINA RESULT:    -4.012     14.512     15.504
REMARK INTER + INTRA:          -4.604
REMARK INTER:                  -4.441
REMARK INTRA:                  -0.162
REMARK UNBOUND:                -0.123
REMARK  Name = /home/anacleto/Desktop/manuscript_Mpro/naturecomm/supplementary_file_S2/6-chemical-library/molecular_docking/3D_ligand_structure/1188.pdb
REMARK  2 active torsions:
REMARK  status: ('A' for Active; 'I' for Inactive)
REMARK    1  A    between atoms: C4_5  and  C5_6
REMARK    2  A    between atoms: C5_6  and  N1_7
REMARK                            x       y       z     vdW  Elec       q    Type
REMARK                         _______ _______ _______ _____ _____    ______ ____
ROOT
ATOM      1  N1  UNL     1      15.415  11.865  -2.899  0.00  0.00    +0.000 NA
ATOM      2  C6  UNL     1      15.745  11.304  -1.571  0.00  0.00    +0.000 C 
ATOM      3  C7  UNL     1      17.015  11.900  -0.929  0.00  0.00    +0.000 C 
ATOM      4  N2  UNL     1      16.962  13.358  -0.736  0.00  0.00    +0.000 NA
ATOM      5  C8  UNL     1      16.044  13.995  -1.695  0.00  0.00    +0.000 C 
ATOM      6  C9  UNL     1      15.933  13.246  -3.040  0.00  0.00    +0.000 C 
ATOM      7  H10 UNL     1      17.900  13.737  -0.854  0.00  0.00    +0.000 HD
ENDROOT
BRANCH   1   8
ATOM      8  C5  UNL     1      15.881  10.992  -3.984  0.00  0.00    +0.000 C 
BRANCH   8  13
ATOM      9  C1  UNL     1      15.233  11.563  -6.410  0.00  0.00    +0.000 A 
ATOM     10  O1  UNL     1      14.153  11.458  -7.225  0.00  0.00    +0.000 OA
ATOM     11  C2  UNL     1      13.163  10.884  -6.496  0.00  0.00    +0.000 A 
ATOM     12  C3  UNL     1      13.601  10.618  -5.221  0.00  0.00    +0.000 A 
ATOM     13  C4  UNL     1      14.954  11.064  -5.153  0.00  0.00    +0.000 A 
ENDBRANCH   8  13
ENDBRANCH   1   8
TORSDOF 2
ENDMDL
MODEL 3
REMARK VINA RESULT:    -3.925     13.086     14.126
REMARK INTER + INTRA:          -4.507
REMARK INTER:                  -4.358
REMARK INTRA:                  -0.149
REMARK UNBOUND:                -0.123
REMARK  Name = /home/anacleto/Desktop/manuscript_Mpro/naturecomm/supplementary_file_S2/6-chemical-library/molecular_docking/3D_ligand_structure/1188.pdb
REMARK  2 active torsions:
REMARK  status: ('A' for Active; 'I' for Inactive)
REMARK    1  A    between atoms: C4_5  and  C5_6
REMARK    2  A    between atoms: C5_6  and  N1_7
REMARK                            x       y       z     vdW  Elec       q    Type
REMARK                         _______ _______ _______ _____ _____    ______ ____
ROOT
ATOM      1  N1  UNL     1      17.904  12.138  -1.897  0.00  0.00    +0.000 NA
ATOM      2  C6  UNL     1      18.536  11.759  -3.179  0.00  0.00    +0.000 C 
ATOM      3  C7  UNL     1      18.426  10.258  -3.521  0.00  0.00    +0.000 C 
ATOM      4  N2  UNL     1      17.043   9.761  -3.605  0.00  0.00    +0.000 NA
ATOM      5  C8  UNL     1      16.128  10.577  -2.788  0.00  0.00    +0.000 C 
ATOM      6  C9  UNL     1      16.799  11.213  -1.552  0.00  0.00    +0.000 C 
ATOM      7  H10 UNL     1      17.023   8.795  -3.282  0.00  0.00    +0.000 HD
ENDROOT
BRANCH   1   8
ATOM      8  C5  UNL     1      18.893  12.236  -0.816  0.00  0.00    +0.000 C 
BRANCH   8  13
ATOM      9  C1  UNL     1      17.896  14.533  -0.217  0.00  0.00    +0.000 A 
ATOM     10  O1  UNL     1      18.293  15.693   0.366  0.00  0.00    +0.000 OA
ATOM     11  C2  UNL     1      19.598  15.537   0.705  0.00  0.00    +0.000 A 
ATOM     12  C3  UNL     1      20.039  14.286   0.346  0.00  0.00    +0.000 A 
ATOM     13  C4  UNL     1      18.933  13.623  -0.263  0.00  0.00    +0.000 A 
ENDBRANCH   8  13
ENDBRANCH   1   8
TORSDOF 2
ENDMDL
MODEL 4
REMARK VINA RESULT:    -3.915      3.216      4.340
REMARK INTER + INTRA:          -4.496
REMARK INTER:                  -4.338
REMARK INTRA:                  -0.158
REMARK UNBOUND:                -0.123
REMARK  Name = /home/anacleto/Desktop/manuscript_Mpro/naturecomm/supplementary_file_S2/6-chemical-library/molecular_docking/3D_ligand_structure/1188.pdb
REMARK  2 active torsions:
REMARK  status: ('A' for Active; 'I' for Inactive)
REMARK    1  A    between atoms: C4_5  and  C5_6
REMARK    2  A    between atoms: C5_6  and  N1_7
REMARK                            x       y       z     vdW  Elec       q    Type
REMARK                         _______ _______ _______ _____ _____    ______ ____
ROOT
ATOM      1  N1  UNL     1      19.492   6.819  11.474  0.00  0.00    +0.000 NA
ATOM      2  C6  UNL     1      19.272   6.945  10.017  0.00  0.00    +0.000 C 
ATOM      3  C7  UNL     1      20.401   7.682   9.266  0.00  0.00    +0.000 C 
ATOM      4  N2  UNL     1      21.725   7.055   9.409  0.00  0.00    +0.000 NA
ATOM      5  C8  UNL     1      21.820   6.276  10.654  0.00  0.00    +0.000 C 
ATOM      6  C9  UNL     1      20.938   6.821  11.798  0.00  0.00    +0.000 C 
ATOM      7  H10 UNL     1      22.434   7.787   9.406  0.00  0.00    +0.000 HD
ENDROOT
BRANCH   1   8
ATOM      8  C5  UNL     1      18.762   7.850  12.221  0.00  0.00    +0.000 C 
BRANCH   8  13
ATOM      9  C1  UNL     1      17.268   5.937  13.082  0.00  0.00    +0.000 A 
ATOM     10  O1  UNL     1      16.375   5.715  14.080  0.00  0.00    +0.000 OA
ATOM     11  C2  UNL     1      16.284   6.868  14.791  0.00  0.00    +0.000 A 
ATOM     12  C3  UNL     1      17.113   7.826  14.257  0.00  0.00    +0.000 A 
ATOM     13  C4  UNL     1      17.758   7.228  13.135  0.00  0.00    +0.000 A 
ENDBRANCH   8  13
ENDBRANCH   1   8
TORSDOF 2
ENDMDL
MODEL 5
REMARK VINA RESULT:    -3.853     14.999     16.052
REMARK INTER + INTRA:          -4.426
REMARK INTER:                  -4.256
REMARK INTRA:                  -0.170
REMARK UNBOUND:                -0.123
REMARK  Name = /home/anacleto/Desktop/manuscript_Mpro/naturecomm/supplementary_file_S2/6-chemical-library/molecular_docking/3D_ligand_structure/1188.pdb
REMARK  2 active torsions:
REMARK  status: ('A' for Active; 'I' for Inactive)
REMARK    1  A    between atoms: C4_5  and  C5_6
REMARK    2  A    between atoms: C5_6  and  N1_7
REMARK                            x       y       z     vdW  Elec       q    Type
REMARK                         _______ _______ _______ _____ _____    ______ ____
ROOT
ATOM      1  N1  UNL     1      15.850  12.265  -3.832  0.00  0.00    +0.000 NA
ATOM      2  C6  UNL     1      16.576  13.327  -3.102  0.00  0.00    +0.000 C 
ATOM      3  C7  UNL     1      16.387  13.288  -1.571  0.00  0.00    +0.000 C 
ATOM      4  N2  UNL     1      16.810  12.024  -0.946  0.00  0.00    +0.000 NA
ATOM      5  C8  UNL     1      16.743  10.903  -1.899  0.00  0.00    +0.000 C 
ATOM      6  C9  UNL     1      15.652  11.070  -2.978  0.00  0.00    +0.000 C 
ATOM      7  H10 UNL     1      16.204  11.835  -0.150  0.00  0.00    +0.000 HD
ENDROOT
BRANCH   1   8
ATOM      8  C5  UNL     1      14.583  12.759  -4.384  0.00  0.00    +0.000 C 
BRANCH   8  13
ATOM      9  C1  UNL     1      14.889  11.826  -6.764  0.00  0.00    +0.000 A 
ATOM     10  O1  UNL     1      14.228  11.019  -7.633  0.00  0.00    +0.000 OA
ATOM     11  C2  UNL     1      13.086  10.627  -7.014  0.00  0.00    +0.000 A 
ATOM     12  C3  UNL     1      13.011  11.173  -5.756  0.00  0.00    +0.000 A 
ATOM     13  C4  UNL     1      14.185  11.965  -5.584  0.00  0.00    +0.000 A 
ENDBRANCH   8  13
ENDBRANCH   1   8
TORSDOF 2
ENDMDL
MODEL 6
REMARK VINA RESULT:    -3.771     14.877     15.931
REMARK INTER + INTRA:          -4.335
REMARK INTER:                  -4.640
REMARK INTRA:                   0.305
REMARK UNBOUND:                -0.123
REMARK  Name = /home/anacleto/Desktop/manuscript_Mpro/naturecomm/supplementary_file_S2/6-chemical-library/molecular_docking/3D_ligand_structure/1188.pdb
REMARK  2 active torsions:
REMARK  status: ('A' for Active; 'I' for Inactive)
REMARK    1  A    between atoms: C4_5  and  C5_6
REMARK    2  A    between atoms: C5_6  and  N1_7
REMARK                            x       y       z     vdW  Elec       q    Type
REMARK                         _______ _______ _______ _____ _____    ______ ____
ROOT
ATOM      1  N1  UNL     1      16.651  12.360  -3.989  0.00  0.00    +0.000 NA
ATOM      2  C6  UNL     1      16.721  11.832  -2.609  0.00  0.00    +0.000 C 
ATOM      3  C7  UNL     1      16.567  10.300  -2.507  0.00  0.00    +0.000 C 
ATOM      4  N2  UNL     1      17.575   9.544  -3.267  0.00  0.00    +0.000 NA
ATOM      5  C8  UNL     1      18.102  10.331  -4.395  0.00  0.00    +0.000 C 
ATOM      6  C9  UNL     1      17.089  11.342  -4.973  0.00  0.00    +0.000 C 
ATOM      7  H10 UNL     1      17.147   8.688  -3.616  0.00  0.00    +0.000 HD
ENDROOT
BRANCH   1   8
ATOM      8  C5  UNL     1      15.314  12.882  -4.300  0.00  0.00    +0.000 C 
BRANCH   8  13
ATOM      9  C1  UNL     1      13.889  10.807  -4.843  0.00  0.00    +0.000 A 
ATOM     10  O1  UNL     1      13.338  10.209  -5.930  0.00  0.00    +0.000 OA
ATOM     11  C2  UNL     1      13.669  10.965  -7.007  0.00  0.00    +0.000 A 
ATOM     12  C3  UNL     1      14.427  12.044  -6.619  0.00  0.00    +0.000 A 
ATOM     13  C4  UNL     1      14.581  11.947  -5.204  0.00  0.00    +0.000 A 
ENDBRANCH   8  13
ENDBRANCH   1   8
TORSDOF 2
ENDMDL
MODEL 7
REMARK VINA RESULT:    -3.768     14.713     16.029
REMARK INTER + INTRA:          -4.332
REMARK INTER:                  -4.186
REMARK INTRA:                  -0.145
REMARK UNBOUND:                -0.123
REMARK  Name = /home/anacleto/Desktop/manuscript_Mpro/naturecomm/supplementary_file_S2/6-chemical-library/molecular_docking/3D_ligand_structure/1188.pdb
REMARK  2 active torsions:
REMARK  status: ('A' for Active; 'I' for Inactive)
REMARK    1  A    between atoms: C4_5  and  C5_6
REMARK    2  A    between atoms: C5_6  and  N1_7
REMARK                            x       y       z     vdW  Elec       q    Type
REMARK                         _______ _______ _______ _____ _____    ______ ____
ROOT
ATOM      1  N1  UNL     1      14.952  11.848  -4.713  0.00  0.00    +0.000 NA
ATOM      2  C6  UNL     1      15.092  12.395  -6.079  0.00  0.00    +0.000 C 
ATOM      3  C7  UNL     1      14.620  11.441  -7.196  0.00  0.00    +0.000 C 
ATOM      4  N2  UNL     1      13.210  11.033  -7.080  0.00  0.00    +0.000 NA
ATOM      5  C8  UNL     1      12.743  11.102  -5.686  0.00  0.00    +0.000 C 
ATOM      6  C9  UNL     1      13.855  10.854  -4.645  0.00  0.00    +0.000 C 
ATOM      7  H10 UNL     1      13.117  10.080  -7.428  0.00  0.00    +0.000 HD
ENDROOT
BRANCH   1   8
ATOM      8  C5  UNL     1      16.221  11.298  -4.219  0.00  0.00    +0.000 C 
BRANCH   8  13
ATOM      9  C1  UNL     1      16.147  11.007  -1.662  0.00  0.00    +0.000 A 
ATOM     10  O1  UNL     1      16.520  11.690  -0.550  0.00  0.00    +0.000 OA
ATOM     11  C2  UNL     1      17.085  12.850  -0.971  0.00  0.00    +0.000 A 
ATOM     12  C3  UNL     1      17.079  12.914  -2.343  0.00  0.00    +0.000 A 
ATOM     13  C4  UNL     1      16.461  11.715  -2.805  0.00  0.00    +0.000 A 
ENDBRANCH   8  13
ENDBRANCH   1   8
TORSDOF 2
ENDMDL
MODEL 8
REMARK VINA RESULT:    -3.757     15.683     17.024
REMARK INTER + INTRA:          -4.319
REMARK INTER:                  -4.196
REMARK INTRA:                  -0.123
REMARK UNBOUND:                -0.123
REMARK  Name = /home/anacleto/Desktop/manuscript_Mpro/naturecomm/supplementary_file_S2/6-chemical-library/molecular_docking/3D_ligand_structure/1188.pdb
REMARK  2 active torsions:
REMARK  status: ('A' for Active; 'I' for Inactive)
REMARK    1  A    between atoms: C4_5  and  C5_6
REMARK    2  A    between atoms: C5_6  and  N1_7
REMARK                            x       y       z     vdW  Elec       q    Type
REMARK                         _______ _______ _______ _____ _____    ______ ____
ROOT
ATOM      1  N1  UNL     1      14.281  12.335  -4.886  0.00  0.00    +0.000 NA
ATOM      2  C6  UNL     1      14.958  12.841  -6.100  0.00  0.00    +0.000 C 
ATOM      3  C7  UNL     1      15.389  11.739  -7.091  0.00  0.00    +0.000 C 
ATOM      4  N2  UNL     1      14.279  10.904  -7.580  0.00  0.00    +0.000 NA
ATOM      5  C8  UNL     1      13.162  10.877  -6.621  0.00  0.00    +0.000 C 
ATOM      6  C9  UNL     1      13.602  11.045  -5.151  0.00  0.00    +0.000 C 
ATOM      7  H10 UNL     1      14.625   9.958  -7.732  0.00  0.00    +0.000 HD
ENDROOT
BRANCH   1   8
ATOM      8  C5  UNL     1      15.207  12.243  -3.751  0.00  0.00    +0.000 C 
BRANCH   8  13
ATOM      9  C1  UNL     1      14.194  14.479  -2.970  0.00  0.00    +0.000 A 
ATOM     10  O1  UNL     1      14.465  15.458  -2.071  0.00  0.00    +0.000 OA
ATOM     11  C2  UNL     1      15.609  15.103  -1.434  0.00  0.00    +0.000 A 
ATOM     12  C3  UNL     1      16.072  13.903  -1.917  0.00  0.00    +0.000 A 
ATOM     13  C4  UNL     1      15.155  13.488  -2.927  0.00  0.00    +0.000 A 
ENDBRANCH   8  13
ENDBRANCH   1   8
TORSDOF 2
ENDMDL
MODEL 9
REMARK VINA RESULT:    -3.753     13.816     15.429
REMARK INTER + INTRA:          -4.315
REMARK INTER:                  -4.173
REMARK INTRA:                  -0.143
REMARK UNBOUND:                -0.123
REMARK  Name = /home/anacleto/Desktop/manuscript_Mpro/naturecomm/supplementary_file_S2/6-chemical-library/molecular_docking/3D_ligand_structure/1188.pdb
REMARK  2 active torsions:
REMARK  status: ('A' for Active; 'I' for Inactive)
REMARK    1  A    between atoms: C4_5  and  C5_6
REMARK    2  A    between atoms: C5_6  and  N1_7
REMARK                            x       y       z     vdW  Elec       q    Type
REMARK                         _______ _______ _______ _____ _____    ______ ____
ROOT
ATOM      1  N1  UNL     1      16.191  15.256  -1.590  0.00  0.00    +0.000 NA
ATOM      2  C6  UNL     1      15.981  14.794  -2.979  0.00  0.00    +0.000 C 
ATOM      3  C7  UNL     1      14.528  14.381  -3.297  0.00  0.00    +0.000 C 
ATOM      4  N2  UNL     1      13.541  15.452  -3.087  0.00  0.00    +0.000 NA
ATOM      5  C8  UNL     1      14.010  16.430  -2.091  0.00  0.00    +0.000 C 
ATOM      6  C9  UNL     1      14.947  15.827  -1.022  0.00  0.00    +0.000 C 
ATOM      7  H10 UNL     1      12.667  15.034  -2.772  0.00  0.00    +0.000 HD
ENDROOT
BRANCH   1   8
ATOM      8  C5  UNL     1      16.740  14.189  -0.744  0.00  0.00    +0.000 C 
BRANCH   8  13
ATOM      9  C1  UNL     1      18.405  15.774   0.417  0.00  0.00    +0.000 A 
ATOM     10  O1  UNL     1      19.708  15.778   0.797  0.00  0.00    +0.000 OA
ATOM     11  C2  UNL     1      20.229  14.580   0.430  0.00  0.00    +0.000 A 
ATOM     12  C3  UNL     1      19.270  13.807  -0.179  0.00  0.00    +0.000 A 
ATOM     13  C4  UNL     1      18.073  14.582  -0.197  0.00  0.00    +0.000 A 
ENDBRANCH   8  13
ENDBRANCH   1   8
TORSDOF 2
ENDMDL
