MODEL 1
REMARK VINA RESULT:    -1.938      0.000      0.000
REMARK INTER + INTRA:          -1.938
REMARK INTER:                  -1.938
REMARK INTRA:                   0.000
REMARK UNBOUND:                 0.000
REMARK  Name = /home/anacleto/Desktop/manuscript_Mpro/naturecomm/supplementary_file_S2/6-chemical-library/molecular_docking/3D_ligand_structure/135.pdb
REMARK  0 active torsions:
REMARK  status: ('A' for Active; 'I' for Inactive)
REMARK                            x       y       z     vdW  Elec       q    Type
REMARK                         _______ _______ _______ _____ _____    ______ ____
ROOT
ATOM      1  C1  UNL     1     -36.764  10.645 -32.108  0.00  0.00    +0.000 C 
ATOM      2  C2  UNL     1     -36.727  11.050 -33.554  0.00  0.00    +0.000 C 
ATOM      3  C3  UNL     1     -35.456  10.670 -32.848  0.00  0.00    +0.000 C 
ENDROOT
TORSDOF 0
ENDMDL
MODEL 2
REMARK VINA RESULT:    -1.914      1.335      2.223
REMARK INTER + INTRA:          -1.914
REMARK INTER:                  -1.914
REMARK INTRA:                   0.000
REMARK UNBOUND:                 0.000
REMARK  Name = /home/anacleto/Desktop/manuscript_Mpro/naturecomm/supplementary_file_S2/6-chemical-library/molecular_docking/3D_ligand_structure/135.pdb
REMARK  0 active torsions:
REMARK  status: ('A' for Active; 'I' for Inactive)
REMARK                            x       y       z     vdW  Elec       q    Type
REMARK                         _______ _______ _______ _____ _____    ______ ____
ROOT
ATOM      1  C1  UNL     1     -36.797  10.679 -31.951  0.00  0.00    +0.000 C 
ATOM      2  C2  UNL     1     -37.243  11.110 -30.583  0.00  0.00    +0.000 C 
ATOM      3  C3  UNL     1     -36.873  12.141 -31.611  0.00  0.00    +0.000 C 
ENDROOT
TORSDOF 0
ENDMDL
MODEL 3
REMARK VINA RESULT:    -1.872     22.815     23.376
REMARK INTER + INTRA:          -1.872
REMARK INTER:                  -1.872
REMARK INTRA:                   0.000
REMARK UNBOUND:                 0.000
REMARK  Name = /home/anacleto/Desktop/manuscript_Mpro/naturecomm/supplementary_file_S2/6-chemical-library/molecular_docking/3D_ligand_structure/135.pdb
REMARK  0 active torsions:
REMARK  status: ('A' for Active; 'I' for Inactive)
REMARK                            x       y       z     vdW  Elec       q    Type
REMARK                         _______ _______ _______ _____ _____    ______ ____
ROOT
ATOM      1  C1  UNL     1     -18.326  -4.885 -35.373  0.00  0.00    +0.000 C 
ATOM      2  C2  UNL     1     -19.648  -5.122 -36.045  0.00  0.00    +0.000 C 
ATOM      3  C3  UNL     1     -19.604  -4.615 -34.631  0.00  0.00    +0.000 C 
ENDROOT
TORSDOF 0
ENDMDL
MODEL 4
REMARK VINA RESULT:    -1.790     12.617     13.310
REMARK INTER + INTRA:          -1.790
REMARK INTER:                  -1.790
REMARK INTRA:                   0.000
REMARK UNBOUND:                 0.000
REMARK  Name = /home/anacleto/Desktop/manuscript_Mpro/naturecomm/supplementary_file_S2/6-chemical-library/molecular_docking/3D_ligand_structure/135.pdb
REMARK  0 active torsions:
REMARK  status: ('A' for Active; 'I' for Inactive)
REMARK                            x       y       z     vdW  Elec       q    Type
REMARK                         _______ _______ _______ _____ _____    ______ ____
ROOT
ATOM      1  C1  UNL     1     -27.469   3.613 -38.193  0.00  0.00    +0.000 C 
ATOM      2  C2  UNL     1     -26.664   2.395 -37.841  0.00  0.00    +0.000 C 
ATOM      3  C3  UNL     1     -27.820   2.281 -38.794  0.00  0.00    +0.000 C 
ENDROOT
TORSDOF 0
ENDMDL
MODEL 5
REMARK VINA RESULT:    -1.774     12.267     12.423
REMARK INTER + INTRA:          -1.774
REMARK INTER:                  -1.774
REMARK INTRA:                   0.000
REMARK UNBOUND:                 0.000
REMARK  Name = /home/anacleto/Desktop/manuscript_Mpro/naturecomm/supplementary_file_S2/6-chemical-library/molecular_docking/3D_ligand_structure/135.pdb
REMARK  0 active torsions:
REMARK  status: ('A' for Active; 'I' for Inactive)
REMARK                            x       y       z     vdW  Elec       q    Type
REMARK                         _______ _______ _______ _____ _____    ______ ____
ROOT
ATOM      1  C1  UNL     1     -35.159  -1.342 -35.681  0.00  0.00    +0.000 C 
ATOM      2  C2  UNL     1     -36.593  -1.785 -35.628  0.00  0.00    +0.000 C 
ATOM      3  C3  UNL     1     -36.245  -0.431 -36.179  0.00  0.00    +0.000 C 
ENDROOT
TORSDOF 0
ENDMDL
MODEL 6
REMARK VINA RESULT:    -1.709     10.797     11.257
REMARK INTER + INTRA:          -1.709
REMARK INTER:                  -1.709
REMARK INTRA:                   0.000
REMARK UNBOUND:                 0.000
REMARK  Name = /home/anacleto/Desktop/manuscript_Mpro/naturecomm/supplementary_file_S2/6-chemical-library/molecular_docking/3D_ligand_structure/135.pdb
REMARK  0 active torsions:
REMARK  status: ('A' for Active; 'I' for Inactive)
REMARK                            x       y       z     vdW  Elec       q    Type
REMARK                         _______ _______ _______ _____ _____    ______ ____
ROOT
ATOM      1  C1  UNL     1     -38.478   0.911 -29.357  0.00  0.00    +0.000 C 
ATOM      2  C2  UNL     1     -37.041   0.664 -28.997  0.00  0.00    +0.000 C 
ATOM      3  C3  UNL     1     -38.057  -0.429 -28.824  0.00  0.00    +0.000 C 
ENDROOT
TORSDOF 0
ENDMDL
MODEL 7
REMARK VINA RESULT:    -1.685     17.327     18.120
REMARK INTER + INTRA:          -1.685
REMARK INTER:                  -1.685
REMARK INTRA:                   0.000
REMARK UNBOUND:                 0.000
REMARK  Name = /home/anacleto/Desktop/manuscript_Mpro/naturecomm/supplementary_file_S2/6-chemical-library/molecular_docking/3D_ligand_structure/135.pdb
REMARK  0 active torsions:
REMARK  status: ('A' for Active; 'I' for Inactive)
REMARK                            x       y       z     vdW  Elec       q    Type
REMARK                         _______ _______ _______ _____ _____    ______ ____
ROOT
ATOM      1  C1  UNL     1     -36.974   8.301 -14.652  0.00  0.00    +0.000 C 
ATOM      2  C2  UNL     1     -38.469   8.362 -14.521  0.00  0.00    +0.000 C 
ATOM      3  C3  UNL     1     -37.792   8.997 -15.702  0.00  0.00    +0.000 C 
ENDROOT
TORSDOF 0
ENDMDL
MODEL 8
REMARK VINA RESULT:    -1.676     15.943     16.378
REMARK INTER + INTRA:          -1.676
REMARK INTER:                  -1.676
REMARK INTRA:                   0.000
REMARK UNBOUND:                 0.000
REMARK  Name = /home/anacleto/Desktop/manuscript_Mpro/naturecomm/supplementary_file_S2/6-chemical-library/molecular_docking/3D_ligand_structure/135.pdb
REMARK  0 active torsions:
REMARK  status: ('A' for Active; 'I' for Inactive)
REMARK                            x       y       z     vdW  Elec       q    Type
REMARK                         _______ _______ _______ _____ _____    ______ ____
ROOT
ATOM      1  C1  UNL     1     -20.732   7.096 -38.714  0.00  0.00    +0.000 C 
ATOM      2  C2  UNL     1     -21.416   7.754 -37.550  0.00  0.00    +0.000 C 
ATOM      3  C3  UNL     1     -21.841   6.383 -37.994  0.00  0.00    +0.000 C 
ENDROOT
TORSDOF 0
ENDMDL
MODEL 9
REMARK VINA RESULT:    -1.632     23.914     24.337
REMARK INTER + INTRA:          -1.632
REMARK INTER:                  -1.632
REMARK INTRA:                   0.000
REMARK UNBOUND:                 0.000
REMARK  Name = /home/anacleto/Desktop/manuscript_Mpro/naturecomm/supplementary_file_S2/6-chemical-library/molecular_docking/3D_ligand_structure/135.pdb
REMARK  0 active torsions:
REMARK  status: ('A' for Active; 'I' for Inactive)
REMARK                            x       y       z     vdW  Elec       q    Type
REMARK                         _______ _______ _______ _____ _____    ______ ____
ROOT
ATOM      1  C1  UNL     1     -18.214  -3.549 -26.681  0.00  0.00    +0.000 C 
ATOM      2  C2  UNL     1     -18.235  -4.682 -25.695  0.00  0.00    +0.000 C 
ATOM      3  C3  UNL     1     -18.846  -4.859 -27.056  0.00  0.00    +0.000 C 
ENDROOT
TORSDOF 0
ENDMDL
