MODEL 1
REMARK VINA RESULT:    -4.712      0.000      0.000
REMARK INTER + INTRA:          -5.113
REMARK INTER:                  -4.983
REMARK INTRA:                  -0.130
REMARK UNBOUND:                -0.126
REMARK  Name = /home/anacleto/Desktop/manuscript_Mpro/naturecomm/supplementary_file_S2/6-chemical-library/molecular_docking/3D_ligand_structure/1175.pdb
REMARK  1 active torsions:
REMARK  status: ('A' for Active; 'I' for Inactive)
REMARK    1  A    between atoms: N4_6  and  C2_7
REMARK                            x       y       z     vdW  Elec       q    Type
REMARK                         _______ _______ _______ _____ _____    ______ ____
ROOT
ATOM      1  S1  UNL     1      15.800  11.851  -2.119  0.00  0.00    +0.000 S 
ATOM      2  C1  UNL     1      15.027  13.191  -2.764  0.00  0.00    +0.000 A 
ATOM      3  N1  UNL     1      14.851  14.370  -2.050  0.00  0.00    +0.000 NA
ATOM      4  N2  UNL     1      14.266  15.226  -2.767  0.00  0.00    +0.000 NA
ATOM      5  N3  UNL     1      14.113  14.721  -4.025  0.00  0.00    +0.000 N 
ATOM      6  N4  UNL     1      14.501  13.391  -4.026  0.00  0.00    +0.000 N 
ATOM      7  H1  UNL     1      13.181  14.909  -4.390  0.00  0.00    +0.000 HD
ENDROOT
BRANCH   6   8
ATOM      8  C2  UNL     1      14.363  12.585  -5.182  0.00  0.00    +0.000 A 
ATOM      9  C3  UNL     1      13.206  11.796  -5.335  0.00  0.00    +0.000 A 
ATOM     10  C4  UNL     1      13.025  10.973  -6.453  0.00  0.00    +0.000 A 
ATOM     11  C5  UNL     1      14.002  10.917  -7.439  0.00  0.00    +0.000 A 
ATOM     12  C6  UNL     1      15.156  11.681  -7.305  0.00  0.00    +0.000 A 
ATOM     13  C7  UNL     1      15.334  12.505  -6.186  0.00  0.00    +0.000 A 
ENDBRANCH   6   8
TORSDOF 1
ENDMDL
MODEL 2
REMARK VINA RESULT:    -4.658      2.108      2.851
REMARK INTER + INTRA:          -5.056
REMARK INTER:                  -4.930
REMARK INTRA:                  -0.126
REMARK UNBOUND:                -0.126
REMARK  Name = /home/anacleto/Desktop/manuscript_Mpro/naturecomm/supplementary_file_S2/6-chemical-library/molecular_docking/3D_ligand_structure/1175.pdb
REMARK  1 active torsions:
REMARK  status: ('A' for Active; 'I' for Inactive)
REMARK    1  A    between atoms: N4_6  and  C2_7
REMARK                            x       y       z     vdW  Elec       q    Type
REMARK                         _______ _______ _______ _____ _____    ______ ____
ROOT
ATOM      1  S1  UNL     1      15.026  14.020  -2.799  0.00  0.00    +0.000 S 
ATOM      2  C1  UNL     1      15.462  12.412  -2.610  0.00  0.00    +0.000 A 
ATOM      3  N1  UNL     1      16.015  11.920  -1.435  0.00  0.00    +0.000 NA
ATOM      4  N2  UNL     1      16.226  10.682  -1.542  0.00  0.00    +0.000 NA
ATOM      5  N3  UNL     1      15.735  10.251  -2.740  0.00  0.00    +0.000 N 
ATOM      6  N4  UNL     1      15.329  11.349  -3.481  0.00  0.00    +0.000 N 
ATOM      7  H1  UNL     1      16.386   9.621  -3.204  0.00  0.00    +0.000 HD
ENDROOT
BRANCH   6   8
ATOM      8  C2  UNL     1      14.858  11.206  -4.809  0.00  0.00    +0.000 A 
ATOM      9  C3  UNL     1      15.657  11.664  -5.875  0.00  0.00    +0.000 A 
ATOM     10  C4  UNL     1      15.235  11.558  -7.204  0.00  0.00    +0.000 A 
ATOM     11  C5  UNL     1      13.998  10.997  -7.496  0.00  0.00    +0.000 A 
ATOM     12  C6  UNL     1      13.188  10.546  -6.460  0.00  0.00    +0.000 A 
ATOM     13  C7  UNL     1      13.614  10.652  -5.130  0.00  0.00    +0.000 A 
ENDBRANCH   6   8
TORSDOF 1
ENDMDL
MODEL 3
REMARK VINA RESULT:    -4.583      2.902      3.331
REMARK INTER + INTRA:          -4.976
REMARK INTER:                  -4.849
REMARK INTRA:                  -0.127
REMARK UNBOUND:                -0.126
REMARK  Name = /home/anacleto/Desktop/manuscript_Mpro/naturecomm/supplementary_file_S2/6-chemical-library/molecular_docking/3D_ligand_structure/1175.pdb
REMARK  1 active torsions:
REMARK  status: ('A' for Active; 'I' for Inactive)
REMARK    1  A    between atoms: N4_6  and  C2_7
REMARK                            x       y       z     vdW  Elec       q    Type
REMARK                         _______ _______ _______ _____ _____    ______ ____
ROOT
ATOM      1  S1  UNL     1      16.770  13.321  -2.601  0.00  0.00    +0.000 S 
ATOM      2  C1  UNL     1      17.168  11.746  -3.013  0.00  0.00    +0.000 A 
ATOM      3  N1  UNL     1      18.176  11.036  -2.373  0.00  0.00    +0.000 NA
ATOM      4  N2  UNL     1      18.257   9.873  -2.852  0.00  0.00    +0.000 NA
ATOM      5  N3  UNL     1      17.250   9.695  -3.755  0.00  0.00    +0.000 N 
ATOM      6  N4  UNL     1      16.600  10.902  -3.948  0.00  0.00    +0.000 N 
ATOM      7  H1  UNL     1      17.584   9.233  -4.599  0.00  0.00    +0.000 HD
ENDROOT
BRANCH   6   8
ATOM      8  C2  UNL     1      15.565  11.036  -4.905  0.00  0.00    +0.000 A 
ATOM      9  C3  UNL     1      14.232  10.803  -4.513  0.00  0.00    +0.000 A 
ATOM     10  C4  UNL     1      13.173  10.910  -5.422  0.00  0.00    +0.000 A 
ATOM     11  C5  UNL     1      13.426  11.245  -6.746  0.00  0.00    +0.000 A 
ATOM     12  C6  UNL     1      14.735  11.470  -7.159  0.00  0.00    +0.000 A 
ATOM     13  C7  UNL     1      15.793  11.364  -6.246  0.00  0.00    +0.000 A 
ENDBRANCH   6   8
TORSDOF 1
ENDMDL
MODEL 4
REMARK VINA RESULT:    -4.460     16.562     17.802
REMARK INTER + INTRA:          -4.847
REMARK INTER:                  -4.722
REMARK INTRA:                  -0.124
REMARK UNBOUND:                -0.126
REMARK  Name = /home/anacleto/Desktop/manuscript_Mpro/naturecomm/supplementary_file_S2/6-chemical-library/molecular_docking/3D_ligand_structure/1175.pdb
REMARK  1 active torsions:
REMARK  status: ('A' for Active; 'I' for Inactive)
REMARK    1  A    between atoms: N4_6  and  C2_7
REMARK                            x       y       z     vdW  Elec       q    Type
REMARK                         _______ _______ _______ _____ _____    ______ ____
ROOT
ATOM      1  S1  UNL     1      17.611   7.371  13.425  0.00  0.00    +0.000 S 
ATOM      2  C1  UNL     1      19.254   7.553  13.144  0.00  0.00    +0.000 A 
ATOM      3  N1  UNL     1      20.133   8.015  14.115  0.00  0.00    +0.000 NA
ATOM      4  N2  UNL     1      21.308   8.035  13.659  0.00  0.00    +0.000 NA
ATOM      5  N3  UNL     1      21.307   7.494  12.407  0.00  0.00    +0.000 N 
ATOM      6  N4  UNL     1      19.998   7.266  12.016  0.00  0.00    +0.000 N 
ATOM      7  H1  UNL     1      21.871   8.044  11.763  0.00  0.00    +0.000 HD
ENDROOT
BRANCH   6   8
ATOM      8  C2  UNL     1      19.690   6.790  10.718  0.00  0.00    +0.000 A 
ATOM      9  C3  UNL     1      19.794   7.667   9.621  0.00  0.00    +0.000 A 
ATOM     10  C4  UNL     1      19.491   7.250   8.320  0.00  0.00    +0.000 A 
ATOM     11  C5  UNL     1      19.069   5.947   8.090  0.00  0.00    +0.000 A 
ATOM     12  C6  UNL     1      18.950   5.066   9.159  0.00  0.00    +0.000 A 
ATOM     13  C7  UNL     1      19.256   5.485  10.460  0.00  0.00    +0.000 A 
ENDBRANCH   6   8
TORSDOF 1
ENDMDL
MODEL 5
REMARK VINA RESULT:    -4.437      2.971      4.702
REMARK INTER + INTRA:          -4.822
REMARK INTER:                  -4.693
REMARK INTRA:                  -0.129
REMARK UNBOUND:                -0.126
REMARK  Name = /home/anacleto/Desktop/manuscript_Mpro/naturecomm/supplementary_file_S2/6-chemical-library/molecular_docking/3D_ligand_structure/1175.pdb
REMARK  1 active torsions:
REMARK  status: ('A' for Active; 'I' for Inactive)
REMARK    1  A    between atoms: N4_6  and  C2_7
REMARK                            x       y       z     vdW  Elec       q    Type
REMARK                         _______ _______ _______ _____ _____    ______ ____
ROOT
ATOM      1  S1  UNL     1      15.309  13.622  -5.773  0.00  0.00    +0.000 S 
ATOM      2  C1  UNL     1      14.486  12.259  -5.249  0.00  0.00    +0.000 A 
ATOM      3  N1  UNL     1      13.309  11.821  -5.843  0.00  0.00    +0.000 NA
ATOM      4  N2  UNL     1      12.908  10.766  -5.281  0.00  0.00    +0.000 NA
ATOM      5  N3  UNL     1      13.834  10.375  -4.360  0.00  0.00    +0.000 N 
ATOM      6  N4  UNL     1      14.804  11.359  -4.250  0.00  0.00    +0.000 N 
ATOM      7  H1  UNL     1      13.394  10.090  -3.487  0.00  0.00    +0.000 HD
ENDROOT
BRANCH   6   8
ATOM      8  C2  UNL     1      15.847  11.261  -3.298  0.00  0.00    +0.000 A 
ATOM      9  C3  UNL     1      15.740  11.971  -2.086  0.00  0.00    +0.000 A 
ATOM     10  C4  UNL     1      16.747  11.918  -1.116  0.00  0.00    +0.000 A 
ATOM     11  C5  UNL     1      17.888  11.159  -1.342  0.00  0.00    +0.000 A 
ATOM     12  C6  UNL     1      18.020  10.456  -2.534  0.00  0.00    +0.000 A 
ATOM     13  C7  UNL     1      17.009  10.510  -3.503  0.00  0.00    +0.000 A 
ENDBRANCH   6   8
TORSDOF 1
ENDMDL
MODEL 6
REMARK VINA RESULT:    -4.390     16.679     17.853
REMARK INTER + INTRA:          -4.773
REMARK INTER:                  -4.650
REMARK INTRA:                  -0.122
REMARK UNBOUND:                -0.126
REMARK  Name = /home/anacleto/Desktop/manuscript_Mpro/naturecomm/supplementary_file_S2/6-chemical-library/molecular_docking/3D_ligand_structure/1175.pdb
REMARK  1 active torsions:
REMARK  status: ('A' for Active; 'I' for Inactive)
REMARK    1  A    between atoms: N4_6  and  C2_7
REMARK                            x       y       z     vdW  Elec       q    Type
REMARK                         _______ _______ _______ _____ _____    ______ ____
ROOT
ATOM      1  S1  UNL     1      22.090   5.767  12.916  0.00  0.00    +0.000 S 
ATOM      2  C1  UNL     1      20.810   6.840  13.055  0.00  0.00    +0.000 A 
ATOM      3  N1  UNL     1      20.542   7.538  14.226  0.00  0.00    +0.000 NA
ATOM      4  N2  UNL     1      19.547   8.294  14.060  0.00  0.00    +0.000 NA
ATOM      5  N3  UNL     1      19.156   8.232  12.755  0.00  0.00    +0.000 N 
ATOM      6  N4  UNL     1      19.882   7.241  12.114  0.00  0.00    +0.000 N 
ATOM      7  H1  UNL     1      18.144   8.161  12.672  0.00  0.00    +0.000 HD
ENDROOT
BRANCH   6   8
ATOM      8  C2  UNL     1      19.621   6.893  10.766  0.00  0.00    +0.000 A 
ATOM      9  C3  UNL     1      19.109   5.614  10.473  0.00  0.00    +0.000 A 
ATOM     10  C4  UNL     1      18.844   5.216   9.158  0.00  0.00    +0.000 A 
ATOM     11  C5  UNL     1      19.094   6.088   8.106  0.00  0.00    +0.000 A 
ATOM     12  C6  UNL     1      19.608   7.352   8.370  0.00  0.00    +0.000 A 
ATOM     13  C7  UNL     1      19.871   7.749   9.688  0.00  0.00    +0.000 A 
ENDBRANCH   6   8
TORSDOF 1
ENDMDL
MODEL 7
REMARK VINA RESULT:    -4.181     16.776     18.378
REMARK INTER + INTRA:          -4.551
REMARK INTER:                  -4.440
REMARK INTRA:                  -0.111
REMARK UNBOUND:                -0.126
REMARK  Name = /home/anacleto/Desktop/manuscript_Mpro/naturecomm/supplementary_file_S2/6-chemical-library/molecular_docking/3D_ligand_structure/1175.pdb
REMARK  1 active torsions:
REMARK  status: ('A' for Active; 'I' for Inactive)
REMARK    1  A    between atoms: N4_6  and  C2_7
REMARK                            x       y       z     vdW  Elec       q    Type
REMARK                         _______ _______ _______ _____ _____    ______ ____
ROOT
ATOM      1  S1  UNL     1      19.067   4.347  10.355  0.00  0.00    +0.000 S 
ATOM      2  C1  UNL     1      19.650   5.877   9.996  0.00  0.00    +0.000 A 
ATOM      3  N1  UNL     1      20.195   6.200   8.760  0.00  0.00    +0.000 NA
ATOM      4  N2  UNL     1      20.532   7.415   8.740  0.00  0.00    +0.000 NA
ATOM      5  N3  UNL     1      20.142   8.002   9.908  0.00  0.00    +0.000 N 
ATOM      6  N4  UNL     1      19.663   7.025  10.766  0.00  0.00    +0.000 N 
ATOM      7  H1  UNL     1      20.872   8.602  10.286  0.00  0.00    +0.000 HD
ENDROOT
BRANCH   6   8
ATOM      8  C2  UNL     1      19.270   7.336  12.090  0.00  0.00    +0.000 A 
ATOM      9  C3  UNL     1      17.903   7.310  12.425  0.00  0.00    +0.000 A 
ATOM     10  C4  UNL     1      17.460   7.620  13.716  0.00  0.00    +0.000 A 
ATOM     11  C5  UNL     1      18.377   7.972  14.698  0.00  0.00    +0.000 A 
ATOM     12  C6  UNL     1      19.732   8.014  14.388  0.00  0.00    +0.000 A 
ATOM     13  C7  UNL     1      20.173   7.701  13.095  0.00  0.00    +0.000 A 
ENDBRANCH   6   8
TORSDOF 1
ENDMDL
MODEL 8
REMARK VINA RESULT:    -4.149     18.308     19.197
REMARK INTER + INTRA:          -4.517
REMARK INTER:                  -4.392
REMARK INTRA:                  -0.126
REMARK UNBOUND:                -0.126
REMARK  Name = /home/anacleto/Desktop/manuscript_Mpro/naturecomm/supplementary_file_S2/6-chemical-library/molecular_docking/3D_ligand_structure/1175.pdb
REMARK  1 active torsions:
REMARK  status: ('A' for Active; 'I' for Inactive)
REMARK    1  A    between atoms: N4_6  and  C2_7
REMARK                            x       y       z     vdW  Elec       q    Type
REMARK                         _______ _______ _______ _____ _____    ______ ____
ROOT
ATOM      1  S1  UNL     1      27.081  17.726  10.423  0.00  0.00    +0.000 S 
ATOM      2  C1  UNL     1      26.524  16.355   9.636  0.00  0.00    +0.000 A 
ATOM      3  N1  UNL     1      27.140  15.839   8.503  0.00  0.00    +0.000 NA
ATOM      4  N2  UNL     1      26.543  14.795   8.124  0.00  0.00    +0.000 NA
ATOM      5  N3  UNL     1      25.570  14.488   9.029  0.00  0.00    +0.000 N 
ATOM      6  N4  UNL     1      25.471  15.517   9.951  0.00  0.00    +0.000 N 
ATOM      7  H1  UNL     1      24.701  14.225   8.566  0.00  0.00    +0.000 HD
ENDROOT
BRANCH   6   8
ATOM      8  C2  UNL     1      24.476  15.510  10.958  0.00  0.00    +0.000 A 
ATOM      9  C3  UNL     1      24.803  15.037  12.244  0.00  0.00    +0.000 A 
ATOM     10  C4  UNL     1      23.854  14.997  13.272  0.00  0.00    +0.000 A 
ATOM     11  C5  UNL     1      22.554  15.424  13.033  0.00  0.00    +0.000 A 
ATOM     12  C6  UNL     1      22.206  15.886  11.769  0.00  0.00    +0.000 A 
ATOM     13  C7  UNL     1      23.158  15.927  10.742  0.00  0.00    +0.000 A 
ENDBRANCH   6   8
TORSDOF 1
ENDMDL
MODEL 9
REMARK VINA RESULT:    -4.054     17.061     18.234
REMARK INTER + INTRA:          -4.417
REMARK INTER:                  -4.289
REMARK INTRA:                  -0.128
REMARK UNBOUND:                -0.126
REMARK  Name = /home/anacleto/Desktop/manuscript_Mpro/naturecomm/supplementary_file_S2/6-chemical-library/molecular_docking/3D_ligand_structure/1175.pdb
REMARK  1 active torsions:
REMARK  status: ('A' for Active; 'I' for Inactive)
REMARK    1  A    between atoms: N4_6  and  C2_7
REMARK                            x       y       z     vdW  Elec       q    Type
REMARK                         _______ _______ _______ _____ _____    ______ ____
ROOT
ATOM      1  S1  UNL     1      17.336   4.497  12.573  0.00  0.00    +0.000 S 
ATOM      2  C1  UNL     1      17.611   6.098  12.985  0.00  0.00    +0.000 A 
ATOM      3  N1  UNL     1      16.951   6.725  14.034  0.00  0.00    +0.000 NA
ATOM      4  N2  UNL     1      17.355   7.914  14.150  0.00  0.00    +0.000 NA
ATOM      5  N3  UNL     1      18.375   8.123  13.268  0.00  0.00    +0.000 N 
ATOM      6  N4  UNL     1      18.495   7.013  12.447  0.00  0.00    +0.000 N 
ATOM      7  H1  UNL     1      18.277   9.017  12.791  0.00  0.00    +0.000 HD
ENDROOT
BRANCH   6   8
ATOM      8  C2  UNL     1      19.419   6.989  11.374  0.00  0.00    +0.000 A 
ATOM      9  C3  UNL     1      20.761   6.646  11.629  0.00  0.00    +0.000 A 
ATOM     10  C4  UNL     1      21.715   6.618  10.607  0.00  0.00    +0.000 A 
ATOM     11  C5  UNL     1      21.350   6.941   9.306  0.00  0.00    +0.000 A 
ATOM     12  C6  UNL     1      20.032   7.291   9.032  0.00  0.00    +0.000 A 
ATOM     13  C7  UNL     1      19.078   7.317  10.057  0.00  0.00    +0.000 A 
ENDBRANCH   6   8
TORSDOF 1
ENDMDL
