MODEL 1
REMARK VINA RESULT:    -5.162      0.000      0.000
REMARK INTER + INTRA:          -6.317
REMARK INTER:                  -5.996
REMARK INTRA:                  -0.320
REMARK UNBOUND:                -0.250
REMARK  Name = /home/anacleto/Desktop/manuscript_Mpro/naturecomm/supplementary_file_S2/6-chemical-library/molecular_docking/3D_ligand_structure/822.pdb
REMARK  3 active torsions:
REMARK  status: ('A' for Active; 'I' for Inactive)
REMARK    1  A    between atoms: C2_5  and  C3_6
REMARK    2  A    between atoms: N4_8  and  C4_9
REMARK    3  A    between atoms: C4_9  and  C5_10
REMARK                            x       y       z     vdW  Elec       q    Type
REMARK                         _______ _______ _______ _____ _____    ______ ____
ROOT
ATOM      1  C3  UNL     1      15.075  13.372  -4.064  0.00  0.00    +0.000 C 
ATOM      2  O1  UNL     1      15.778  14.147  -4.708  0.00  0.00    +0.000 OA
ATOM      3  N4  UNL     1      14.866  13.509  -2.705  0.00  0.00    +0.000 N 
ATOM      4  H3  UNL     1      14.165  12.894  -2.301  0.00  0.00    +0.000 HD
ENDROOT
BRANCH   1   9
ATOM      5  N1  UNL     1      14.497  10.959  -4.179  0.00  0.00    +0.000 NA
ATOM      6  N2  UNL     1      13.681  10.269  -4.993  0.00  0.00    +0.000 N 
ATOM      7  C1  UNL     1      13.084  11.079  -5.903  0.00  0.00    +0.000 A 
ATOM      8  N3  UNL     1      13.486  12.312  -5.719  0.00  0.00    +0.000 NA
ATOM      9  C2  UNL     1      14.360  12.219  -4.653  0.00  0.00    +0.000 A 
ATOM     10  H1  UNL     1      13.583   9.267  -4.869  0.00  0.00    +0.000 HD
ENDBRANCH   1   9
BRANCH   3  11
ATOM     11  C4  UNL     1      15.330  14.666  -1.988  0.00  0.00    +0.000 C 
BRANCH  11  12
ATOM     12  C5  UNL     1      14.298  15.751  -1.980  0.00  0.00    +0.000 A 
ATOM     13  C6  UNL     1      12.957  15.479  -1.690  0.00  0.00    +0.000 A 
ATOM     14  C7  UNL     1      12.025  16.511  -1.703  0.00  0.00    +0.000 A 
ATOM     15  C8  UNL     1      12.463  17.787  -2.011  0.00  0.00    +0.000 A 
ATOM     16  N5  UNL     1      13.746  18.090  -2.302  0.00  0.00    +0.000 NA
ATOM     17  C9  UNL     1      14.632  17.068  -2.280  0.00  0.00    +0.000 A 
ENDBRANCH  11  12
ENDBRANCH   3  11
TORSDOF 3
ENDMDL
MODEL 2
REMARK VINA RESULT:    -5.047      1.504      5.845
REMARK INTER + INTRA:          -6.181
REMARK INTER:                  -5.897
REMARK INTRA:                  -0.284
REMARK UNBOUND:                -0.250
REMARK  Name = /home/anacleto/Desktop/manuscript_Mpro/naturecomm/supplementary_file_S2/6-chemical-library/molecular_docking/3D_ligand_structure/822.pdb
REMARK  3 active torsions:
REMARK  status: ('A' for Active; 'I' for Inactive)
REMARK    1  A    between atoms: C2_5  and  C3_6
REMARK    2  A    between atoms: N4_8  and  C4_9
REMARK    3  A    between atoms: C4_9  and  C5_10
REMARK                            x       y       z     vdW  Elec       q    Type
REMARK                         _______ _______ _______ _____ _____    ______ ____
ROOT
ATOM      1  C3  UNL     1      14.883  15.522  -2.429  0.00  0.00    +0.000 C 
ATOM      2  O1  UNL     1      15.834  15.213  -1.715  0.00  0.00    +0.000 OA
ATOM      3  N4  UNL     1      14.793  15.144  -3.755  0.00  0.00    +0.000 N 
ATOM      4  H3  UNL     1      13.907  15.341  -4.211  0.00  0.00    +0.000 HD
ENDROOT
BRANCH   1   9
ATOM      5  N1  UNL     1      13.456  17.555  -2.434  0.00  0.00    +0.000 NA
ATOM      6  N2  UNL     1      12.339  17.869  -1.755  0.00  0.00    +0.000 N 
ATOM      7  C1  UNL     1      11.960  16.864  -0.927  0.00  0.00    +0.000 A 
ATOM      8  N3  UNL     1      12.805  15.869  -1.034  0.00  0.00    +0.000 NA
ATOM      9  C2  UNL     1      13.723  16.314  -1.965  0.00  0.00    +0.000 A 
ATOM     10  H1  UNL     1      11.901  18.771  -1.906  0.00  0.00    +0.000 HD
ENDBRANCH   1   9
BRANCH   3  11
ATOM     11  C4  UNL     1      15.732  14.225  -4.338  0.00  0.00    +0.000 C 
BRANCH  11  12
ATOM     12  C5  UNL     1      15.051  12.977  -4.810  0.00  0.00    +0.000 A 
ATOM     13  C6  UNL     1      14.661  12.821  -6.143  0.00  0.00    +0.000 A 
ATOM     14  C7  UNL     1      14.020  11.652  -6.543  0.00  0.00    +0.000 A 
ATOM     15  C8  UNL     1      13.787  10.675  -5.591  0.00  0.00    +0.000 A 
ATOM     16  N5  UNL     1      14.143  10.790  -4.293  0.00  0.00    +0.000 NA
ATOM     17  C9  UNL     1      14.765  11.936  -3.933  0.00  0.00    +0.000 A 
ENDBRANCH  11  12
ENDBRANCH   3  11
TORSDOF 3
ENDMDL
MODEL 3
REMARK VINA RESULT:    -4.967      3.353      4.303
REMARK INTER + INTRA:          -6.088
REMARK INTER:                  -5.772
REMARK INTRA:                  -0.316
REMARK UNBOUND:                -0.250
REMARK  Name = /home/anacleto/Desktop/manuscript_Mpro/naturecomm/supplementary_file_S2/6-chemical-library/molecular_docking/3D_ligand_structure/822.pdb
REMARK  3 active torsions:
REMARK  status: ('A' for Active; 'I' for Inactive)
REMARK    1  A    between atoms: C2_5  and  C3_6
REMARK    2  A    between atoms: N4_8  and  C4_9
REMARK    3  A    between atoms: C4_9  and  C5_10
REMARK                            x       y       z     vdW  Elec       q    Type
REMARK                         _______ _______ _______ _____ _____    ______ ____
ROOT
ATOM      1  C3  UNL     1      15.601  10.996  -3.277  0.00  0.00    +0.000 C 
ATOM      2  O1  UNL     1      16.606  10.366  -3.596  0.00  0.00    +0.000 OA
ATOM      3  N4  UNL     1      15.363  11.411  -1.980  0.00  0.00    +0.000 N 
ATOM      4  H3  UNL     1      14.571  12.036  -1.855  0.00  0.00    +0.000 HD
ENDROOT
BRANCH   1   9
ATOM      5  N1  UNL     1      14.252  12.697  -4.483  0.00  0.00    +0.000 NA
ATOM      6  N2  UNL     1      13.259  12.584  -5.381  0.00  0.00    +0.000 N 
ATOM      7  C1  UNL     1      12.974  11.285  -5.647  0.00  0.00    +0.000 A 
ATOM      8  N3  UNL     1      13.762  10.512  -4.940  0.00  0.00    +0.000 NA
ATOM      9  C2  UNL     1      14.541  11.401  -4.226  0.00  0.00    +0.000 A 
ATOM     10  H1  UNL     1      12.831  13.421  -5.761  0.00  0.00    +0.000 HD
ENDBRANCH   1   9
BRANCH   3  11
ATOM     11  C4  UNL     1      16.358  11.270  -0.953  0.00  0.00    +0.000 C 
BRANCH  11  12
ATOM     12  C5  UNL     1      17.242  12.478  -0.882  0.00  0.00    +0.000 A 
ATOM     13  C6  UNL     1      18.631  12.358  -0.775  0.00  0.00    +0.000 A 
ATOM     14  C7  UNL     1      19.419  13.502  -0.700  0.00  0.00    +0.000 A 
ATOM     15  C8  UNL     1      18.790  14.734  -0.732  0.00  0.00    +0.000 A 
ATOM     16  N5  UNL     1      17.453  14.892  -0.830  0.00  0.00    +0.000 NA
ATOM     17  C9  UNL     1      16.711  13.763  -0.903  0.00  0.00    +0.000 A 
ENDBRANCH  11  12
ENDBRANCH   3  11
TORSDOF 3
ENDMDL
MODEL 4
REMARK VINA RESULT:    -4.681      3.430      4.446
REMARK INTER + INTRA:          -5.752
REMARK INTER:                  -5.495
REMARK INTRA:                  -0.257
REMARK UNBOUND:                -0.250
REMARK  Name = /home/anacleto/Desktop/manuscript_Mpro/naturecomm/supplementary_file_S2/6-chemical-library/molecular_docking/3D_ligand_structure/822.pdb
REMARK  3 active torsions:
REMARK  status: ('A' for Active; 'I' for Inactive)
REMARK    1  A    between atoms: C2_5  and  C3_6
REMARK    2  A    between atoms: N4_8  and  C4_9
REMARK    3  A    between atoms: C4_9  and  C5_10
REMARK                            x       y       z     vdW  Elec       q    Type
REMARK                         _______ _______ _______ _____ _____    ______ ____
ROOT
ATOM      1  C3  UNL     1      15.886  11.881  -2.198  0.00  0.00    +0.000 C 
ATOM      2  O1  UNL     1      15.727  10.948  -1.416  0.00  0.00    +0.000 OA
ATOM      3  N4  UNL     1      16.909  12.801  -2.061  0.00  0.00    +0.000 N 
ATOM      4  H3  UNL     1      17.025  13.450  -2.834  0.00  0.00    +0.000 HD
ENDROOT
BRANCH   1   9
ATOM      5  N1  UNL     1      14.612  13.371  -3.724  0.00  0.00    +0.000 NA
ATOM      6  N2  UNL     1      13.887  13.118  -4.826  0.00  0.00    +0.000 N 
ATOM      7  C1  UNL     1      13.876  11.794  -5.123  0.00  0.00    +0.000 A 
ATOM      8  N3  UNL     1      14.585  11.143  -4.234  0.00  0.00    +0.000 NA
ATOM      9  C2  UNL     1      15.028  12.131  -3.377  0.00  0.00    +0.000 A 
ATOM     10  H1  UNL     1      13.437  13.884  -5.315  0.00  0.00    +0.000 HD
ENDBRANCH   1   9
BRANCH   3  11
ATOM     11  C4  UNL     1      17.949  12.626  -1.084  0.00  0.00    +0.000 C 
BRANCH  11  12
ATOM     12  C5  UNL     1      18.246  13.909  -0.370  0.00  0.00    +0.000 A 
ATOM     13  C6  UNL     1      19.533  14.203   0.091  0.00  0.00    +0.000 A 
ATOM     14  C7  UNL     1      19.769  15.400   0.761  0.00  0.00    +0.000 A 
ATOM     15  C8  UNL     1      18.706  16.266   0.950  0.00  0.00    +0.000 A 
ATOM     16  N5  UNL     1      17.449  16.016   0.525  0.00  0.00    +0.000 NA
ATOM     17  C9  UNL     1      17.248  14.846  -0.125  0.00  0.00    +0.000 A 
ENDBRANCH  11  12
ENDBRANCH   3  11
TORSDOF 3
ENDMDL
MODEL 5
REMARK VINA RESULT:    -4.623      5.059      6.955
REMARK INTER + INTRA:          -5.683
REMARK INTER:                  -5.375
REMARK INTRA:                  -0.308
REMARK UNBOUND:                -0.250
REMARK  Name = /home/anacleto/Desktop/manuscript_Mpro/naturecomm/supplementary_file_S2/6-chemical-library/molecular_docking/3D_ligand_structure/822.pdb
REMARK  3 active torsions:
REMARK  status: ('A' for Active; 'I' for Inactive)
REMARK    1  A    between atoms: C2_5  and  C3_6
REMARK    2  A    between atoms: N4_8  and  C4_9
REMARK    3  A    between atoms: C4_9  and  C5_10
REMARK                            x       y       z     vdW  Elec       q    Type
REMARK                         _______ _______ _______ _____ _____    ______ ____
ROOT
ATOM      1  C3  UNL     1      18.525  10.633  -7.515  0.00  0.00    +0.000 C 
ATOM      2  O1  UNL     1      18.949  10.925  -6.400  0.00  0.00    +0.000 OA
ATOM      3  N4  UNL     1      17.345  11.145  -8.020  0.00  0.00    +0.000 N 
ATOM      4  H3  UNL     1      17.158  10.942  -8.998  0.00  0.00    +0.000 HD
ENDROOT
BRANCH   1   9
ATOM      5  N1  UNL     1      19.143   8.377  -8.349  0.00  0.00    +0.000 NA
ATOM      6  N2  UNL     1      19.899   7.979  -9.386  0.00  0.00    +0.000 N 
ATOM      7  C1  UNL     1      20.396   9.036 -10.075  0.00  0.00    +0.000 A 
ATOM      8  N3  UNL     1      19.987  10.150  -9.519  0.00  0.00    +0.000 NA
ATOM      9  C2  UNL     1      19.218   9.724  -8.454  0.00  0.00    +0.000 A 
ATOM     10  H1  UNL     1      20.028   6.988  -9.558  0.00  0.00    +0.000 HD
ENDBRANCH   1   9
BRANCH   3  11
ATOM     11  C4  UNL     1      16.622  12.181  -7.333  0.00  0.00    +0.000 C 
BRANCH  11  12
ATOM     12  C5  UNL     1      15.470  11.617  -6.559  0.00  0.00    +0.000 A 
ATOM     13  C6  UNL     1      14.251  11.324  -7.177  0.00  0.00    +0.000 A 
ATOM     14  C7  UNL     1      13.200  10.813  -6.423  0.00  0.00    +0.000 A 
ATOM     15  C8  UNL     1      13.401  10.613  -5.069  0.00  0.00    +0.000 A 
ATOM     16  N5  UNL     1      14.560  10.888  -4.434  0.00  0.00    +0.000 NA
ATOM     17  C9  UNL     1      15.566  11.383  -5.191  0.00  0.00    +0.000 A 
ENDBRANCH  11  12
ENDBRANCH   3  11
TORSDOF 3
ENDMDL
MODEL 6
REMARK VINA RESULT:    -4.618     16.588     18.313
REMARK INTER + INTRA:          -5.677
REMARK INTER:                  -5.479
REMARK INTRA:                  -0.198
REMARK UNBOUND:                -0.250
REMARK  Name = /home/anacleto/Desktop/manuscript_Mpro/naturecomm/supplementary_file_S2/6-chemical-library/molecular_docking/3D_ligand_structure/822.pdb
REMARK  3 active torsions:
REMARK  status: ('A' for Active; 'I' for Inactive)
REMARK    1  A    between atoms: C2_5  and  C3_6
REMARK    2  A    between atoms: N4_8  and  C4_9
REMARK    3  A    between atoms: C4_9  and  C5_10
REMARK                            x       y       z     vdW  Elec       q    Type
REMARK                         _______ _______ _______ _____ _____    ______ ____
ROOT
ATOM      1  C3  UNL     1      19.125   6.841  11.303  0.00  0.00    +0.000 C 
ATOM      2  O1  UNL     1      18.668   5.783  10.880  0.00  0.00    +0.000 OA
ATOM      3  N4  UNL     1      20.001   7.621  10.572  0.00  0.00    +0.000 N 
ATOM      4  H3  UNL     1      20.210   8.536  10.962  0.00  0.00    +0.000 HD
ENDROOT
BRANCH   1   9
ATOM      5  N1  UNL     1      19.702   8.063  13.387  0.00  0.00    +0.000 NA
ATOM      6  N2  UNL     1      18.968   8.410  14.458  0.00  0.00    +0.000 N 
ATOM      7  C1  UNL     1      17.682   7.995  14.335  0.00  0.00    +0.000 A 
ATOM      8  N3  UNL     1      17.533   7.370  13.193  0.00  0.00    +0.000 NA
ATOM      9  C2  UNL     1      18.790   7.419  12.624  0.00  0.00    +0.000 A 
ATOM     10  H1  UNL     1      19.404   8.918  15.219  0.00  0.00    +0.000 HD
ENDBRANCH   1   9
BRANCH   3  11
ATOM     11  C4  UNL     1      20.306   7.320   9.199  0.00  0.00    +0.000 C 
BRANCH  11  12
ATOM     12  C5  UNL     1      21.314   6.217   9.095  0.00  0.00    +0.000 A 
ATOM     13  C6  UNL     1      21.146   5.161   8.195  0.00  0.00    +0.000 A 
ATOM     14  C7  UNL     1      22.098   4.148   8.134  0.00  0.00    +0.000 A 
ATOM     15  C8  UNL     1      23.190   4.222   8.981  0.00  0.00    +0.000 A 
ATOM     16  N5  UNL     1      23.384   5.222   9.868  0.00  0.00    +0.000 NA
ATOM     17  C9  UNL     1      22.445   6.194   9.905  0.00  0.00    +0.000 A 
ENDBRANCH  11  12
ENDBRANCH   3  11
TORSDOF 3
ENDMDL
MODEL 7
REMARK VINA RESULT:    -4.526     16.184     17.670
REMARK INTER + INTRA:          -5.569
REMARK INTER:                  -5.328
REMARK INTRA:                  -0.241
REMARK UNBOUND:                -0.250
REMARK  Name = /home/anacleto/Desktop/manuscript_Mpro/naturecomm/supplementary_file_S2/6-chemical-library/molecular_docking/3D_ligand_structure/822.pdb
REMARK  3 active torsions:
REMARK  status: ('A' for Active; 'I' for Inactive)
REMARK    1  A    between atoms: C2_5  and  C3_6
REMARK    2  A    between atoms: N4_8  and  C4_9
REMARK    3  A    between atoms: C4_9  and  C5_10
REMARK                            x       y       z     vdW  Elec       q    Type
REMARK                         _______ _______ _______ _____ _____    ______ ____
ROOT
ATOM      1  C3  UNL     1      19.140   5.554  11.134  0.00  0.00    +0.000 C 
ATOM      2  O1  UNL     1      19.153   5.527  12.362  0.00  0.00    +0.000 OA
ATOM      3  N4  UNL     1      18.409   4.659  10.376  0.00  0.00    +0.000 N 
ATOM      4  H3  UNL     1      18.366   4.854   9.380  0.00  0.00    +0.000 HD
ENDROOT
BRANCH   1   9
ATOM      5  N1  UNL     1      21.148   6.918  10.607  0.00  0.00    +0.000 NA
ATOM      6  N2  UNL     1      21.403   7.799   9.624  0.00  0.00    +0.000 N 
ATOM      7  C1  UNL     1      20.341   7.936   8.791  0.00  0.00    +0.000 A 
ATOM      8  N3  UNL     1      19.366   7.160   9.196  0.00  0.00    +0.000 NA
ATOM      9  C2  UNL     1      19.880   6.543  10.319  0.00  0.00    +0.000 A 
ATOM     10  H1  UNL     1      22.306   8.257   9.587  0.00  0.00    +0.000 HD
ENDBRANCH   1   9
BRANCH   3  11
ATOM     11  C4  UNL     1      17.487   3.738  10.986  0.00  0.00    +0.000 C 
BRANCH  11  12
ATOM     12  C5  UNL     1      16.646   3.049   9.956  0.00  0.00    +0.000 A 
ATOM     13  C6  UNL     1      16.925   3.166   8.591  0.00  0.00    +0.000 A 
ATOM     14  C7  UNL     1      16.115   2.520   7.663  0.00  0.00    +0.000 A 
ATOM     15  C8  UNL     1      15.045   1.777   8.131  0.00  0.00    +0.000 A 
ATOM     16  N5  UNL     1      14.739   1.644   9.440  0.00  0.00    +0.000 NA
ATOM     17  C9  UNL     1      15.545   2.281  10.320  0.00  0.00    +0.000 A 
ENDBRANCH  11  12
ENDBRANCH   3  11
TORSDOF 3
ENDMDL
MODEL 8
REMARK VINA RESULT:    -4.441     16.578     17.642
REMARK INTER + INTRA:          -5.470
REMARK INTER:                  -5.204
REMARK INTRA:                  -0.266
REMARK UNBOUND:                -0.250
REMARK  Name = /home/anacleto/Desktop/manuscript_Mpro/naturecomm/supplementary_file_S2/6-chemical-library/molecular_docking/3D_ligand_structure/822.pdb
REMARK  3 active torsions:
REMARK  status: ('A' for Active; 'I' for Inactive)
REMARK    1  A    between atoms: C2_5  and  C3_6
REMARK    2  A    between atoms: N4_8  and  C4_9
REMARK    3  A    between atoms: C4_9  and  C5_10
REMARK                            x       y       z     vdW  Elec       q    Type
REMARK                         _______ _______ _______ _____ _____    ______ ____
ROOT
ATOM      1  C3  UNL     1      18.780   4.339   9.355  0.00  0.00    +0.000 C 
ATOM      2  O1  UNL     1      19.592   3.418   9.298  0.00  0.00    +0.000 OA
ATOM      3  N4  UNL     1      17.515   4.252   8.806  0.00  0.00    +0.000 N 
ATOM      4  H3  UNL     1      16.884   5.018   9.026  0.00  0.00    +0.000 HD
ENDROOT
BRANCH   1   9
ATOM      5  N1  UNL     1      19.587   6.688   9.372  0.00  0.00    +0.000 NA
ATOM      6  N2  UNL     1      19.629   7.615  10.343  0.00  0.00    +0.000 N 
ATOM      7  C1  UNL     1      19.131   7.137  11.511  0.00  0.00    +0.000 A 
ATOM      8  N3  UNL     1      18.751   5.894  11.346  0.00  0.00    +0.000 NA
ATOM      9  C2  UNL     1      19.042   5.633  10.022  0.00  0.00    +0.000 A 
ATOM     10  H1  UNL     1      20.004   8.535  10.139  0.00  0.00    +0.000 HD
ENDBRANCH   1   9
BRANCH   3  11
ATOM     11  C4  UNL     1      17.012   3.015   8.274  0.00  0.00    +0.000 C 
BRANCH  11  12
ATOM     12  C5  UNL     1      15.740   2.607   8.953  0.00  0.00    +0.000 A 
ATOM     13  C6  UNL     1      14.807   1.783   8.318  0.00  0.00    +0.000 A 
ATOM     14  C7  UNL     1      13.632   1.435   8.976  0.00  0.00    +0.000 A 
ATOM     15  C8  UNL     1      13.425   1.926  10.253  0.00  0.00    +0.000 A 
ATOM     16  N5  UNL     1      14.299   2.729  10.898  0.00  0.00    +0.000 NA
ATOM     17  C9  UNL     1      15.434   3.050  10.236  0.00  0.00    +0.000 A 
ENDBRANCH  11  12
ENDBRANCH   3  11
TORSDOF 3
ENDMDL
MODEL 9
REMARK VINA RESULT:    -4.412      3.525      5.477
REMARK INTER + INTRA:          -5.436
REMARK INTER:                  -5.186
REMARK INTRA:                  -0.250
REMARK UNBOUND:                -0.250
REMARK  Name = /home/anacleto/Desktop/manuscript_Mpro/naturecomm/supplementary_file_S2/6-chemical-library/molecular_docking/3D_ligand_structure/822.pdb
REMARK  3 active torsions:
REMARK  status: ('A' for Active; 'I' for Inactive)
REMARK    1  A    between atoms: C2_5  and  C3_6
REMARK    2  A    between atoms: N4_8  and  C4_9
REMARK    3  A    between atoms: C4_9  and  C5_10
REMARK                            x       y       z     vdW  Elec       q    Type
REMARK                         _______ _______ _______ _____ _____    ______ ____
ROOT
ATOM      1  C3  UNL     1      17.281  14.182  -0.621  0.00  0.00    +0.000 C 
ATOM      2  O1  UNL     1      16.910  13.044  -0.343  0.00  0.00    +0.000 OA
ATOM      3  N4  UNL     1      16.588  14.998  -1.496  0.00  0.00    +0.000 N 
ATOM      4  H3  UNL     1      16.910  15.960  -1.551  0.00  0.00    +0.000 HD
ENDROOT
BRANCH   1   9
ATOM      5  N1  UNL     1      18.524  16.131   0.288  0.00  0.00    +0.000 NA
ATOM      6  N2  UNL     1      19.779  16.259   0.749  0.00  0.00    +0.000 N 
ATOM      7  C1  UNL     1      20.455  15.085   0.688  0.00  0.00    +0.000 A 
ATOM      8  N3  UNL     1      19.674  14.158   0.189  0.00  0.00    +0.000 NA
ATOM      9  C2  UNL     1      18.488  14.822  -0.055  0.00  0.00    +0.000 A 
ATOM     10  H1  UNL     1      20.098  17.162   1.083  0.00  0.00    +0.000 HD
ENDBRANCH   1   9
BRANCH   3  11
ATOM     11  C4  UNL     1      15.299  14.623  -2.010  0.00  0.00    +0.000 C 
BRANCH  11  12
ATOM     12  C5  UNL     1      14.337  15.769  -1.955  0.00  0.00    +0.000 A 
ATOM     13  C6  UNL     1      12.994  15.577  -1.615  0.00  0.00    +0.000 A 
ATOM     14  C7  UNL     1      12.127  16.664  -1.585  0.00  0.00    +0.000 A 
ATOM     15  C8  UNL     1      12.631  17.914  -1.899  0.00  0.00    +0.000 A 
ATOM     16  N5  UNL     1      13.919  18.140  -2.237  0.00  0.00    +0.000 NA
ATOM     17  C9  UNL     1      14.741  17.066  -2.257  0.00  0.00    +0.000 A 
ENDBRANCH  11  12
ENDBRANCH   3  11
TORSDOF 3
ENDMDL
