MODEL 1
REMARK VINA RESULT:    -5.835      0.000      0.000
REMARK INTER + INTRA:          -6.786
REMARK INTER:                  -6.482
REMARK INTRA:                  -0.304
REMARK UNBOUND:                -0.269
REMARK  Name = /home/anacleto/Desktop/manuscript_Mpro/naturecomm/supplementary_file_S2/6-chemical-library/molecular_docking/3D_ligand_structure/863.pdb
REMARK  2 active torsions:
REMARK  status: ('A' for Active; 'I' for Inactive)
REMARK    1  A    between atoms: C6_6  and  C7_7
REMARK    2  A    between atoms: N1_9  and  C8_10
REMARK                            x       y       z     vdW  Elec       q    Type
REMARK                         _______ _______ _______ _____ _____    ______ ____
ROOT
ATOM      1  C7  UNL     1      17.435   3.870   9.634  0.00  0.00    +0.000 C 
ATOM      2  O1  UNL     1      17.630   3.953  10.839  0.00  0.00    +0.000 OA
ATOM      3  N1  UNL     1      18.046   4.611   8.637  0.00  0.00    +0.000 N 
ATOM      4  H6  UNL     1      17.671   4.518   7.703  0.00  0.00    +0.000 HD
ENDROOT
BRANCH   1  10
ATOM      5  C1  UNL     1      15.276   2.680   9.949  0.00  0.00    +0.000 A 
ATOM      6  C2  UNL     1      14.290   1.788   9.528  0.00  0.00    +0.000 A 
ATOM      7  C3  UNL     1      14.430   1.115   8.315  0.00  0.00    +0.000 A 
ATOM      8  C4  UNL     1      15.561   1.324   7.524  0.00  0.00    +0.000 A 
ATOM      9  C5  UNL     1      16.550   2.217   7.941  0.00  0.00    +0.000 A 
ATOM     10  C6  UNL     1      16.403   2.910   9.151  0.00  0.00    +0.000 A 
ENDBRANCH   1  10
BRANCH   3  11
ATOM     11  C8  UNL     1      19.079   5.560   8.787  0.00  0.00    +0.000 A 
ATOM     12  C9  UNL     1      20.381   5.068   8.946  0.00  0.00    +0.000 A 
ATOM     13  C10 UNL     1      21.460   5.942   9.106  0.00  0.00    +0.000 A 
ATOM     14  C11 UNL     1      21.247   7.318   9.112  0.00  0.00    +0.000 A 
ATOM     15  C12 UNL     1      19.955   7.816   8.958  0.00  0.00    +0.000 A 
ATOM     16  C13 UNL     1      18.875   6.941   8.797  0.00  0.00    +0.000 A 
ENDBRANCH   3  11
TORSDOF 2
ENDMDL
MODEL 2
REMARK VINA RESULT:    -5.758      0.888      6.277
REMARK INTER + INTRA:          -6.701
REMARK INTER:                  -6.375
REMARK INTRA:                  -0.325
REMARK UNBOUND:                -0.269
REMARK  Name = /home/anacleto/Desktop/manuscript_Mpro/naturecomm/supplementary_file_S2/6-chemical-library/molecular_docking/3D_ligand_structure/863.pdb
REMARK  2 active torsions:
REMARK  status: ('A' for Active; 'I' for Inactive)
REMARK    1  A    between atoms: C6_6  and  C7_7
REMARK    2  A    between atoms: N1_9  and  C8_10
REMARK                            x       y       z     vdW  Elec       q    Type
REMARK                         _______ _______ _______ _____ _____    ______ ____
ROOT
ATOM      1  C7  UNL     1      18.767   4.052   9.142  0.00  0.00    +0.000 C 
ATOM      2  O1  UNL     1      19.347   3.030   9.483  0.00  0.00    +0.000 OA
ATOM      3  N1  UNL     1      17.450   4.167   8.734  0.00  0.00    +0.000 N 
ATOM      4  H6  UNL     1      17.165   5.058   8.352  0.00  0.00    +0.000 HD
ENDROOT
BRANCH   1  10
ATOM      5  C1  UNL     1      20.848   5.327   9.611  0.00  0.00    +0.000 A 
ATOM      6  C2  UNL     1      21.604   6.500   9.593  0.00  0.00    +0.000 A 
ATOM      7  C3  UNL     1      21.055   7.674   9.081  0.00  0.00    +0.000 A 
ATOM      8  C4  UNL     1      19.747   7.684   8.595  0.00  0.00    +0.000 A 
ATOM      9  C5  UNL     1      18.987   6.512   8.609  0.00  0.00    +0.000 A 
ATOM     10  C6  UNL     1      19.542   5.324   9.106  0.00  0.00    +0.000 A 
ENDBRANCH   1  10
BRANCH   3  11
ATOM     11  C8  UNL     1      16.472   3.151   8.701  0.00  0.00    +0.000 A 
ATOM     12  C9  UNL     1      15.634   3.033   9.818  0.00  0.00    +0.000 A 
ATOM     13  C10 UNL     1      14.643   2.048   9.867  0.00  0.00    +0.000 A 
ATOM     14  C11 UNL     1      14.483   1.169   8.800  0.00  0.00    +0.000 A 
ATOM     15  C12 UNL     1      15.313   1.276   7.687  0.00  0.00    +0.000 A 
ATOM     16  C13 UNL     1      16.304   2.263   7.638  0.00  0.00    +0.000 A 
ENDBRANCH   3  11
TORSDOF 2
ENDMDL
MODEL 3
REMARK VINA RESULT:    -4.894     14.178     15.179
REMARK INTER + INTRA:          -5.735
REMARK INTER:                  -5.418
REMARK INTRA:                  -0.317
REMARK UNBOUND:                -0.269
REMARK  Name = /home/anacleto/Desktop/manuscript_Mpro/naturecomm/supplementary_file_S2/6-chemical-library/molecular_docking/3D_ligand_structure/863.pdb
REMARK  2 active torsions:
REMARK  status: ('A' for Active; 'I' for Inactive)
REMARK    1  A    between atoms: C6_6  and  C7_7
REMARK    2  A    between atoms: N1_9  and  C8_10
REMARK                            x       y       z     vdW  Elec       q    Type
REMARK                         _______ _______ _______ _____ _____    ______ ____
ROOT
ATOM      1  C7  UNL     1      15.849  11.491  -3.469  0.00  0.00    +0.000 C 
ATOM      2  O1  UNL     1      15.775  10.606  -2.626  0.00  0.00    +0.000 OA
ATOM      3  N1  UNL     1      16.508  12.702  -3.350  0.00  0.00    +0.000 N 
ATOM      4  H6  UNL     1      16.356  13.379  -4.084  0.00  0.00    +0.000 HD
ENDROOT
BRANCH   1  10
ATOM      5  C1  UNL     1      15.752  11.713  -5.942  0.00  0.00    +0.000 A 
ATOM      6  C2  UNL     1      15.107  11.547  -7.168  0.00  0.00    +0.000 A 
ATOM      7  C3  UNL     1      13.835  10.979  -7.216  0.00  0.00    +0.000 A 
ATOM      8  C4  UNL     1      13.200  10.583  -6.038  0.00  0.00    +0.000 A 
ATOM      9  C5  UNL     1      13.842  10.745  -4.809  0.00  0.00    +0.000 A 
ATOM     10  C6  UNL     1      15.128  11.299  -4.759  0.00  0.00    +0.000 A 
ENDBRANCH   1  10
BRANCH   3  11
ATOM     11  C8  UNL     1      17.301  13.143  -2.270  0.00  0.00    +0.000 A 
ATOM     12  C9  UNL     1      18.644  12.744  -2.257  0.00  0.00    +0.000 A 
ATOM     13  C10 UNL     1      19.495  13.133  -1.219  0.00  0.00    +0.000 A 
ATOM     14  C11 UNL     1      19.010  13.924  -0.181  0.00  0.00    +0.000 A 
ATOM     15  C12 UNL     1      17.676  14.324  -0.184  0.00  0.00    +0.000 A 
ATOM     16  C13 UNL     1      16.824  13.933  -1.223  0.00  0.00    +0.000 A 
ENDBRANCH   3  11
TORSDOF 2
ENDMDL
MODEL 4
REMARK VINA RESULT:    -4.847     14.140     16.032
REMARK INTER + INTRA:          -5.682
REMARK INTER:                  -5.356
REMARK INTRA:                  -0.326
REMARK UNBOUND:                -0.269
REMARK  Name = /home/anacleto/Desktop/manuscript_Mpro/naturecomm/supplementary_file_S2/6-chemical-library/molecular_docking/3D_ligand_structure/863.pdb
REMARK  2 active torsions:
REMARK  status: ('A' for Active; 'I' for Inactive)
REMARK    1  A    between atoms: C6_6  and  C7_7
REMARK    2  A    between atoms: N1_9  and  C8_10
REMARK                            x       y       z     vdW  Elec       q    Type
REMARK                         _______ _______ _______ _____ _____    ______ ____
ROOT
ATOM      1  C7  UNL     1      16.113  13.307  -2.726  0.00  0.00    +0.000 C 
ATOM      2  O1  UNL     1      15.132  14.029  -2.593  0.00  0.00    +0.000 OA
ATOM      3  N1  UNL     1      16.280  12.289  -3.648  0.00  0.00    +0.000 N 
ATOM      4  H6  UNL     1      17.091  11.698  -3.534  0.00  0.00    +0.000 HD
ENDROOT
BRANCH   1  10
ATOM      5  C1  UNL     1      18.092  12.392  -1.533  0.00  0.00    +0.000 A 
ATOM      6  C2  UNL     1      19.169  12.523  -0.656  0.00  0.00    +0.000 A 
ATOM      7  C3  UNL     1      19.405  13.740  -0.019  0.00  0.00    +0.000 A 
ATOM      8  C4  UNL     1      18.561  14.827  -0.247  0.00  0.00    +0.000 A 
ATOM      9  C5  UNL     1      17.482  14.702  -1.125  0.00  0.00    +0.000 A 
ATOM     10  C6  UNL     1      17.252  13.485  -1.782  0.00  0.00    +0.000 A 
ENDBRANCH   1  10
BRANCH   3  11
ATOM     11  C8  UNL     1      15.395  11.917  -4.682  0.00  0.00    +0.000 A 
ATOM     12  C9  UNL     1      14.410  10.971  -4.371  0.00  0.00    +0.000 A 
ATOM     13  C10 UNL     1      13.498  10.544  -5.341  0.00  0.00    +0.000 A 
ATOM     14  C11 UNL     1      13.565  11.058  -6.633  0.00  0.00    +0.000 A 
ATOM     15  C12 UNL     1      14.543  11.996  -6.952  0.00  0.00    +0.000 A 
ATOM     16  C13 UNL     1      15.456  12.423  -5.981  0.00  0.00    +0.000 A 
ENDBRANCH   3  11
TORSDOF 2
ENDMDL
MODEL 5
REMARK VINA RESULT:    -4.668      4.188      8.280
REMARK INTER + INTRA:          -5.482
REMARK INTER:                  -5.201
REMARK INTRA:                  -0.281
REMARK UNBOUND:                -0.269
REMARK  Name = /home/anacleto/Desktop/manuscript_Mpro/naturecomm/supplementary_file_S2/6-chemical-library/molecular_docking/3D_ligand_structure/863.pdb
REMARK  2 active torsions:
REMARK  status: ('A' for Active; 'I' for Inactive)
REMARK    1  A    between atoms: C6_6  and  C7_7
REMARK    2  A    between atoms: N1_9  and  C8_10
REMARK                            x       y       z     vdW  Elec       q    Type
REMARK                         _______ _______ _______ _____ _____    ______ ____
ROOT
ATOM      1  C7  UNL     1      22.040   7.133  12.280  0.00  0.00    +0.000 C 
ATOM      2  O1  UNL     1      21.130   6.690  12.970  0.00  0.00    +0.000 OA
ATOM      3  N1  UNL     1      22.113   7.137  10.899  0.00  0.00    +0.000 N 
ATOM      4  H6  UNL     1      22.994   7.413  10.488  0.00  0.00    +0.000 HD
ENDROOT
BRANCH   1  10
ATOM      5  C1  UNL     1      24.352   6.874  13.152  0.00  0.00    +0.000 A 
ATOM      6  C2  UNL     1      25.490   7.369  13.791  0.00  0.00    +0.000 A 
ATOM      7  C3  UNL     1      25.511   8.682  14.257  0.00  0.00    +0.000 A 
ATOM      8  C4  UNL     1      24.393   9.502  14.096  0.00  0.00    +0.000 A 
ATOM      9  C5  UNL     1      23.253   9.011  13.455  0.00  0.00    +0.000 A 
ATOM     10  C6  UNL     1      23.235   7.697  12.968  0.00  0.00    +0.000 A 
ENDBRANCH   1  10
BRANCH   3  11
ATOM     11  C8  UNL     1      21.125   6.707   9.988  0.00  0.00    +0.000 A 
ATOM     12  C9  UNL     1      20.363   7.699   9.356  0.00  0.00    +0.000 A 
ATOM     13  C10 UNL     1      19.361   7.358   8.444  0.00  0.00    +0.000 A 
ATOM     14  C11 UNL     1      19.108   6.019   8.157  0.00  0.00    +0.000 A 
ATOM     15  C12 UNL     1      19.857   5.026   8.782  0.00  0.00    +0.000 A 
ATOM     16  C13 UNL     1      20.861   5.368   9.695  0.00  0.00    +0.000 A 
ENDBRANCH   3  11
TORSDOF 2
ENDMDL
MODEL 6
REMARK VINA RESULT:    -4.651     14.207     15.285
REMARK INTER + INTRA:          -5.464
REMARK INTER:                  -5.163
REMARK INTRA:                  -0.300
REMARK UNBOUND:                -0.269
REMARK  Name = /home/anacleto/Desktop/manuscript_Mpro/naturecomm/supplementary_file_S2/6-chemical-library/molecular_docking/3D_ligand_structure/863.pdb
REMARK  2 active torsions:
REMARK  status: ('A' for Active; 'I' for Inactive)
REMARK    1  A    between atoms: C6_6  and  C7_7
REMARK    2  A    between atoms: N1_9  and  C8_10
REMARK                            x       y       z     vdW  Elec       q    Type
REMARK                         _______ _______ _______ _____ _____    ______ ____
ROOT
ATOM      1  C7  UNL     1      16.908  12.343  -4.087  0.00  0.00    +0.000 C 
ATOM      2  O1  UNL     1      18.020  12.272  -4.595  0.00  0.00    +0.000 OA
ATOM      3  N1  UNL     1      16.601  12.790  -2.814  0.00  0.00    +0.000 N 
ATOM      4  H6  UNL     1      15.651  12.654  -2.498  0.00  0.00    +0.000 HD
ENDROOT
BRANCH   1  10
ATOM      5  C1  UNL     1      14.770  11.086  -4.234  0.00  0.00    +0.000 A 
ATOM      6  C2  UNL     1      13.662  10.622  -4.944  0.00  0.00    +0.000 A 
ATOM      7  C3  UNL     1      13.522  10.927  -6.297  0.00  0.00    +0.000 A 
ATOM      8  C4  UNL     1      14.494  11.687  -6.948  0.00  0.00    +0.000 A 
ATOM      9  C5  UNL     1      15.605  12.155  -6.242  0.00  0.00    +0.000 A 
ATOM     10  C6  UNL     1      15.739  11.866  -4.877  0.00  0.00    +0.000 A 
ENDBRANCH   1  10
BRANCH   3  11
ATOM     11  C8  UNL     1      17.487  13.333  -1.860  0.00  0.00    +0.000 A 
ATOM     12  C9  UNL     1      17.461  14.722  -1.680  0.00  0.00    +0.000 A 
ATOM     13  C10 UNL     1      18.312  15.339  -0.758  0.00  0.00    +0.000 A 
ATOM     14  C11 UNL     1      19.200  14.573  -0.009  0.00  0.00    +0.000 A 
ATOM     15  C12 UNL     1      19.235  13.192  -0.183  0.00  0.00    +0.000 A 
ATOM     16  C13 UNL     1      18.384  12.574  -1.106  0.00  0.00    +0.000 A 
ENDBRANCH   3  11
TORSDOF 2
ENDMDL
MODEL 7
REMARK VINA RESULT:    -4.533     13.783     14.523
REMARK INTER + INTRA:          -5.332
REMARK INTER:                  -5.021
REMARK INTRA:                  -0.310
REMARK UNBOUND:                -0.269
REMARK  Name = /home/anacleto/Desktop/manuscript_Mpro/naturecomm/supplementary_file_S2/6-chemical-library/molecular_docking/3D_ligand_structure/863.pdb
REMARK  2 active torsions:
REMARK  status: ('A' for Active; 'I' for Inactive)
REMARK    1  A    between atoms: C6_6  and  C7_7
REMARK    2  A    between atoms: N1_9  and  C8_10
REMARK                            x       y       z     vdW  Elec       q    Type
REMARK                         _______ _______ _______ _____ _____    ______ ____
ROOT
ATOM      1  C7  UNL     1      16.604  12.887  -1.620  0.00  0.00    +0.000 C 
ATOM      2  O1  UNL     1      16.604  12.115  -0.670  0.00  0.00    +0.000 OA
ATOM      3  N1  UNL     1      17.325  14.062  -1.740  0.00  0.00    +0.000 N 
ATOM      4  H6  UNL     1      17.106  14.655  -2.528  0.00  0.00    +0.000 HD
ENDROOT
BRANCH   1  10
ATOM      5  C1  UNL     1      15.508  11.248  -3.133  0.00  0.00    +0.000 A 
ATOM      6  C2  UNL     1      14.677  10.929  -4.207  0.00  0.00    +0.000 A 
ATOM      7  C3  UNL     1      14.054  11.944  -4.931  0.00  0.00    +0.000 A 
ATOM      8  C4  UNL     1      14.267  13.280  -4.591  0.00  0.00    +0.000 A 
ATOM      9  C5  UNL     1      15.097  13.605  -3.516  0.00  0.00    +0.000 A 
ATOM     10  C6  UNL     1      15.710  12.586  -2.774  0.00  0.00    +0.000 A 
ENDBRANCH   1  10
BRANCH   3  11
ATOM     11  C8  UNL     1      18.273  14.581  -0.833  0.00  0.00    +0.000 A 
ATOM     12  C9  UNL     1      17.849  15.612   0.016  0.00  0.00    +0.000 A 
ATOM     13  C10 UNL     1      18.729  16.184   0.940  0.00  0.00    +0.000 A 
ATOM     14  C11 UNL     1      20.043  15.732   1.021  0.00  0.00    +0.000 A 
ATOM     15  C12 UNL     1      20.475  14.710   0.179  0.00  0.00    +0.000 A 
ATOM     16  C13 UNL     1      19.594  14.137  -0.745  0.00  0.00    +0.000 A 
ENDBRANCH   3  11
TORSDOF 2
ENDMDL
MODEL 8
REMARK VINA RESULT:    -4.527      4.442      6.591
REMARK INTER + INTRA:          -5.325
REMARK INTER:                  -5.151
REMARK INTRA:                  -0.174
REMARK UNBOUND:                -0.269
REMARK  Name = /home/anacleto/Desktop/manuscript_Mpro/naturecomm/supplementary_file_S2/6-chemical-library/molecular_docking/3D_ligand_structure/863.pdb
REMARK  2 active torsions:
REMARK  status: ('A' for Active; 'I' for Inactive)
REMARK    1  A    between atoms: C6_6  and  C7_7
REMARK    2  A    between atoms: N1_9  and  C8_10
REMARK                            x       y       z     vdW  Elec       q    Type
REMARK                         _______ _______ _______ _____ _____    ______ ____
ROOT
ATOM      1  C7  UNL     1      22.221   6.567  11.309  0.00  0.00    +0.000 C 
ATOM      2  O1  UNL     1      23.004   5.642  11.481  0.00  0.00    +0.000 OA
ATOM      3  N1  UNL     1      22.114   7.721  12.064  0.00  0.00    +0.000 N 
ATOM      4  H6  UNL     1      21.324   8.321  11.875  0.00  0.00    +0.000 HD
ENDROOT
BRANCH   1  10
ATOM      5  C1  UNL     1      20.584   7.616   9.762  0.00  0.00    +0.000 A 
ATOM      6  C2  UNL     1      19.650   7.548   8.727  0.00  0.00    +0.000 A 
ATOM      7  C3  UNL     1      19.350   6.321   8.138  0.00  0.00    +0.000 A 
ATOM      8  C4  UNL     1      19.974   5.157   8.586  0.00  0.00    +0.000 A 
ATOM      9  C5  UNL     1      20.911   5.220   9.620  0.00  0.00    +0.000 A 
ATOM     10  C6  UNL     1      21.229   6.454  10.203  0.00  0.00    +0.000 A 
ENDBRANCH   1  10
BRANCH   3  11
ATOM     11  C8  UNL     1      22.935   8.118  13.141  0.00  0.00    +0.000 A 
ATOM     12  C9  UNL     1      22.991   7.265  14.251  0.00  0.00    +0.000 A 
ATOM     13  C10 UNL     1      23.775   7.588  15.362  0.00  0.00    +0.000 A 
ATOM     14  C11 UNL     1      24.511   8.771  15.374  0.00  0.00    +0.000 A 
ATOM     15  C12 UNL     1      24.459   9.626  14.277  0.00  0.00    +0.000 A 
ATOM     16  C13 UNL     1      23.673   9.302  13.165  0.00  0.00    +0.000 A 
ENDBRANCH   3  11
TORSDOF 2
ENDMDL
MODEL 9
REMARK VINA RESULT:    -4.380      4.055      5.256
REMARK INTER + INTRA:          -5.161
REMARK INTER:                  -4.892
REMARK INTRA:                  -0.269
REMARK UNBOUND:                -0.269
REMARK  Name = /home/anacleto/Desktop/manuscript_Mpro/naturecomm/supplementary_file_S2/6-chemical-library/molecular_docking/3D_ligand_structure/863.pdb
REMARK  2 active torsions:
REMARK  status: ('A' for Active; 'I' for Inactive)
REMARK    1  A    between atoms: C6_6  and  C7_7
REMARK    2  A    between atoms: N1_9  and  C8_10
REMARK                            x       y       z     vdW  Elec       q    Type
REMARK                         _______ _______ _______ _____ _____    ______ ____
ROOT
ATOM      1  C7  UNL     1      18.306   5.779  12.819  0.00  0.00    +0.000 C 
ATOM      2  O1  UNL     1      19.119   5.011  13.317  0.00  0.00    +0.000 OA
ATOM      3  N1  UNL     1      18.353   6.338  11.554  0.00  0.00    +0.000 N 
ATOM      4  H6  UNL     1      17.678   7.061  11.349  0.00  0.00    +0.000 HD
ENDROOT
BRANCH   1  10
ATOM      5  C1  UNL     1      17.111   7.546  14.094  0.00  0.00    +0.000 A 
ATOM      6  C2  UNL     1      16.043   7.993  14.873  0.00  0.00    +0.000 A 
ATOM      7  C3  UNL     1      15.019   7.114  15.222  0.00  0.00    +0.000 A 
ATOM      8  C4  UNL     1      15.063   5.784  14.801  0.00  0.00    +0.000 A 
ATOM      9  C5  UNL     1      16.129   5.333  14.019  0.00  0.00    +0.000 A 
ATOM     10  C6  UNL     1      17.151   6.218  13.651  0.00  0.00    +0.000 A 
ENDBRANCH   1  10
BRANCH   3  11
ATOM     11  C8  UNL     1      19.298   6.081  10.539  0.00  0.00    +0.000 A 
ATOM     12  C9  UNL     1      20.177   7.121  10.206  0.00  0.00    +0.000 A 
ATOM     13  C10 UNL     1      21.140   6.949   9.207  0.00  0.00    +0.000 A 
ATOM     14  C11 UNL     1      21.231   5.737   8.529  0.00  0.00    +0.000 A 
ATOM     15  C12 UNL     1      20.360   4.699   8.851  0.00  0.00    +0.000 A 
ATOM     16  C13 UNL     1      19.397   4.871   9.852  0.00  0.00    +0.000 A 
ENDBRANCH   3  11
TORSDOF 2
ENDMDL
