MODEL 1
REMARK VINA RESULT:    -5.453      0.000      0.000
REMARK INTER + INTRA:          -6.703
REMARK INTER:                  -6.401
REMARK INTRA:                  -0.302
REMARK UNBOUND:                -0.294
REMARK  Name = /home/anacleto/Desktop/manuscript_Mpro/naturecomm/supplementary_file_S2/6-chemical-library/molecular_docking/3D_ligand_structure/629.pdb
REMARK  3 active torsions:
REMARK  status: ('A' for Active; 'I' for Inactive)
REMARK    1  A    between atoms: C5_6  and  N2_7
REMARK    2  A    between atoms: N3_10  and  C7_11
REMARK    3  A    between atoms: C7_11  and  C8_12
REMARK                            x       y       z     vdW  Elec       q    Type
REMARK                         _______ _______ _______ _____ _____    ______ ____
ROOT
ATOM      1  N2  UNL     1     -15.179   9.128 -39.372  0.00  0.00    +0.000 N 
ATOM      2  C6  UNL     1     -16.327   9.887 -39.456  0.00  0.00    +0.000 C 
ATOM      3  O1  UNL     1     -16.503  10.862 -40.172  0.00  0.00    +0.000 OA
ATOM      4  N3  UNL     1     -17.304   9.382 -38.623  0.00  0.00    +0.000 N 
ATOM      5  H5  UNL     1     -15.277   8.248 -38.888  0.00  0.00    +0.000 HD
ATOM      6  H6  UNL     1     -16.975   8.917 -37.791  0.00  0.00    +0.000 HD
ENDROOT
BRANCH   1  12
ATOM      7  C1  UNL     1     -13.621   8.597 -41.137  0.00  0.00    +0.000 A 
ATOM      8  N1  UNL     1     -12.472   8.713 -41.846  0.00  0.00    +0.000 NA
ATOM      9  C2  UNL     1     -11.596   9.644 -41.415  0.00  0.00    +0.000 A 
ATOM     10  C3  UNL     1     -11.817  10.454 -40.314  0.00  0.00    +0.000 A 
ATOM     11  C4  UNL     1     -13.011  10.308 -39.607  0.00  0.00    +0.000 A 
ATOM     12  C5  UNL     1     -13.948   9.364 -40.018  0.00  0.00    +0.000 A 
ENDBRANCH   1  12
BRANCH   4  13
ATOM     13  C7  UNL     1     -18.577  10.060 -38.484  0.00  0.00    +0.000 C 
BRANCH  13  14
ATOM     14  C8  UNL     1     -19.697   9.069 -38.297  0.00  0.00    +0.000 A 
ATOM     15  C9  UNL     1     -19.622   7.786 -38.858  0.00  0.00    +0.000 A 
ATOM     16  C10 UNL     1     -20.651   6.865 -38.660  0.00  0.00    +0.000 A 
ATOM     17  C11 UNL     1     -21.763   7.214 -37.895  0.00  0.00    +0.000 A 
ATOM     18  C12 UNL     1     -21.845   8.484 -37.325  0.00  0.00    +0.000 A 
ATOM     19  C13 UNL     1     -20.816   9.405 -37.522  0.00  0.00    +0.000 A 
ENDBRANCH  13  14
ENDBRANCH   4  13
TORSDOF 3
ENDMDL
MODEL 2
REMARK VINA RESULT:    -5.431      6.972     11.028
REMARK INTER + INTRA:          -6.677
REMARK INTER:                  -6.471
REMARK INTRA:                  -0.206
REMARK UNBOUND:                -0.294
REMARK  Name = /home/anacleto/Desktop/manuscript_Mpro/naturecomm/supplementary_file_S2/6-chemical-library/molecular_docking/3D_ligand_structure/629.pdb
REMARK  3 active torsions:
REMARK  status: ('A' for Active; 'I' for Inactive)
REMARK    1  A    between atoms: C5_6  and  N2_7
REMARK    2  A    between atoms: N3_10  and  C7_11
REMARK    3  A    between atoms: C7_11  and  C8_12
REMARK                            x       y       z     vdW  Elec       q    Type
REMARK                         _______ _______ _______ _____ _____    ______ ____
ROOT
ATOM      1  N2  UNL     1     -25.429   4.397 -37.998  0.00  0.00    +0.000 N 
ATOM      2  C6  UNL     1     -24.376   5.046 -38.605  0.00  0.00    +0.000 C 
ATOM      3  O1  UNL     1     -24.268   5.301 -39.797  0.00  0.00    +0.000 OA
ATOM      4  N3  UNL     1     -23.429   5.415 -37.672  0.00  0.00    +0.000 N 
ATOM      5  H5  UNL     1     -25.448   4.453 -36.991  0.00  0.00    +0.000 HD
ATOM      6  H6  UNL     1     -23.354   4.817 -36.863  0.00  0.00    +0.000 HD
ENDROOT
BRANCH   1  12
ATOM      7  C1  UNL     1     -27.525   4.652 -39.167  0.00  0.00    +0.000 A 
ATOM      8  N1  UNL     1     -28.653   4.228 -39.787  0.00  0.00    +0.000 NA
ATOM      9  C2  UNL     1     -28.823   2.893 -39.869  0.00  0.00    +0.000 A 
ATOM     10  C3  UNL     1     -27.923   1.972 -39.360  0.00  0.00    +0.000 A 
ATOM     11  C4  UNL     1     -26.772   2.444 -38.727  0.00  0.00    +0.000 A 
ATOM     12  C5  UNL     1     -26.551   3.815 -38.623  0.00  0.00    +0.000 A 
ENDBRANCH   1  12
BRANCH   4  13
ATOM     13  C7  UNL     1     -22.193   6.046 -38.085  0.00  0.00    +0.000 C 
BRANCH  13  14
ATOM     14  C8  UNL     1     -22.219   7.524 -37.789  0.00  0.00    +0.000 A 
ATOM     15  C9  UNL     1     -23.428   8.234 -37.783  0.00  0.00    +0.000 A 
ATOM     16  C10 UNL     1     -23.447   9.597 -37.485  0.00  0.00    +0.000 A 
ATOM     17  C11 UNL     1     -22.260  10.264 -37.183  0.00  0.00    +0.000 A 
ATOM     18  C12 UNL     1     -21.053   9.566 -37.178  0.00  0.00    +0.000 A 
ATOM     19  C13 UNL     1     -21.033   8.204 -37.477  0.00  0.00    +0.000 A 
ENDBRANCH  13  14
ENDBRANCH   4  13
TORSDOF 3
ENDMDL
MODEL 3
REMARK VINA RESULT:    -5.352      6.935     10.173
REMARK INTER + INTRA:          -6.584
REMARK INTER:                  -6.298
REMARK INTRA:                  -0.286
REMARK UNBOUND:                -0.294
REMARK  Name = /home/anacleto/Desktop/manuscript_Mpro/naturecomm/supplementary_file_S2/6-chemical-library/molecular_docking/3D_ligand_structure/629.pdb
REMARK  3 active torsions:
REMARK  status: ('A' for Active; 'I' for Inactive)
REMARK    1  A    between atoms: C5_6  and  N2_7
REMARK    2  A    between atoms: N3_10  and  C7_11
REMARK    3  A    between atoms: C7_11  and  C8_12
REMARK                            x       y       z     vdW  Elec       q    Type
REMARK                         _______ _______ _______ _____ _____    ______ ____
ROOT
ATOM      1  N2  UNL     1     -24.209   5.106 -37.846  0.00  0.00    +0.000 N 
ATOM      2  C6  UNL     1     -24.882   4.245 -38.686  0.00  0.00    +0.000 C 
ATOM      3  O1  UNL     1     -24.742   4.152 -39.897  0.00  0.00    +0.000 OA
ATOM      4  N3  UNL     1     -25.749   3.447 -37.968  0.00  0.00    +0.000 N 
ATOM      5  H5  UNL     1     -24.299   4.908 -36.861  0.00  0.00    +0.000 HD
ATOM      6  H6  UNL     1     -26.130   3.855 -37.130  0.00  0.00    +0.000 HD
ENDROOT
BRANCH   1  12
ATOM      7  C1  UNL     1     -23.758   7.208 -38.943  0.00  0.00    +0.000 A 
ATOM      8  N1  UNL     1     -22.988   8.241 -39.364  0.00  0.00    +0.000 NA
ATOM      9  C2  UNL     1     -21.681   8.184 -39.038  0.00  0.00    +0.000 A 
ATOM     10  C3  UNL     1     -21.115   7.145 -38.319  0.00  0.00    +0.000 A 
ATOM     11  C4  UNL     1     -21.936   6.096 -37.902  0.00  0.00    +0.000 A 
ATOM     12  C5  UNL     1     -23.294   6.115 -38.210  0.00  0.00    +0.000 A 
ENDBRANCH   1  12
BRANCH   4  13
ATOM     13  C7  UNL     1     -26.623   2.512 -38.647  0.00  0.00    +0.000 C 
BRANCH  13  14
ATOM     14  C8  UNL     1     -27.914   3.178 -39.051  0.00  0.00    +0.000 A 
ATOM     15  C9  UNL     1     -28.452   4.224 -38.286  0.00  0.00    +0.000 A 
ATOM     16  C10 UNL     1     -29.634   4.852 -38.679  0.00  0.00    +0.000 A 
ATOM     17  C11 UNL     1     -30.288   4.446 -39.842  0.00  0.00    +0.000 A 
ATOM     18  C12 UNL     1     -29.758   3.414 -40.614  0.00  0.00    +0.000 A 
ATOM     19  C13 UNL     1     -28.576   2.784 -40.222  0.00  0.00    +0.000 A 
ENDBRANCH  13  14
ENDBRANCH   4  13
TORSDOF 3
ENDMDL
MODEL 4
REMARK VINA RESULT:    -5.330      5.898     10.428
REMARK INTER + INTRA:          -6.558
REMARK INTER:                  -6.242
REMARK INTRA:                  -0.316
REMARK UNBOUND:                -0.294
REMARK  Name = /home/anacleto/Desktop/manuscript_Mpro/naturecomm/supplementary_file_S2/6-chemical-library/molecular_docking/3D_ligand_structure/629.pdb
REMARK  3 active torsions:
REMARK  status: ('A' for Active; 'I' for Inactive)
REMARK    1  A    between atoms: C5_6  and  N2_7
REMARK    2  A    between atoms: N3_10  and  C7_11
REMARK    3  A    between atoms: C7_11  and  C8_12
REMARK                            x       y       z     vdW  Elec       q    Type
REMARK                         _______ _______ _______ _____ _____    ______ ____
ROOT
ATOM      1  N2  UNL     1     -24.553   4.533 -38.299  0.00  0.00    +0.000 N 
ATOM      2  C6  UNL     1     -24.373   5.894 -38.423  0.00  0.00    +0.000 C 
ATOM      3  O1  UNL     1     -25.187   6.699 -38.852  0.00  0.00    +0.000 OA
ATOM      4  N3  UNL     1     -23.126   6.263 -37.961  0.00  0.00    +0.000 N 
ATOM      5  H5  UNL     1     -23.861   4.055 -37.742  0.00  0.00    +0.000 HD
ATOM      6  H6  UNL     1     -22.400   5.570 -38.057  0.00  0.00    +0.000 HD
ENDROOT
BRANCH   1  12
ATOM      7  C1  UNL     1     -25.731   3.370 -40.054  0.00  0.00    +0.000 A 
ATOM      8  N1  UNL     1     -26.742   2.646 -40.594  0.00  0.00    +0.000 NA
ATOM      9  C2  UNL     1     -27.746   2.307 -39.759  0.00  0.00    +0.000 A 
ATOM     10  C3  UNL     1     -27.782   2.660 -38.421  0.00  0.00    +0.000 A 
ATOM     11  C4  UNL     1     -26.725   3.406 -37.898  0.00  0.00    +0.000 A 
ATOM     12  C5  UNL     1     -25.664   3.775 -38.721  0.00  0.00    +0.000 A 
ENDBRANCH   1  12
BRANCH   4  13
ATOM     13  C7  UNL     1     -22.680   7.637 -38.060  0.00  0.00    +0.000 C 
BRANCH  13  14
ATOM     14  C8  UNL     1     -21.243   7.705 -38.511  0.00  0.00    +0.000 A 
ATOM     15  C9  UNL     1     -20.727   6.762 -39.411  0.00  0.00    +0.000 A 
ATOM     16  C10 UNL     1     -19.403   6.846 -39.842  0.00  0.00    +0.000 A 
ATOM     17  C11 UNL     1     -18.582   7.875 -39.384  0.00  0.00    +0.000 A 
ATOM     18  C12 UNL     1     -19.086   8.824 -38.495  0.00  0.00    +0.000 A 
ATOM     19  C13 UNL     1     -20.410   8.741 -38.062  0.00  0.00    +0.000 A 
ENDBRANCH  13  14
ENDBRANCH   4  13
TORSDOF 3
ENDMDL
MODEL 5
REMARK VINA RESULT:    -5.137      1.672      7.289
REMARK INTER + INTRA:          -6.332
REMARK INTER:                  -5.989
REMARK INTRA:                  -0.343
REMARK UNBOUND:                -0.294
REMARK  Name = /home/anacleto/Desktop/manuscript_Mpro/naturecomm/supplementary_file_S2/6-chemical-library/molecular_docking/3D_ligand_structure/629.pdb
REMARK  3 active torsions:
REMARK  status: ('A' for Active; 'I' for Inactive)
REMARK    1  A    between atoms: C5_6  and  N2_7
REMARK    2  A    between atoms: N3_10  and  C7_11
REMARK    3  A    between atoms: C7_11  and  C8_12
REMARK                            x       y       z     vdW  Elec       q    Type
REMARK                         _______ _______ _______ _____ _____    ______ ____
ROOT
ATOM      1  N2  UNL     1     -18.462   9.356 -38.155  0.00  0.00    +0.000 N 
ATOM      2  C6  UNL     1     -17.853   9.977 -39.225  0.00  0.00    +0.000 C 
ATOM      3  O1  UNL     1     -18.390  10.321 -40.268  0.00  0.00    +0.000 OA
ATOM      4  N3  UNL     1     -16.517  10.199 -38.961  0.00  0.00    +0.000 N 
ATOM      5  H5  UNL     1     -17.919   9.329 -37.305  0.00  0.00    +0.000 HD
ATOM      6  H6  UNL     1     -16.074   9.533 -38.348  0.00  0.00    +0.000 HD
ENDROOT
BRANCH   1  12
ATOM      7  C1  UNL     1     -20.106   7.635 -38.549  0.00  0.00    +0.000 A 
ATOM      8  N1  UNL     1     -21.344   7.084 -38.537  0.00  0.00    +0.000 NA
ATOM      9  C2  UNL     1     -22.332   7.845 -38.022  0.00  0.00    +0.000 A 
ATOM     10  C3  UNL     1     -22.136   9.122 -37.526  0.00  0.00    +0.000 A 
ATOM     11  C4  UNL     1     -20.848   9.659 -37.554  0.00  0.00    +0.000 A 
ATOM     12  C5  UNL     1     -19.796   8.909 -38.071  0.00  0.00    +0.000 A 
ENDBRANCH   1  12
BRANCH   4  13
ATOM     13  C7  UNL     1     -15.652  10.772 -39.971  0.00  0.00    +0.000 C 
BRANCH  13  14
ATOM     14  C8  UNL     1     -14.547   9.815 -40.340  0.00  0.00    +0.000 A 
ATOM     15  C9  UNL     1     -14.711   8.899 -41.389  0.00  0.00    +0.000 A 
ATOM     16  C10 UNL     1     -13.675   8.032 -41.740  0.00  0.00    +0.000 A 
ATOM     17  C11 UNL     1     -12.464   8.075 -41.052  0.00  0.00    +0.000 A 
ATOM     18  C12 UNL     1     -12.286   8.988 -40.012  0.00  0.00    +0.000 A 
ATOM     19  C13 UNL     1     -13.321   9.855 -39.660  0.00  0.00    +0.000 A 
ENDBRANCH  13  14
ENDBRANCH   4  13
TORSDOF 3
ENDMDL
MODEL 6
REMARK VINA RESULT:    -5.006      4.184      6.498
REMARK INTER + INTRA:          -6.177
REMARK INTER:                  -5.861
REMARK INTRA:                  -0.316
REMARK UNBOUND:                -0.294
REMARK  Name = /home/anacleto/Desktop/manuscript_Mpro/naturecomm/supplementary_file_S2/6-chemical-library/molecular_docking/3D_ligand_structure/629.pdb
REMARK  3 active torsions:
REMARK  status: ('A' for Active; 'I' for Inactive)
REMARK    1  A    between atoms: C5_6  and  N2_7
REMARK    2  A    between atoms: N3_10  and  C7_11
REMARK    3  A    between atoms: C7_11  and  C8_12
REMARK                            x       y       z     vdW  Elec       q    Type
REMARK                         _______ _______ _______ _____ _____    ______ ____
ROOT
ATOM      1  N2  UNL     1     -20.601   6.821 -38.634  0.00  0.00    +0.000 N 
ATOM      2  C6  UNL     1     -21.961   6.988 -38.779  0.00  0.00    +0.000 C 
ATOM      3  O1  UNL     1     -22.525   7.918 -39.338  0.00  0.00    +0.000 OA
ATOM      4  N3  UNL     1     -22.643   5.926 -38.220  0.00  0.00    +0.000 N 
ATOM      5  H5  UNL     1     -20.308   5.905 -38.329  0.00  0.00    +0.000 HD
ATOM      6  H6  UNL     1     -22.193   5.479 -37.437  0.00  0.00    +0.000 HD
ENDROOT
BRANCH   1  12
ATOM      7  C1  UNL     1     -19.418   8.894 -38.277  0.00  0.00    +0.000 A 
ATOM      8  N1  UNL     1     -18.488   9.846 -38.535  0.00  0.00    +0.000 NA
ATOM      9  C2  UNL     1     -17.676   9.618 -39.588  0.00  0.00    +0.000 A 
ATOM     10  C3  UNL     1     -17.757   8.491 -40.388  0.00  0.00    +0.000 A 
ATOM     11  C4  UNL     1     -18.727   7.531 -40.094  0.00  0.00    +0.000 A 
ATOM     12  C5  UNL     1     -19.583   7.720 -39.013  0.00  0.00    +0.000 A 
ENDBRANCH   1  12
BRANCH   4  13
ATOM     13  C7  UNL     1     -24.090   5.915 -38.185  0.00  0.00    +0.000 C 
BRANCH  13  14
ATOM     14  C8  UNL     1     -24.641   4.781 -39.011  0.00  0.00    +0.000 A 
ATOM     15  C9  UNL     1     -24.451   4.746 -40.400  0.00  0.00    +0.000 A 
ATOM     16  C10 UNL     1     -24.942   3.680 -41.155  0.00  0.00    +0.000 A 
ATOM     17  C11 UNL     1     -25.623   2.636 -40.530  0.00  0.00    +0.000 A 
ATOM     18  C12 UNL     1     -25.811   2.656 -39.149  0.00  0.00    +0.000 A 
ATOM     19  C13 UNL     1     -25.320   3.721 -38.393  0.00  0.00    +0.000 A 
ENDBRANCH  13  14
ENDBRANCH   4  13
TORSDOF 3
ENDMDL
MODEL 7
REMARK VINA RESULT:    -4.977      6.377     11.093
REMARK INTER + INTRA:          -6.144
REMARK INTER:                  -5.882
REMARK INTRA:                  -0.262
REMARK UNBOUND:                -0.294
REMARK  Name = /home/anacleto/Desktop/manuscript_Mpro/naturecomm/supplementary_file_S2/6-chemical-library/molecular_docking/3D_ligand_structure/629.pdb
REMARK  3 active torsions:
REMARK  status: ('A' for Active; 'I' for Inactive)
REMARK    1  A    between atoms: C5_6  and  N2_7
REMARK    2  A    between atoms: N3_10  and  C7_11
REMARK    3  A    between atoms: C7_11  and  C8_12
REMARK                            x       y       z     vdW  Elec       q    Type
REMARK                         _______ _______ _______ _____ _____    ______ ____
ROOT
ATOM      1  N2  UNL     1     -25.935   5.945 -39.148  0.00  0.00    +0.000 N 
ATOM      2  C6  UNL     1     -24.768   5.408 -38.650  0.00  0.00    +0.000 C 
ATOM      3  O1  UNL     1     -24.560   4.230 -38.395  0.00  0.00    +0.000 OA
ATOM      4  N3  UNL     1     -23.811   6.389 -38.491  0.00  0.00    +0.000 N 
ATOM      5  H5  UNL     1     -25.864   6.892 -39.488  0.00  0.00    +0.000 HD
ATOM      6  H6  UNL     1     -24.159   7.313 -38.285  0.00  0.00    +0.000 HD
ENDROOT
BRANCH   1  12
ATOM      7  C1  UNL     1     -27.331   4.610 -40.594  0.00  0.00    +0.000 A 
ATOM      8  N1  UNL     1     -28.451   3.935 -40.951  0.00  0.00    +0.000 NA
ATOM      9  C2  UNL     1     -29.455   3.924 -40.050  0.00  0.00    +0.000 A 
ATOM     10  C3  UNL     1     -29.387   4.556 -38.819  0.00  0.00    +0.000 A 
ATOM     11  C4  UNL     1     -28.219   5.242 -38.484  0.00  0.00    +0.000 A 
ATOM     12  C5  UNL     1     -27.154   5.276 -39.381  0.00  0.00    +0.000 A 
ENDBRANCH   1  12
BRANCH   4  13
ATOM     13  C7  UNL     1     -22.523   6.075 -37.909  0.00  0.00    +0.000 C 
BRANCH  13  14
ATOM     14  C8  UNL     1     -21.585   7.252 -38.011  0.00  0.00    +0.000 A 
ATOM     15  C9  UNL     1     -21.871   8.457 -37.355  0.00  0.00    +0.000 A 
ATOM     16  C10 UNL     1     -20.987   9.534 -37.435  0.00  0.00    +0.000 A 
ATOM     17  C11 UNL     1     -19.805   9.415 -38.165  0.00  0.00    +0.000 A 
ATOM     18  C12 UNL     1     -19.506   8.219 -38.815  0.00  0.00    +0.000 A 
ATOM     19  C13 UNL     1     -20.390   7.142 -38.737  0.00  0.00    +0.000 A 
ENDBRANCH  13  14
ENDBRANCH   4  13
TORSDOF 3
ENDMDL
MODEL 8
REMARK VINA RESULT:    -4.863     18.245     20.355
REMARK INTER + INTRA:          -6.010
REMARK INTER:                  -5.716
REMARK INTRA:                  -0.294
REMARK UNBOUND:                -0.294
REMARK  Name = /home/anacleto/Desktop/manuscript_Mpro/naturecomm/supplementary_file_S2/6-chemical-library/molecular_docking/3D_ligand_structure/629.pdb
REMARK  3 active torsions:
REMARK  status: ('A' for Active; 'I' for Inactive)
REMARK    1  A    between atoms: C5_6  and  N2_7
REMARK    2  A    between atoms: N3_10  and  C7_11
REMARK    3  A    between atoms: C7_11  and  C8_12
REMARK                            x       y       z     vdW  Elec       q    Type
REMARK                         _______ _______ _______ _____ _____    ______ ____
ROOT
ATOM      1  N2  UNL     1     -23.514  -5.049 -27.975  0.00  0.00    +0.000 N 
ATOM      2  C6  UNL     1     -22.372  -4.282 -28.059  0.00  0.00    +0.000 C 
ATOM      3  O1  UNL     1     -22.298  -3.070 -27.913  0.00  0.00    +0.000 OA
ATOM      4  N3  UNL     1     -21.272  -5.076 -28.309  0.00  0.00    +0.000 N 
ATOM      5  H5  UNL     1     -23.363  -6.045 -27.919  0.00  0.00    +0.000 HD
ATOM      6  H6  UNL     1     -21.447  -5.915 -28.839  0.00  0.00    +0.000 HD
ENDROOT
BRANCH   1  12
ATOM      7  C1  UNL     1     -25.550  -5.033 -26.679  0.00  0.00    +0.000 A 
ATOM      8  N1  UNL     1     -26.828  -4.684 -26.390  0.00  0.00    +0.000 NA
ATOM      9  C2  UNL     1     -27.433  -3.855 -27.266  0.00  0.00    +0.000 A 
ATOM     10  C3  UNL     1     -26.821  -3.367 -28.408  0.00  0.00    +0.000 A 
ATOM     11  C4  UNL     1     -25.505  -3.747 -28.675  0.00  0.00    +0.000 A 
ATOM     12  C5  UNL     1     -24.838  -4.597 -27.797  0.00  0.00    +0.000 A 
ENDBRANCH   1  12
BRANCH   4  13
ATOM     13  C7  UNL     1     -19.966  -4.483 -28.514  0.00  0.00    +0.000 C 
BRANCH  13  14
ATOM     14  C8  UNL     1     -19.041  -4.811 -27.369  0.00  0.00    +0.000 A 
ATOM     15  C9  UNL     1     -18.577  -3.804 -26.510  0.00  0.00    +0.000 A 
ATOM     16  C10 UNL     1     -17.740  -4.119 -25.439  0.00  0.00    +0.000 A 
ATOM     17  C11 UNL     1     -17.363  -5.442 -25.211  0.00  0.00    +0.000 A 
ATOM     18  C12 UNL     1     -17.826  -6.452 -26.053  0.00  0.00    +0.000 A 
ATOM     19  C13 UNL     1     -18.662  -6.139 -27.125  0.00  0.00    +0.000 A 
ENDBRANCH  13  14
ENDBRANCH   4  13
TORSDOF 3
ENDMDL
MODEL 9
REMARK VINA RESULT:    -4.833     19.352     21.153
REMARK INTER + INTRA:          -5.974
REMARK INTER:                  -5.594
REMARK INTRA:                  -0.380
REMARK UNBOUND:                -0.294
REMARK  Name = /home/anacleto/Desktop/manuscript_Mpro/naturecomm/supplementary_file_S2/6-chemical-library/molecular_docking/3D_ligand_structure/629.pdb
REMARK  3 active torsions:
REMARK  status: ('A' for Active; 'I' for Inactive)
REMARK    1  A    between atoms: C5_6  and  N2_7
REMARK    2  A    between atoms: N3_10  and  C7_11
REMARK    3  A    between atoms: C7_11  and  C8_12
REMARK                            x       y       z     vdW  Elec       q    Type
REMARK                         _______ _______ _______ _____ _____    ______ ____
ROOT
ATOM      1  N2  UNL     1     -36.821  10.686 -33.693  0.00  0.00    +0.000 N 
ATOM      2  C6  UNL     1     -37.385  10.991 -34.913  0.00  0.00    +0.000 C 
ATOM      3  O1  UNL     1     -37.053  11.900 -35.662  0.00  0.00    +0.000 OA
ATOM      4  N3  UNL     1     -38.391  10.097 -35.220  0.00  0.00    +0.000 N 
ATOM      5  H5  UNL     1     -37.079   9.790 -33.310  0.00  0.00    +0.000 HD
ATOM      6  H6  UNL     1     -38.886   9.707 -34.433  0.00  0.00    +0.000 HD
ENDROOT
BRANCH   1  12
ATOM      7  C1  UNL     1     -36.186  12.230 -31.950  0.00  0.00    +0.000 A 
ATOM      8  N1  UNL     1     -35.327  12.979 -31.216  0.00  0.00    +0.000 NA
ATOM      9  C2  UNL     1     -34.024  12.902 -31.560  0.00  0.00    +0.000 A 
ATOM     10  C3  UNL     1     -33.550  12.119 -32.598  0.00  0.00    +0.000 A 
ATOM     11  C4  UNL     1     -34.462  11.361 -33.333  0.00  0.00    +0.000 A 
ATOM     12  C5  UNL     1     -35.816  11.403 -33.012  0.00  0.00    +0.000 A 
ENDBRANCH   1  12
BRANCH   4  13
ATOM     13  C7  UNL     1     -39.182  10.261 -36.422  0.00  0.00    +0.000 C 
BRANCH  13  14
ATOM     14  C8  UNL     1     -38.725   9.311 -37.500  0.00  0.00    +0.000 A 
ATOM     15  C9  UNL     1     -38.012   9.778 -38.614  0.00  0.00    +0.000 A 
ATOM     16  C10 UNL     1     -37.572   8.889 -39.595  0.00  0.00    +0.000 A 
ATOM     17  C11 UNL     1     -37.834   7.526 -39.472  0.00  0.00    +0.000 A 
ATOM     18  C12 UNL     1     -38.535   7.049 -38.365  0.00  0.00    +0.000 A 
ATOM     19  C13 UNL     1     -38.976   7.937 -37.383  0.00  0.00    +0.000 A 
ENDBRANCH  13  14
ENDBRANCH   4  13
TORSDOF 3
ENDMDL
