MODEL 1
REMARK VINA RESULT:    -3.702      0.000      0.000
REMARK INTER + INTRA:          -3.702
REMARK INTER:                  -3.702
REMARK INTRA:                   0.000
REMARK UNBOUND:                 0.000
REMARK  Name = /home/anacleto/Desktop/manuscript_Mpro/naturecomm/supplementary_file_S2/6-chemical-library/molecular_docking/3D_ligand_structure/346.pdb
REMARK  0 active torsions:
REMARK  status: ('A' for Active; 'I' for Inactive)
REMARK                            x       y       z     vdW  Elec       q    Type
REMARK                         _______ _______ _______ _____ _____    ______ ____
ROOT
ATOM      1  C1  UNL     1      16.981  11.579  -4.774  0.00  0.00    +0.000 A 
ATOM      2  C2  UNL     1      16.609  11.230  -3.467  0.00  0.00    +0.000 A 
ATOM      3  N1  UNL     1      15.337  10.839  -3.372  0.00  0.00    +0.000 NA
ATOM      4  N2  UNL     1      14.853  10.931  -4.639  0.00  0.00    +0.000 N 
ATOM      5  C3  UNL     1      15.843  11.382  -5.518  0.00  0.00    +0.000 A 
ATOM      6  C4  UNL     1      13.561  10.631  -5.075  0.00  0.00    +0.000 A 
ATOM      7  C5  UNL     1      13.237  10.773  -6.371  0.00  0.00    +0.000 A 
ATOM      8  C6  UNL     1      14.250  11.242  -7.300  0.00  0.00    +0.000 A 
ATOM      9  C7  UNL     1      15.500  11.534  -6.892  0.00  0.00    +0.000 A 
ENDROOT
TORSDOF 0
ENDMDL
MODEL 2
REMARK VINA RESULT:    -3.646     15.339     16.474
REMARK INTER + INTRA:          -3.646
REMARK INTER:                  -3.646
REMARK INTRA:                   0.000
REMARK UNBOUND:                 0.000
REMARK  Name = /home/anacleto/Desktop/manuscript_Mpro/naturecomm/supplementary_file_S2/6-chemical-library/molecular_docking/3D_ligand_structure/346.pdb
REMARK  0 active torsions:
REMARK  status: ('A' for Active; 'I' for Inactive)
REMARK                            x       y       z     vdW  Elec       q    Type
REMARK                         _______ _______ _______ _____ _____    ______ ____
ROOT
ATOM      1  C1  UNL     1      21.009   3.942   9.264  0.00  0.00    +0.000 A 
ATOM      2  C2  UNL     1      22.310   4.216   9.715  0.00  0.00    +0.000 A 
ATOM      3  N1  UNL     1      22.584   5.521   9.758  0.00  0.00    +0.000 NA
ATOM      4  N2  UNL     1      21.446   6.127   9.327  0.00  0.00    +0.000 N 
ATOM      5  C3  UNL     1      20.465   5.179   9.019  0.00  0.00    +0.000 A 
ATOM      6  C4  UNL     1      21.217   7.497   9.188  0.00  0.00    +0.000 A 
ATOM      7  C5  UNL     1      20.029   7.941   8.748  0.00  0.00    +0.000 A 
ATOM      8  C6  UNL     1      18.995   6.973   8.421  0.00  0.00    +0.000 A 
ATOM      9  C7  UNL     1      19.204   5.648   8.551  0.00  0.00    +0.000 A 
ENDROOT
TORSDOF 0
ENDMDL
MODEL 3
REMARK VINA RESULT:    -3.519      1.244      1.753
REMARK INTER + INTRA:          -3.519
REMARK INTER:                  -3.519
REMARK INTRA:                   0.000
REMARK UNBOUND:                 0.000
REMARK  Name = /home/anacleto/Desktop/manuscript_Mpro/naturecomm/supplementary_file_S2/6-chemical-library/molecular_docking/3D_ligand_structure/346.pdb
REMARK  0 active torsions:
REMARK  status: ('A' for Active; 'I' for Inactive)
REMARK                            x       y       z     vdW  Elec       q    Type
REMARK                         _______ _______ _______ _____ _____    ______ ____
ROOT
ATOM      1  C1  UNL     1      16.661  12.209  -7.023  0.00  0.00    +0.000 A 
ATOM      2  C2  UNL     1      17.419  12.351  -5.850  0.00  0.00    +0.000 A 
ATOM      3  N1  UNL     1      16.777  11.930  -4.759  0.00  0.00    +0.000 NA
ATOM      4  N2  UNL     1      15.570  11.501  -5.213  0.00  0.00    +0.000 N 
ATOM      5  C3  UNL     1      15.475  11.661  -6.599  0.00  0.00    +0.000 A 
ATOM      6  C4  UNL     1      14.525  10.963  -4.460  0.00  0.00    +0.000 A 
ATOM      7  C5  UNL     1      13.387  10.581  -5.061  0.00  0.00    +0.000 A 
ATOM      8  C6  UNL     1      13.267  10.740  -6.501  0.00  0.00    +0.000 A 
ATOM      9  C7  UNL     1      14.268  11.257  -7.239  0.00  0.00    +0.000 A 
ENDROOT
TORSDOF 0
ENDMDL
MODEL 4
REMARK VINA RESULT:    -3.502     15.661     17.061
REMARK INTER + INTRA:          -3.502
REMARK INTER:                  -3.502
REMARK INTRA:                   0.000
REMARK UNBOUND:                 0.000
REMARK  Name = /home/anacleto/Desktop/manuscript_Mpro/naturecomm/supplementary_file_S2/6-chemical-library/molecular_docking/3D_ligand_structure/346.pdb
REMARK  0 active torsions:
REMARK  status: ('A' for Active; 'I' for Inactive)
REMARK                            x       y       z     vdW  Elec       q    Type
REMARK                         _______ _______ _______ _____ _____    ______ ____
ROOT
ATOM      1  C1  UNL     1      19.081   7.521  12.088  0.00  0.00    +0.000 A 
ATOM      2  C2  UNL     1      18.628   6.427  12.841  0.00  0.00    +0.000 A 
ATOM      3  N1  UNL     1      18.452   5.326  12.109  0.00  0.00    +0.000 NA
ATOM      4  N2  UNL     1      18.793   5.694  10.845  0.00  0.00    +0.000 N 
ATOM      5  C3  UNL     1      19.183   7.036  10.807  0.00  0.00    +0.000 A 
ATOM      6  C4  UNL     1      18.782   4.896   9.699  0.00  0.00    +0.000 A 
ATOM      7  C5  UNL     1      19.152   5.411   8.516  0.00  0.00    +0.000 A 
ATOM      8  C6  UNL     1      19.559   6.805   8.453  0.00  0.00    +0.000 A 
ATOM      9  C7  UNL     1      19.575   7.584   9.552  0.00  0.00    +0.000 A 
ENDROOT
TORSDOF 0
ENDMDL
MODEL 5
REMARK VINA RESULT:    -3.484      2.002      2.095
REMARK INTER + INTRA:          -3.484
REMARK INTER:                  -3.484
REMARK INTRA:                   0.000
REMARK UNBOUND:                 0.000
REMARK  Name = /home/anacleto/Desktop/manuscript_Mpro/naturecomm/supplementary_file_S2/6-chemical-library/molecular_docking/3D_ligand_structure/346.pdb
REMARK  0 active torsions:
REMARK  status: ('A' for Active; 'I' for Inactive)
REMARK                            x       y       z     vdW  Elec       q    Type
REMARK                         _______ _______ _______ _____ _____    ______ ____
ROOT
ATOM      1  C1  UNL     1      15.964  14.030  -5.625  0.00  0.00    +0.000 A 
ATOM      2  C2  UNL     1      15.333  14.414  -4.432  0.00  0.00    +0.000 A 
ATOM      3  N1  UNL     1      14.269  13.666  -4.139  0.00  0.00    +0.000 NA
ATOM      4  N2  UNL     1      14.188  12.768  -5.157  0.00  0.00    +0.000 N 
ATOM      5  C3  UNL     1      15.218  12.971  -6.081  0.00  0.00    +0.000 A 
ATOM      6  C4  UNL     1      13.239  11.758  -5.321  0.00  0.00    +0.000 A 
ATOM      7  C5  UNL     1      13.296  10.945  -6.388  0.00  0.00    +0.000 A 
ATOM      8  C6  UNL     1      14.358  11.139  -7.362  0.00  0.00    +0.000 A 
ATOM      9  C7  UNL     1      15.280  12.110  -7.215  0.00  0.00    +0.000 A 
ENDROOT
TORSDOF 0
ENDMDL
MODEL 6
REMARK VINA RESULT:    -3.477      0.901      3.048
REMARK INTER + INTRA:          -3.477
REMARK INTER:                  -3.477
REMARK INTRA:                   0.000
REMARK UNBOUND:                 0.000
REMARK  Name = /home/anacleto/Desktop/manuscript_Mpro/naturecomm/supplementary_file_S2/6-chemical-library/molecular_docking/3D_ligand_structure/346.pdb
REMARK  0 active torsions:
REMARK  status: ('A' for Active; 'I' for Inactive)
REMARK                            x       y       z     vdW  Elec       q    Type
REMARK                         _______ _______ _______ _____ _____    ______ ____
ROOT
ATOM      1  C1  UNL     1      14.394  11.386  -7.162  0.00  0.00    +0.000 A 
ATOM      2  C2  UNL     1      13.224  10.883  -6.572  0.00  0.00    +0.000 A 
ATOM      3  N1  UNL     1      13.353  10.657  -5.264  0.00  0.00    +0.000 NA
ATOM      4  N2  UNL     1      14.632  11.016  -4.977  0.00  0.00    +0.000 N 
ATOM      5  C3  UNL     1      15.291  11.467  -6.124  0.00  0.00    +0.000 A 
ATOM      6  C4  UNL     1      15.265  10.968  -3.733  0.00  0.00    +0.000 A 
ATOM      7  C5  UNL     1      16.543  11.362  -3.612  0.00  0.00    +0.000 A 
ATOM      8  C6  UNL     1      17.247  11.834  -4.793  0.00  0.00    +0.000 A 
ATOM      9  C7  UNL     1      16.647  11.884  -5.998  0.00  0.00    +0.000 A 
ENDROOT
TORSDOF 0
ENDMDL
MODEL 7
REMARK VINA RESULT:    -3.406     15.404     17.013
REMARK INTER + INTRA:          -3.406
REMARK INTER:                  -3.406
REMARK INTRA:                   0.000
REMARK UNBOUND:                 0.000
REMARK  Name = /home/anacleto/Desktop/manuscript_Mpro/naturecomm/supplementary_file_S2/6-chemical-library/molecular_docking/3D_ligand_structure/346.pdb
REMARK  0 active torsions:
REMARK  status: ('A' for Active; 'I' for Inactive)
REMARK                            x       y       z     vdW  Elec       q    Type
REMARK                         _______ _______ _______ _____ _____    ______ ____
ROOT
ATOM      1  C1  UNL     1      20.970   6.420  12.016  0.00  0.00    +0.000 A 
ATOM      2  C2  UNL     1      19.945   7.247  12.500  0.00  0.00    +0.000 A 
ATOM      3  N1  UNL     1      19.059   7.585  11.562  0.00  0.00    +0.000 NA
ATOM      4  N2  UNL     1      19.504   6.973  10.432  0.00  0.00    +0.000 N 
ATOM      5  C3  UNL     1      20.674   6.252  10.685  0.00  0.00    +0.000 A 
ATOM      6  C4  UNL     1      18.923   7.015   9.163  0.00  0.00    +0.000 A 
ATOM      7  C5  UNL     1      19.486   6.350   8.141  0.00  0.00    +0.000 A 
ATOM      8  C6  UNL     1      20.704   5.594   8.383  0.00  0.00    +0.000 A 
ATOM      9  C7  UNL     1      21.274   5.547   9.602  0.00  0.00    +0.000 A 
ENDROOT
TORSDOF 0
ENDMDL
MODEL 8
REMARK VINA RESULT:    -3.334      5.518      7.539
REMARK INTER + INTRA:          -3.334
REMARK INTER:                  -3.334
REMARK INTRA:                   0.000
REMARK UNBOUND:                 0.000
REMARK  Name = /home/anacleto/Desktop/manuscript_Mpro/naturecomm/supplementary_file_S2/6-chemical-library/molecular_docking/3D_ligand_structure/346.pdb
REMARK  0 active torsions:
REMARK  status: ('A' for Active; 'I' for Inactive)
REMARK                            x       y       z     vdW  Elec       q    Type
REMARK                         _______ _______ _______ _____ _____    ______ ____
ROOT
ATOM      1  C1  UNL     1      19.071  12.434  -0.654  0.00  0.00    +0.000 A 
ATOM      2  C2  UNL     1      17.710  12.265  -0.953  0.00  0.00    +0.000 A 
ATOM      3  N1  UNL     1      16.977  13.345  -0.678  0.00  0.00    +0.000 NA
ATOM      4  N2  UNL     1      17.866  14.249  -0.186  0.00  0.00    +0.000 N 
ATOM      5  C3  UNL     1      19.157  13.713  -0.162  0.00  0.00    +0.000 A 
ATOM      6  C4  UNL     1      17.597  15.547   0.252  0.00  0.00    +0.000 A 
ATOM      7  C5  UNL     1      18.593  16.322   0.713  0.00  0.00    +0.000 A 
ATOM      8  C6  UNL     1      19.942  15.784   0.747  0.00  0.00    +0.000 A 
ATOM      9  C7  UNL     1      20.214  14.533   0.328  0.00  0.00    +0.000 A 
ENDROOT
TORSDOF 0
ENDMDL
MODEL 9
REMARK VINA RESULT:    -3.283     16.237     17.401
REMARK INTER + INTRA:          -3.283
REMARK INTER:                  -3.283
REMARK INTRA:                   0.000
REMARK UNBOUND:                 0.000
REMARK  Name = /home/anacleto/Desktop/manuscript_Mpro/naturecomm/supplementary_file_S2/6-chemical-library/molecular_docking/3D_ligand_structure/346.pdb
REMARK  0 active torsions:
REMARK  status: ('A' for Active; 'I' for Inactive)
REMARK                            x       y       z     vdW  Elec       q    Type
REMARK                         _______ _______ _______ _____ _____    ______ ____
ROOT
ATOM      1  C1  UNL     1      13.465   1.850  10.667  0.00  0.00    +0.000 A 
ATOM      2  C2  UNL     1      13.842   2.833  11.596  0.00  0.00    +0.000 A 
ATOM      3  N1  UNL     1      14.927   3.514  11.223  0.00  0.00    +0.000 NA
ATOM      4  N2  UNL     1      15.278   2.975  10.025  0.00  0.00    +0.000 N 
ATOM      5  C3  UNL     1      14.396   1.953   9.663  0.00  0.00    +0.000 A 
ATOM      6  C4  UNL     1      16.355   3.342   9.216  0.00  0.00    +0.000 A 
ATOM      7  C5  UNL     1      16.569   2.710   8.051  0.00  0.00    +0.000 A 
ATOM      8  C6  UNL     1      15.664   1.643   7.656  0.00  0.00    +0.000 A 
ATOM      9  C7  UNL     1      14.622   1.280   8.428  0.00  0.00    +0.000 A 
ENDROOT
TORSDOF 0
ENDMDL
