MODEL 1
REMARK VINA RESULT:    -2.987      0.000      0.000
REMARK INTER + INTRA:          -2.987
REMARK INTER:                  -2.987
REMARK INTRA:                   0.000
REMARK UNBOUND:                 0.000
REMARK  Name = /home/anacleto/Desktop/manuscript_Mpro/naturecomm/supplementary_file_S2/6-chemical-library/molecular_docking/3D_ligand_structure/357.pdb
REMARK  0 active torsions:
REMARK  status: ('A' for Active; 'I' for Inactive)
REMARK                            x       y       z     vdW  Elec       q    Type
REMARK                         _______ _______ _______ _____ _____    ______ ____
ROOT
ATOM      1  S1  UNL     1     -39.852   6.639 -13.569  0.00  0.00    +0.000 S 
ATOM      2  C1  UNL     1     -38.403   5.648 -13.886  0.00  0.00    +0.000 A 
ATOM      3  N1  UNL     1     -37.459   6.160 -14.624  0.00  0.00    +0.000 NA
ATOM      4  N2  UNL     1     -37.898   7.399 -14.957  0.00  0.00    +0.000 N 
ATOM      5  C2  UNL     1     -39.100   7.839 -14.519  0.00  0.00    +0.000 A 
ATOM      6  C3  UNL     1     -37.388   8.418 -15.696  0.00  0.00    +0.000 A 
ATOM      7  N3  UNL     1     -38.251   9.422 -15.697  0.00  0.00    +0.000 NA
ATOM      8  N4  UNL     1     -39.358   9.046 -14.934  0.00  0.00    +0.000 NA
ENDROOT
TORSDOF 0
ENDMDL
MODEL 2
REMARK VINA RESULT:    -2.925     29.197     29.957
REMARK INTER + INTRA:          -2.925
REMARK INTER:                  -2.925
REMARK INTRA:                   0.000
REMARK UNBOUND:                 0.000
REMARK  Name = /home/anacleto/Desktop/manuscript_Mpro/naturecomm/supplementary_file_S2/6-chemical-library/molecular_docking/3D_ligand_structure/357.pdb
REMARK  0 active torsions:
REMARK  status: ('A' for Active; 'I' for Inactive)
REMARK                            x       y       z     vdW  Elec       q    Type
REMARK                         _______ _______ _______ _____ _____    ______ ____
ROOT
ATOM      1  S1  UNL     1     -21.559   9.792 -37.228  0.00  0.00    +0.000 S 
ATOM      2  C1  UNL     1     -21.661   8.042 -37.554  0.00  0.00    +0.000 A 
ATOM      3  N1  UNL     1     -20.650   7.467 -38.144  0.00  0.00    +0.000 NA
ATOM      4  N2  UNL     1     -19.747   8.458 -38.350  0.00  0.00    +0.000 N 
ATOM      5  C2  UNL     1     -20.018   9.723 -37.956  0.00  0.00    +0.000 A 
ATOM      6  C3  UNL     1     -18.512   8.512 -38.911  0.00  0.00    +0.000 A 
ATOM      7  N3  UNL     1     -18.066   9.757 -38.853  0.00  0.00    +0.000 NA
ATOM      8  N4  UNL     1     -19.043  10.539 -38.234  0.00  0.00    +0.000 NA
ENDROOT
TORSDOF 0
ENDMDL
MODEL 3
REMARK VINA RESULT:    -2.885     20.349     20.811
REMARK INTER + INTRA:          -2.885
REMARK INTER:                  -2.885
REMARK INTRA:                   0.000
REMARK UNBOUND:                 0.000
REMARK  Name = /home/anacleto/Desktop/manuscript_Mpro/naturecomm/supplementary_file_S2/6-chemical-library/molecular_docking/3D_ligand_structure/357.pdb
REMARK  0 active torsions:
REMARK  status: ('A' for Active; 'I' for Inactive)
REMARK                            x       y       z     vdW  Elec       q    Type
REMARK                         _______ _______ _______ _____ _____    ______ ____
ROOT
ATOM      1  S1  UNL     1     -25.929  -5.470 -25.484  0.00  0.00    +0.000 S 
ATOM      2  C1  UNL     1     -27.673  -5.844 -25.460  0.00  0.00    +0.000 A 
ATOM      3  N1  UNL     1     -28.427  -5.317 -26.385  0.00  0.00    +0.000 NA
ATOM      4  N2  UNL     1     -27.586  -4.580 -27.154  0.00  0.00    +0.000 N 
ATOM      5  C2  UNL     1     -26.266  -4.524 -26.863  0.00  0.00    +0.000 A 
ATOM      6  C3  UNL     1     -27.747  -3.802 -28.254  0.00  0.00    +0.000 A 
ATOM      7  N3  UNL     1     -26.571  -3.303 -28.604  0.00  0.00    +0.000 NA
ATOM      8  N4  UNL     1     -25.615  -3.773 -27.702  0.00  0.00    +0.000 NA
ENDROOT
TORSDOF 0
ENDMDL
MODEL 4
REMARK VINA RESULT:    -2.880     27.786     28.105
REMARK INTER + INTRA:          -2.880
REMARK INTER:                  -2.880
REMARK INTRA:                   0.000
REMARK UNBOUND:                 0.000
REMARK  Name = /home/anacleto/Desktop/manuscript_Mpro/naturecomm/supplementary_file_S2/6-chemical-library/molecular_docking/3D_ligand_structure/357.pdb
REMARK  0 active torsions:
REMARK  status: ('A' for Active; 'I' for Inactive)
REMARK                            x       y       z     vdW  Elec       q    Type
REMARK                         _______ _______ _______ _____ _____    ______ ____
ROOT
ATOM      1  S1  UNL     1     -23.520   9.721 -37.422  0.00  0.00    +0.000 S 
ATOM      2  C1  UNL     1     -21.816   9.749 -36.896  0.00  0.00    +0.000 A 
ATOM      3  N1  UNL     1     -21.105   8.669 -37.061  0.00  0.00    +0.000 NA
ATOM      4  N2  UNL     1     -21.946   7.771 -37.633  0.00  0.00    +0.000 N 
ATOM      5  C2  UNL     1     -23.228   8.110 -37.901  0.00  0.00    +0.000 A 
ATOM      6  C3  UNL     1     -21.819   6.485 -38.047  0.00  0.00    +0.000 A 
ATOM      7  N3  UNL     1     -22.977   6.076 -38.542  0.00  0.00    +0.000 NA
ATOM      8  N4  UNL     1     -23.887   7.130 -38.447  0.00  0.00    +0.000 NA
ENDROOT
TORSDOF 0
ENDMDL
MODEL 5
REMARK VINA RESULT:    -2.863     21.147     21.961
REMARK INTER + INTRA:          -2.863
REMARK INTER:                  -2.863
REMARK INTRA:                   0.000
REMARK UNBOUND:                 0.000
REMARK  Name = /home/anacleto/Desktop/manuscript_Mpro/naturecomm/supplementary_file_S2/6-chemical-library/molecular_docking/3D_ligand_structure/357.pdb
REMARK  0 active torsions:
REMARK  status: ('A' for Active; 'I' for Inactive)
REMARK                            x       y       z     vdW  Elec       q    Type
REMARK                         _______ _______ _______ _____ _____    ______ ____
ROOT
ATOM      1  S1  UNL     1     -23.376  -4.246 -26.875  0.00  0.00    +0.000 S 
ATOM      2  C1  UNL     1     -23.168  -3.620 -28.532  0.00  0.00    +0.000 A 
ATOM      3  N1  UNL     1     -24.234  -3.268 -29.194  0.00  0.00    +0.000 NA
ATOM      4  N2  UNL     1     -25.271  -3.501 -28.351  0.00  0.00    +0.000 N 
ATOM      5  C2  UNL     1     -25.047  -4.003 -27.115  0.00  0.00    +0.000 A 
ATOM      6  C3  UNL     1     -26.617  -3.347 -28.439  0.00  0.00    +0.000 A 
ATOM      7  N3  UNL     1     -27.171  -3.740 -27.303  0.00  0.00    +0.000 NA
ATOM      8  N4  UNL     1     -26.153  -4.163 -26.447  0.00  0.00    +0.000 NA
ENDROOT
TORSDOF 0
ENDMDL
MODEL 6
REMARK VINA RESULT:    -2.846     27.549     28.062
REMARK INTER + INTRA:          -2.846
REMARK INTER:                  -2.846
REMARK INTRA:                   0.000
REMARK UNBOUND:                 0.000
REMARK  Name = /home/anacleto/Desktop/manuscript_Mpro/naturecomm/supplementary_file_S2/6-chemical-library/molecular_docking/3D_ligand_structure/357.pdb
REMARK  0 active torsions:
REMARK  status: ('A' for Active; 'I' for Inactive)
REMARK                            x       y       z     vdW  Elec       q    Type
REMARK                         _______ _______ _______ _____ _____    ______ ____
ROOT
ATOM      1  S1  UNL     1     -23.565   7.017 -38.777  0.00  0.00    +0.000 S 
ATOM      2  C1  UNL     1     -21.866   6.504 -38.604  0.00  0.00    +0.000 A 
ATOM      3  N1  UNL     1     -21.057   7.274 -37.932  0.00  0.00    +0.000 NA
ATOM      4  N2  UNL     1     -21.815   8.325 -37.530  0.00  0.00    +0.000 N 
ATOM      5  C2  UNL     1     -23.126   8.387 -37.859  0.00  0.00    +0.000 A 
ATOM      6  C3  UNL     1     -21.570   9.448 -36.809  0.00  0.00    +0.000 A 
ATOM      7  N3  UNL     1     -22.689  10.150 -36.712  0.00  0.00    +0.000 NA
ATOM      8  N4  UNL     1     -23.695   9.460 -37.391  0.00  0.00    +0.000 NA
ENDROOT
TORSDOF 0
ENDMDL
MODEL 7
REMARK VINA RESULT:    -2.701     26.233     26.872
REMARK INTER + INTRA:          -2.701
REMARK INTER:                  -2.701
REMARK INTRA:                   0.000
REMARK UNBOUND:                 0.000
REMARK  Name = /home/anacleto/Desktop/manuscript_Mpro/naturecomm/supplementary_file_S2/6-chemical-library/molecular_docking/3D_ligand_structure/357.pdb
REMARK  0 active torsions:
REMARK  status: ('A' for Active; 'I' for Inactive)
REMARK                            x       y       z     vdW  Elec       q    Type
REMARK                         _______ _______ _______ _____ _____    ______ ____
ROOT
ATOM      1  S1  UNL     1     -27.192   5.975 -39.353  0.00  0.00    +0.000 S 
ATOM      2  C1  UNL     1     -28.745   5.290 -38.805  0.00  0.00    +0.000 A 
ATOM      3  N1  UNL     1     -28.745   4.080 -38.318  0.00  0.00    +0.000 NA
ATOM      4  N2  UNL     1     -27.454   3.671 -38.379  0.00  0.00    +0.000 N 
ATOM      5  C2  UNL     1     -26.500   4.490 -38.877  0.00  0.00    +0.000 A 
ATOM      6  C3  UNL     1     -26.805   2.529 -38.033  0.00  0.00    +0.000 A 
ATOM      7  N3  UNL     1     -25.518   2.664 -38.314  0.00  0.00    +0.000 NA
ATOM      8  N4  UNL     1     -25.323   3.934 -38.859  0.00  0.00    +0.000 NA
ENDROOT
TORSDOF 0
ENDMDL
MODEL 8
REMARK VINA RESULT:    -2.688      6.695      8.134
REMARK INTER + INTRA:          -2.688
REMARK INTER:                  -2.688
REMARK INTRA:                   0.000
REMARK UNBOUND:                 0.000
REMARK  Name = /home/anacleto/Desktop/manuscript_Mpro/naturecomm/supplementary_file_S2/6-chemical-library/molecular_docking/3D_ligand_structure/357.pdb
REMARK  0 active torsions:
REMARK  status: ('A' for Active; 'I' for Inactive)
REMARK                            x       y       z     vdW  Elec       q    Type
REMARK                         _______ _______ _______ _____ _____    ______ ____
ROOT
ATOM      1  S1  UNL     1     -37.920  -0.087 -15.823  0.00  0.00    +0.000 S 
ATOM      2  C1  UNL     1     -38.113   1.588 -16.407  0.00  0.00    +0.000 A 
ATOM      3  N1  UNL     1     -37.255   2.038 -17.279  0.00  0.00    +0.000 NA
ATOM      4  N2  UNL     1     -36.399   1.009 -17.501  0.00  0.00    +0.000 N 
ATOM      5  C2  UNL     1     -36.563  -0.168 -16.854  0.00  0.00    +0.000 A 
ATOM      6  C3  UNL     1     -35.305   0.840 -18.286  0.00  0.00    +0.000 A 
ATOM      7  N3  UNL     1     -34.837  -0.386 -18.115  0.00  0.00    +0.000 NA
ATOM      8  N4  UNL     1     -35.653  -1.037 -17.188  0.00  0.00    +0.000 NA
ENDROOT
TORSDOF 0
ENDMDL
MODEL 9
REMARK VINA RESULT:    -2.677     26.530     27.069
REMARK INTER + INTRA:          -2.677
REMARK INTER:                  -2.677
REMARK INTRA:                   0.000
REMARK UNBOUND:                 0.000
REMARK  Name = /home/anacleto/Desktop/manuscript_Mpro/naturecomm/supplementary_file_S2/6-chemical-library/molecular_docking/3D_ligand_structure/357.pdb
REMARK  0 active torsions:
REMARK  status: ('A' for Active; 'I' for Inactive)
REMARK                            x       y       z     vdW  Elec       q    Type
REMARK                         _______ _______ _______ _____ _____    ______ ____
ROOT
ATOM      1  S1  UNL     1     -29.863   4.163 -40.440  0.00  0.00    +0.000 S 
ATOM      2  C1  UNL     1     -29.721   2.454 -40.933  0.00  0.00    +0.000 A 
ATOM      3  N1  UNL     1     -28.848   1.707 -40.317  0.00  0.00    +0.000 NA
ATOM      4  N2  UNL     1     -28.260   2.523 -39.406  0.00  0.00    +0.000 N 
ATOM      5  C2  UNL     1     -28.635   3.819 -39.307  0.00  0.00    +0.000 A 
ATOM      6  C3  UNL     1     -27.290   2.356 -38.472  0.00  0.00    +0.000 A 
ATOM      7  N3  UNL     1     -27.095   3.504 -37.843  0.00  0.00    +0.000 NA
ATOM      8  N4  UNL     1     -27.967   4.450 -38.385  0.00  0.00    +0.000 NA
ENDROOT
TORSDOF 0
ENDMDL
