MODEL 1
REMARK VINA RESULT:    -3.509      0.000      0.000
REMARK INTER + INTRA:          -3.509
REMARK INTER:                  -3.509
REMARK INTRA:                   0.000
REMARK UNBOUND:                 0.000
REMARK  Name = /home/anacleto/Desktop/manuscript_Mpro/naturecomm/supplementary_file_S2/6-chemical-library/molecular_docking/3D_ligand_structure/36.pdb
REMARK  0 active torsions:
REMARK  status: ('A' for Active; 'I' for Inactive)
REMARK                            x       y       z     vdW  Elec       q    Type
REMARK                         _______ _______ _______ _____ _____    ______ ____
ROOT
ATOM      1  O1  UNL     1     -39.997  10.483 -16.568  0.00  0.00    +0.000 OA
ATOM      2  C1  UNL     1     -39.316   9.794 -15.827  0.00  0.00    +0.000 C 
ATOM      3  C2  UNL     1     -39.802   9.103 -14.587  0.00  0.00    +0.000 C 
ATOM      4  C3  UNL     1     -38.571   8.391 -14.047  0.00  0.00    +0.000 C 
ATOM      5  C4  UNL     1     -37.485   8.734 -15.022  0.00  0.00    +0.000 C 
ATOM      6  O2  UNL     1     -36.326   8.360 -14.954  0.00  0.00    +0.000 OA
ATOM      7  N1  UNL     1     -37.998   9.529 -15.992  0.00  0.00    +0.000 N 
ATOM      8  H5  UNL     1     -37.453   9.888 -16.759  0.00  0.00    +0.000 HD
ENDROOT
TORSDOF 0
ENDMDL
MODEL 2
REMARK VINA RESULT:    -3.180      2.137      2.395
REMARK INTER + INTRA:          -3.180
REMARK INTER:                  -3.180
REMARK INTRA:                   0.000
REMARK UNBOUND:                 0.000
REMARK  Name = /home/anacleto/Desktop/manuscript_Mpro/naturecomm/supplementary_file_S2/6-chemical-library/molecular_docking/3D_ligand_structure/36.pdb
REMARK  0 active torsions:
REMARK  status: ('A' for Active; 'I' for Inactive)
REMARK                            x       y       z     vdW  Elec       q    Type
REMARK                         _______ _______ _______ _____ _____    ______ ____
ROOT
ATOM      1  O1  UNL     1     -38.012   9.327 -16.015  0.00  0.00    +0.000 OA
ATOM      2  C1  UNL     1     -37.934   8.367 -15.267  0.00  0.00    +0.000 C 
ATOM      3  C2  UNL     1     -38.310   8.359 -13.814  0.00  0.00    +0.000 C 
ATOM      4  C3  UNL     1     -38.024   6.936 -13.359  0.00  0.00    +0.000 C 
ATOM      5  C4  UNL     1     -37.509   6.249 -14.589  0.00  0.00    +0.000 C 
ATOM      6  O2  UNL     1     -37.160   5.083 -14.657  0.00  0.00    +0.000 OA
ATOM      7  N1  UNL     1     -37.493   7.135 -15.614  0.00  0.00    +0.000 N 
ATOM      8  H5  UNL     1     -37.184   6.899 -16.544  0.00  0.00    +0.000 HD
ENDROOT
TORSDOF 0
ENDMDL
MODEL 3
REMARK VINA RESULT:    -3.138     20.966     21.197
REMARK INTER + INTRA:          -3.138
REMARK INTER:                  -3.138
REMARK INTRA:                   0.000
REMARK UNBOUND:                 0.000
REMARK  Name = /home/anacleto/Desktop/manuscript_Mpro/naturecomm/supplementary_file_S2/6-chemical-library/molecular_docking/3D_ligand_structure/36.pdb
REMARK  0 active torsions:
REMARK  status: ('A' for Active; 'I' for Inactive)
REMARK                            x       y       z     vdW  Elec       q    Type
REMARK                         _______ _______ _______ _____ _____    ______ ____
ROOT
ATOM      1  O1  UNL     1     -27.522  -2.919 -28.900  0.00  0.00    +0.000 OA
ATOM      2  C1  UNL     1     -27.543  -3.733 -27.993  0.00  0.00    +0.000 C 
ATOM      3  C2  UNL     1     -26.372  -4.120 -27.138  0.00  0.00    +0.000 C 
ATOM      4  C3  UNL     1     -26.934  -5.155 -26.175  0.00  0.00    +0.000 C 
ATOM      5  C4  UNL     1     -28.379  -5.274 -26.559  0.00  0.00    +0.000 C 
ATOM      6  O2  UNL     1     -29.196  -6.007 -26.029  0.00  0.00    +0.000 OA
ATOM      7  N1  UNL     1     -28.631  -4.435 -27.593  0.00  0.00    +0.000 N 
ATOM      8  H5  UNL     1     -29.538  -4.343 -28.023  0.00  0.00    +0.000 HD
ENDROOT
TORSDOF 0
ENDMDL
MODEL 4
REMARK VINA RESULT:    -3.137      2.615      3.777
REMARK INTER + INTRA:          -3.137
REMARK INTER:                  -3.137
REMARK INTRA:                   0.000
REMARK UNBOUND:                 0.000
REMARK  Name = /home/anacleto/Desktop/manuscript_Mpro/naturecomm/supplementary_file_S2/6-chemical-library/molecular_docking/3D_ligand_structure/36.pdb
REMARK  0 active torsions:
REMARK  status: ('A' for Active; 'I' for Inactive)
REMARK                            x       y       z     vdW  Elec       q    Type
REMARK                         _______ _______ _______ _____ _____    ______ ____
ROOT
ATOM      1  O1  UNL     1     -37.289   4.294 -14.714  0.00  0.00    +0.000 OA
ATOM      2  C1  UNL     1     -37.578   5.473 -14.595  0.00  0.00    +0.000 C 
ATOM      3  C2  UNL     1     -38.271   6.088 -13.414  0.00  0.00    +0.000 C 
ATOM      4  C3  UNL     1     -38.386   7.562 -13.771  0.00  0.00    +0.000 C 
ATOM      5  C4  UNL     1     -37.751   7.667 -15.125  0.00  0.00    +0.000 C 
ATOM      6  O2  UNL     1     -37.636   8.691 -15.778  0.00  0.00    +0.000 OA
ATOM      7  N1  UNL     1     -37.325   6.440 -15.509  0.00  0.00    +0.000 N 
ATOM      8  H5  UNL     1     -36.865   6.263 -16.388  0.00  0.00    +0.000 HD
ENDROOT
TORSDOF 0
ENDMDL
MODEL 5
REMARK VINA RESULT:    -3.128     28.140     28.789
REMARK INTER + INTRA:          -3.128
REMARK INTER:                  -3.128
REMARK INTRA:                   0.000
REMARK UNBOUND:                 0.000
REMARK  Name = /home/anacleto/Desktop/manuscript_Mpro/naturecomm/supplementary_file_S2/6-chemical-library/molecular_docking/3D_ligand_structure/36.pdb
REMARK  0 active torsions:
REMARK  status: ('A' for Active; 'I' for Inactive)
REMARK                            x       y       z     vdW  Elec       q    Type
REMARK                         _______ _______ _______ _____ _____    ______ ____
ROOT
ATOM      1  O1  UNL     1     -22.184   9.976 -36.455  0.00  0.00    +0.000 OA
ATOM      2  C1  UNL     1     -21.420   9.301 -37.124  0.00  0.00    +0.000 C 
ATOM      3  C2  UNL     1     -21.669   7.894 -37.580  0.00  0.00    +0.000 C 
ATOM      4  C3  UNL     1     -20.421   7.527 -38.369  0.00  0.00    +0.000 C 
ATOM      5  C4  UNL     1     -19.562   8.755 -38.298  0.00  0.00    +0.000 C 
ATOM      6  O2  UNL     1     -18.461   8.881 -38.806  0.00  0.00    +0.000 OA
ATOM      7  N1  UNL     1     -20.207   9.703 -37.575  0.00  0.00    +0.000 N 
ATOM      8  H5  UNL     1     -19.823  10.616 -37.392  0.00  0.00    +0.000 HD
ENDROOT
TORSDOF 0
ENDMDL
MODEL 6
REMARK VINA RESULT:    -3.103     28.104     28.834
REMARK INTER + INTRA:          -3.103
REMARK INTER:                  -3.103
REMARK INTRA:                   0.000
REMARK UNBOUND:                 0.000
REMARK  Name = /home/anacleto/Desktop/manuscript_Mpro/naturecomm/supplementary_file_S2/6-chemical-library/molecular_docking/3D_ligand_structure/36.pdb
REMARK  0 active torsions:
REMARK  status: ('A' for Active; 'I' for Inactive)
REMARK                            x       y       z     vdW  Elec       q    Type
REMARK                         _______ _______ _______ _____ _____    ______ ____
ROOT
ATOM      1  O1  UNL     1     -18.493   9.065 -38.777  0.00  0.00    +0.000 OA
ATOM      2  C1  UNL     1     -19.583   8.856 -38.271  0.00  0.00    +0.000 C 
ATOM      3  C2  UNL     1     -20.357   7.575 -38.363  0.00  0.00    +0.000 C 
ATOM      4  C3  UNL     1     -21.627   7.844 -37.570  0.00  0.00    +0.000 C 
ATOM      5  C4  UNL     1     -21.473   9.257 -37.091  0.00  0.00    +0.000 C 
ATOM      6  O2  UNL     1     -22.281   9.868 -36.412  0.00  0.00    +0.000 OA
ATOM      7  N1  UNL     1     -20.290   9.747 -37.535  0.00  0.00    +0.000 N 
ATOM      8  H5  UNL     1     -19.969  10.681 -37.337  0.00  0.00    +0.000 HD
ENDROOT
TORSDOF 0
ENDMDL
MODEL 7
REMARK VINA RESULT:    -3.049     20.997     21.272
REMARK INTER + INTRA:          -3.049
REMARK INTER:                  -3.049
REMARK INTRA:                   0.000
REMARK UNBOUND:                 0.000
REMARK  Name = /home/anacleto/Desktop/manuscript_Mpro/naturecomm/supplementary_file_S2/6-chemical-library/molecular_docking/3D_ligand_structure/36.pdb
REMARK  0 active torsions:
REMARK  status: ('A' for Active; 'I' for Inactive)
REMARK                            x       y       z     vdW  Elec       q    Type
REMARK                         _______ _______ _______ _____ _____    ______ ____
ROOT
ATOM      1  O1  UNL     1     -28.799  -6.068 -25.682  0.00  0.00    +0.000 OA
ATOM      2  C1  UNL     1     -28.125  -5.306 -26.353  0.00  0.00    +0.000 C 
ATOM      3  C2  UNL     1     -26.653  -5.064 -26.186  0.00  0.00    +0.000 C 
ATOM      4  C3  UNL     1     -26.316  -4.041 -27.260  0.00  0.00    +0.000 C 
ATOM      5  C4  UNL     1     -27.622  -3.783 -27.951  0.00  0.00    +0.000 C 
ATOM      6  O2  UNL     1     -27.792  -3.015 -28.883  0.00  0.00    +0.000 OA
ATOM      7  N1  UNL     1     -28.584  -4.540 -27.371  0.00  0.00    +0.000 N 
ATOM      8  H5  UNL     1     -29.547  -4.534 -27.669  0.00  0.00    +0.000 HD
ENDROOT
TORSDOF 0
ENDMDL
MODEL 8
REMARK VINA RESULT:    -3.013     26.532     27.151
REMARK INTER + INTRA:          -3.013
REMARK INTER:                  -3.013
REMARK INTRA:                   0.000
REMARK UNBOUND:                 0.000
REMARK  Name = /home/anacleto/Desktop/manuscript_Mpro/naturecomm/supplementary_file_S2/6-chemical-library/molecular_docking/3D_ligand_structure/36.pdb
REMARK  0 active torsions:
REMARK  status: ('A' for Active; 'I' for Inactive)
REMARK                            x       y       z     vdW  Elec       q    Type
REMARK                         _______ _______ _______ _____ _____    ______ ____
ROOT
ATOM      1  O1  UNL     1     -19.707  -4.378 -27.676  0.00  0.00    +0.000 OA
ATOM      2  C1  UNL     1     -18.865  -4.610 -26.824  0.00  0.00    +0.000 C 
ATOM      3  C2  UNL     1     -18.136  -3.580 -26.014  0.00  0.00    +0.000 C 
ATOM      4  C3  UNL     1     -17.216  -4.391 -25.114  0.00  0.00    +0.000 C 
ATOM      5  C4  UNL     1     -17.496  -5.817 -25.486  0.00  0.00    +0.000 C 
ATOM      6  O2  UNL     1     -16.961  -6.797 -24.994  0.00  0.00    +0.000 OA
ATOM      7  N1  UNL     1     -18.439  -5.842 -26.458  0.00  0.00    +0.000 N 
ATOM      8  H5  UNL     1     -18.788  -6.694 -26.869  0.00  0.00    +0.000 HD
ENDROOT
TORSDOF 0
ENDMDL
MODEL 9
REMARK VINA RESULT:    -2.976     28.770     29.454
REMARK INTER + INTRA:          -2.976
REMARK INTER:                  -2.976
REMARK INTRA:                   0.000
REMARK UNBOUND:                 0.000
REMARK  Name = /home/anacleto/Desktop/manuscript_Mpro/naturecomm/supplementary_file_S2/6-chemical-library/molecular_docking/3D_ligand_structure/36.pdb
REMARK  0 active torsions:
REMARK  status: ('A' for Active; 'I' for Inactive)
REMARK                            x       y       z     vdW  Elec       q    Type
REMARK                         _______ _______ _______ _____ _____    ______ ____
ROOT
ATOM      1  O1  UNL     1     -22.091   5.867 -37.846  0.00  0.00    +0.000 OA
ATOM      2  C1  UNL     1     -21.292   6.764 -38.055  0.00  0.00    +0.000 C 
ATOM      3  C2  UNL     1     -21.323   8.126 -37.426  0.00  0.00    +0.000 C 
ATOM      4  C3  UNL     1     -20.122   8.843 -38.022  0.00  0.00    +0.000 C 
ATOM      5  C4  UNL     1     -19.504   7.833 -38.942  0.00  0.00    +0.000 C 
ATOM      6  O2  UNL     1     -18.508   8.009 -39.623  0.00  0.00    +0.000 OA
ATOM      7  N1  UNL     1     -20.232   6.692 -38.896  0.00  0.00    +0.000 N 
ATOM      8  H5  UNL     1     -20.008   5.869 -39.433  0.00  0.00    +0.000 HD
ENDROOT
TORSDOF 0
ENDMDL
