MODEL 1
REMARK VINA RESULT:    -4.436      0.000      0.000
REMARK INTER + INTRA:          -5.451
REMARK INTER:                  -5.235
REMARK INTRA:                  -0.215
REMARK UNBOUND:                -0.237
REMARK  Name = /home/anacleto/Desktop/manuscript_Mpro/naturecomm/supplementary_file_S2/6-chemical-library/molecular_docking/3D_ligand_structure/1127.pdb
REMARK  3 active torsions:
REMARK  status: ('A' for Active; 'I' for Inactive)
REMARK    1  A    between atoms: C3_5  and  C4_6
REMARK    2  A    between atoms: C4_6  and  O1_7
REMARK    3  A    between atoms: O1_7  and  C5_8
REMARK                            x       y       z     vdW  Elec       q    Type
REMARK                         _______ _______ _______ _____ _____    ______ ____
ROOT
ATOM      1  C4  UNL     1     -37.224   4.955 -14.676  0.00  0.00    +0.000 C 
ENDROOT
BRANCH   1   6
ATOM      2  N1  UNL     1     -37.298   3.190 -16.472  0.00  0.00    +0.000 N 
ATOM      3  C1  UNL     1     -37.732   1.904 -16.611  0.00  0.00    +0.000 A 
ATOM      4  C2  UNL     1     -38.254   1.570 -15.384  0.00  0.00    +0.000 A 
ATOM      5  N2  UNL     1     -38.147   2.620 -14.509  0.00  0.00    +0.000 NA
ATOM      6  C3  UNL     1     -37.566   3.593 -15.185  0.00  0.00    +0.000 A 
ATOM      7  H1  UNL     1     -36.856   3.770 -17.172  0.00  0.00    +0.000 HD
ENDBRANCH   1   6
BRANCH   1   8
ATOM      8  O1  UNL     1     -38.420   5.541 -14.154  0.00  0.00    +0.000 OA
BRANCH   8   9
ATOM      9  C5  UNL     1     -38.669   6.841 -14.497  0.00  0.00    +0.000 A 
ATOM     10  C6  UNL     1     -39.815   7.572 -14.176  0.00  0.00    +0.000 A 
ATOM     11  C7  UNL     1     -39.940   8.901 -14.593  0.00  0.00    +0.000 A 
ATOM     12  C8  UNL     1     -38.923   9.504 -15.332  0.00  0.00    +0.000 A 
ATOM     13  C9  UNL     1     -37.780   8.781 -15.656  0.00  0.00    +0.000 A 
ATOM     14  C10 UNL     1     -37.655   7.454 -15.239  0.00  0.00    +0.000 A 
ENDBRANCH   8   9
ENDBRANCH   1   8
TORSDOF 3
ENDMDL
MODEL 2
REMARK VINA RESULT:    -4.424     13.377     13.981
REMARK INTER + INTRA:          -5.437
REMARK INTER:                  -5.208
REMARK INTRA:                  -0.228
REMARK UNBOUND:                -0.237
REMARK  Name = /home/anacleto/Desktop/manuscript_Mpro/naturecomm/supplementary_file_S2/6-chemical-library/molecular_docking/3D_ligand_structure/1127.pdb
REMARK  3 active torsions:
REMARK  status: ('A' for Active; 'I' for Inactive)
REMARK    1  A    between atoms: C3_5  and  C4_6
REMARK    2  A    between atoms: C4_6  and  O1_7
REMARK    3  A    between atoms: O1_7  and  C5_8
REMARK                            x       y       z     vdW  Elec       q    Type
REMARK                         _______ _______ _______ _____ _____    ______ ____
ROOT
ATOM      1  C4  UNL     1     -37.251  -1.935 -25.555  0.00  0.00    +0.000 C 
ENDROOT
BRANCH   1   6
ATOM      2  N1  UNL     1     -34.745  -1.714 -25.679  0.00  0.00    +0.000 N 
ATOM      3  C1  UNL     1     -33.650  -2.518 -25.557  0.00  0.00    +0.000 A 
ATOM      4  C2  UNL     1     -34.155  -3.770 -25.296  0.00  0.00    +0.000 A 
ATOM      5  N2  UNL     1     -35.525  -3.742 -25.258  0.00  0.00    +0.000 NA
ATOM      6  C3  UNL     1     -35.865  -2.488 -25.492  0.00  0.00    +0.000 A 
ATOM      7  H1  UNL     1     -34.762  -0.721 -25.872  0.00  0.00    +0.000 HD
ENDBRANCH   1   6
BRANCH   1   8
ATOM      8  O1  UNL     1     -37.744  -2.140 -26.882  0.00  0.00    +0.000 OA
BRANCH   8   9
ATOM      9  C5  UNL     1     -38.176  -1.031 -27.556  0.00  0.00    +0.000 A 
ATOM     10  C6  UNL     1     -39.409  -0.396 -27.392  0.00  0.00    +0.000 A 
ATOM     11  C7  UNL     1     -39.724   0.735 -28.151  0.00  0.00    +0.000 A 
ATOM     12  C8  UNL     1     -38.809   1.237 -29.076  0.00  0.00    +0.000 A 
ATOM     13  C9  UNL     1     -37.580   0.609 -29.245  0.00  0.00    +0.000 A 
ATOM     14  C10 UNL     1     -37.266  -0.521 -28.487  0.00  0.00    +0.000 A 
ENDBRANCH   8   9
ENDBRANCH   1   8
TORSDOF 3
ENDMDL
MODEL 3
REMARK VINA RESULT:    -4.375     26.371     27.596
REMARK INTER + INTRA:          -5.379
REMARK INTER:                  -5.209
REMARK INTRA:                  -0.171
REMARK UNBOUND:                -0.237
REMARK  Name = /home/anacleto/Desktop/manuscript_Mpro/naturecomm/supplementary_file_S2/6-chemical-library/molecular_docking/3D_ligand_structure/1127.pdb
REMARK  3 active torsions:
REMARK  status: ('A' for Active; 'I' for Inactive)
REMARK    1  A    between atoms: C3_5  and  C4_6
REMARK    2  A    between atoms: C4_6  and  O1_7
REMARK    3  A    between atoms: O1_7  and  C5_8
REMARK                            x       y       z     vdW  Elec       q    Type
REMARK                         _______ _______ _______ _____ _____    ______ ____
ROOT
ATOM      1  C4  UNL     1     -23.682   5.348 -37.887  0.00  0.00    +0.000 C 
ENDROOT
BRANCH   1   6
ATOM      2  N1  UNL     1     -21.308   6.146 -38.160  0.00  0.00    +0.000 N 
ATOM      3  C1  UNL     1     -20.659   7.294 -38.512  0.00  0.00    +0.000 A 
ATOM      4  C2  UNL     1     -21.657   8.203 -38.768  0.00  0.00    +0.000 A 
ATOM      5  N2  UNL     1     -22.891   7.635 -38.581  0.00  0.00    +0.000 NA
ATOM      6  C3  UNL     1     -22.660   6.389 -38.212  0.00  0.00    +0.000 A 
ATOM      7  H1  UNL     1     -20.896   5.260 -37.902  0.00  0.00    +0.000 HD
ENDBRANCH   1   6
BRANCH   1   8
ATOM      8  O1  UNL     1     -24.558   5.230 -39.012  0.00  0.00    +0.000 OA
BRANCH   8   9
ATOM      9  C5  UNL     1     -25.712   4.521 -38.821  0.00  0.00    +0.000 A 
ATOM     10  C6  UNL     1     -27.011   4.998 -39.009  0.00  0.00    +0.000 A 
ATOM     11  C7  UNL     1     -28.107   4.160 -38.775  0.00  0.00    +0.000 A 
ATOM     12  C8  UNL     1     -27.910   2.847 -38.352  0.00  0.00    +0.000 A 
ATOM     13  C9  UNL     1     -26.618   2.367 -38.162  0.00  0.00    +0.000 A 
ATOM     14  C10 UNL     1     -25.524   3.203 -38.396  0.00  0.00    +0.000 A 
ENDBRANCH   8   9
ENDBRANCH   1   8
TORSDOF 3
ENDMDL
MODEL 4
REMARK VINA RESULT:    -4.345     25.968     27.038
REMARK INTER + INTRA:          -5.345
REMARK INTER:                  -5.158
REMARK INTRA:                  -0.187
REMARK UNBOUND:                -0.237
REMARK  Name = /home/anacleto/Desktop/manuscript_Mpro/naturecomm/supplementary_file_S2/6-chemical-library/molecular_docking/3D_ligand_structure/1127.pdb
REMARK  3 active torsions:
REMARK  status: ('A' for Active; 'I' for Inactive)
REMARK    1  A    between atoms: C3_5  and  C4_6
REMARK    2  A    between atoms: C4_6  and  O1_7
REMARK    3  A    between atoms: O1_7  and  C5_8
REMARK                            x       y       z     vdW  Elec       q    Type
REMARK                         _______ _______ _______ _____ _____    ______ ____
ROOT
ATOM      1  C4  UNL     1     -25.278   5.273 -39.089  0.00  0.00    +0.000 C 
ENDROOT
BRANCH   1   6
ATOM      2  N1  UNL     1     -25.686   3.069 -37.939  0.00  0.00    +0.000 N 
ATOM      3  C1  UNL     1     -26.731   2.219 -37.720  0.00  0.00    +0.000 A 
ATOM      4  C2  UNL     1     -27.808   2.813 -38.332  0.00  0.00    +0.000 A 
ATOM      5  N2  UNL     1     -27.442   4.000 -38.914  0.00  0.00    +0.000 NA
ATOM      6  C3  UNL     1     -26.153   4.139 -38.666  0.00  0.00    +0.000 A 
ATOM      7  H1  UNL     1     -24.729   2.960 -37.634  0.00  0.00    +0.000 HD
ENDBRANCH   1   6
BRANCH   1   8
ATOM      8  O1  UNL     1     -24.049   5.170 -38.365  0.00  0.00    +0.000 OA
BRANCH   8   9
ATOM      9  C5  UNL     1     -23.359   6.332 -38.155  0.00  0.00    +0.000 A 
ATOM     10  C6  UNL     1     -23.913   7.610 -38.050  0.00  0.00    +0.000 A 
ATOM     11  C7  UNL     1     -23.086   8.718 -37.835  0.00  0.00    +0.000 A 
ATOM     12  C8  UNL     1     -21.706   8.554 -37.724  0.00  0.00    +0.000 A 
ATOM     13  C9  UNL     1     -21.149   7.283 -37.829  0.00  0.00    +0.000 A 
ATOM     14  C10 UNL     1     -21.974   6.177 -38.044  0.00  0.00    +0.000 A 
ENDBRANCH   8   9
ENDBRANCH   1   8
TORSDOF 3
ENDMDL
MODEL 5
REMARK VINA RESULT:    -4.191     30.740     31.768
REMARK INTER + INTRA:          -5.163
REMARK INTER:                  -4.966
REMARK INTRA:                  -0.197
REMARK UNBOUND:                -0.237
REMARK  Name = /home/anacleto/Desktop/manuscript_Mpro/naturecomm/supplementary_file_S2/6-chemical-library/molecular_docking/3D_ligand_structure/1127.pdb
REMARK  3 active torsions:
REMARK  status: ('A' for Active; 'I' for Inactive)
REMARK    1  A    between atoms: C3_5  and  C4_6
REMARK    2  A    between atoms: C4_6  and  O1_7
REMARK    3  A    between atoms: O1_7  and  C5_8
REMARK                            x       y       z     vdW  Elec       q    Type
REMARK                         _______ _______ _______ _____ _____    ______ ____
ROOT
ATOM      1  C4  UNL     1     -17.699   8.876 -40.053  0.00  0.00    +0.000 C 
ENDROOT
BRANCH   1   6
ATOM      2  N1  UNL     1     -15.370   9.102 -39.121  0.00  0.00    +0.000 N 
ATOM      3  C1  UNL     1     -14.185   9.674 -39.484  0.00  0.00    +0.000 A 
ATOM      4  C2  UNL     1     -14.431  10.261 -40.701  0.00  0.00    +0.000 A 
ATOM      5  N2  UNL     1     -15.732  10.060 -41.083  0.00  0.00    +0.000 NA
ATOM      6  C3  UNL     1     -16.286   9.356 -40.114  0.00  0.00    +0.000 A 
ATOM      7  H1  UNL     1     -15.570   8.579 -38.279  0.00  0.00    +0.000 HD
ENDBRANCH   1   6
BRANCH   1   8
ATOM      8  O1  UNL     1     -18.309   9.457 -38.897  0.00  0.00    +0.000 OA
BRANCH   8   9
ATOM      9  C5  UNL     1     -19.473   8.886 -38.462  0.00  0.00    +0.000 A 
ATOM     10  C6  UNL     1     -20.425   9.486 -37.634  0.00  0.00    +0.000 A 
ATOM     11  C7  UNL     1     -21.576   8.783 -37.264  0.00  0.00    +0.000 A 
ATOM     12  C8  UNL     1     -21.780   7.481 -37.718  0.00  0.00    +0.000 A 
ATOM     13  C9  UNL     1     -20.835   6.878 -38.541  0.00  0.00    +0.000 A 
ATOM     14  C10 UNL     1     -19.685   7.580 -38.911  0.00  0.00    +0.000 A 
ENDBRANCH   8   9
ENDBRANCH   1   8
TORSDOF 3
ENDMDL
MODEL 6
REMARK VINA RESULT:    -4.182     20.419     22.492
REMARK INTER + INTRA:          -5.153
REMARK INTER:                  -4.945
REMARK INTRA:                  -0.208
REMARK UNBOUND:                -0.237
REMARK  Name = /home/anacleto/Desktop/manuscript_Mpro/naturecomm/supplementary_file_S2/6-chemical-library/molecular_docking/3D_ligand_structure/1127.pdb
REMARK  3 active torsions:
REMARK  status: ('A' for Active; 'I' for Inactive)
REMARK    1  A    between atoms: C3_5  and  C4_6
REMARK    2  A    between atoms: C4_6  and  O1_7
REMARK    3  A    between atoms: O1_7  and  C5_8
REMARK                            x       y       z     vdW  Elec       q    Type
REMARK                         _______ _______ _______ _____ _____    ______ ____
ROOT
ATOM      1  C4  UNL     1     -21.433  -5.138 -26.956  0.00  0.00    +0.000 C 
ENDROOT
BRANCH   1   6
ATOM      2  N1  UNL     1     -19.483  -4.789 -25.399  0.00  0.00    +0.000 N 
ATOM      3  C1  UNL     1     -18.265  -4.175 -25.422  0.00  0.00    +0.000 A 
ATOM      4  C2  UNL     1     -18.167  -3.627 -26.679  0.00  0.00    +0.000 A 
ATOM      5  N2  UNL     1     -19.293  -3.894 -27.414  0.00  0.00    +0.000 NA
ATOM      6  C3  UNL     1     -20.080  -4.598 -26.623  0.00  0.00    +0.000 A 
ATOM      7  H1  UNL     1     -19.901  -5.300 -24.633  0.00  0.00    +0.000 HD
ENDBRANCH   1   6
BRANCH   1   8
ATOM      8  O1  UNL     1     -22.386  -4.474 -26.121  0.00  0.00    +0.000 OA
BRANCH   8   9
ATOM      9  C5  UNL     1     -23.602  -4.191 -26.679  0.00  0.00    +0.000 A 
ATOM     10  C6  UNL     1     -24.818  -4.099 -25.999  0.00  0.00    +0.000 A 
ATOM     11  C7  UNL     1     -25.992  -3.802 -26.699  0.00  0.00    +0.000 A 
ATOM     12  C8  UNL     1     -25.957  -3.597 -28.077  0.00  0.00    +0.000 A 
ATOM     13  C9  UNL     1     -24.748  -3.689 -28.760  0.00  0.00    +0.000 A 
ATOM     14  C10 UNL     1     -23.575  -3.985 -28.062  0.00  0.00    +0.000 A 
ENDBRANCH   8   9
ENDBRANCH   1   8
TORSDOF 3
ENDMDL
MODEL 7
REMARK VINA RESULT:    -4.128     13.951     14.805
REMARK INTER + INTRA:          -5.089
REMARK INTER:                  -4.852
REMARK INTRA:                  -0.237
REMARK UNBOUND:                -0.237
REMARK  Name = /home/anacleto/Desktop/manuscript_Mpro/naturecomm/supplementary_file_S2/6-chemical-library/molecular_docking/3D_ligand_structure/1127.pdb
REMARK  3 active torsions:
REMARK  status: ('A' for Active; 'I' for Inactive)
REMARK    1  A    between atoms: C3_5  and  C4_6
REMARK    2  A    between atoms: C4_6  and  O1_7
REMARK    3  A    between atoms: O1_7  and  C5_8
REMARK                            x       y       z     vdW  Elec       q    Type
REMARK                         _______ _______ _______ _____ _____    ______ ____
ROOT
ATOM      1  C4  UNL     1     -37.940  -2.346 -27.050  0.00  0.00    +0.000 C 
ENDROOT
BRANCH   1   6
ATOM      2  N1  UNL     1     -36.806  -0.574 -28.436  0.00  0.00    +0.000 N 
ATOM      3  C1  UNL     1     -37.135   0.605 -29.040  0.00  0.00    +0.000 A 
ATOM      4  C2  UNL     1     -38.467   0.789 -28.757  0.00  0.00    +0.000 A 
ATOM      5  N2  UNL     1     -38.951  -0.247 -28.000  0.00  0.00    +0.000 NA
ATOM      6  C3  UNL     1     -37.931  -1.063 -27.815  0.00  0.00    +0.000 A 
ATOM      7  H1  UNL     1     -35.905  -1.033 -28.429  0.00  0.00    +0.000 HD
ENDBRANCH   1   6
BRANCH   1   8
ATOM      8  O1  UNL     1     -37.281  -2.117 -25.802  0.00  0.00    +0.000 OA
BRANCH   8   9
ATOM      9  C5  UNL     1     -36.143  -2.838 -25.565  0.00  0.00    +0.000 A 
ATOM     10  C6  UNL     1     -36.085  -4.178 -25.176  0.00  0.00    +0.000 A 
ATOM     11  C7  UNL     1     -34.848  -4.795 -24.966  0.00  0.00    +0.000 A 
ATOM     12  C8  UNL     1     -33.665  -4.077 -25.143  0.00  0.00    +0.000 A 
ATOM     13  C9  UNL     1     -33.717  -2.742 -25.530  0.00  0.00    +0.000 A 
ATOM     14  C10 UNL     1     -34.953  -2.126 -25.739  0.00  0.00    +0.000 A 
ENDBRANCH   8   9
ENDBRANCH   1   8
TORSDOF 3
ENDMDL
MODEL 8
REMARK VINA RESULT:    -4.028      2.045      5.839
REMARK INTER + INTRA:          -4.972
REMARK INTER:                  -4.783
REMARK INTRA:                  -0.189
REMARK UNBOUND:                -0.237
REMARK  Name = /home/anacleto/Desktop/manuscript_Mpro/naturecomm/supplementary_file_S2/6-chemical-library/molecular_docking/3D_ligand_structure/1127.pdb
REMARK  3 active torsions:
REMARK  status: ('A' for Active; 'I' for Inactive)
REMARK    1  A    between atoms: C3_5  and  C4_6
REMARK    2  A    between atoms: C4_6  and  O1_7
REMARK    3  A    between atoms: O1_7  and  C5_8
REMARK                            x       y       z     vdW  Elec       q    Type
REMARK                         _______ _______ _______ _____ _____    ______ ____
ROOT
ATOM      1  C4  UNL     1     -37.944   4.511 -14.130  0.00  0.00    +0.000 C 
ENDROOT
BRANCH   1   6
ATOM      2  N1  UNL     1     -37.591   6.611 -15.478  0.00  0.00    +0.000 N 
ATOM      3  C1  UNL     1     -37.583   7.959 -15.268  0.00  0.00    +0.000 A 
ATOM      4  C2  UNL     1     -37.849   8.113 -13.929  0.00  0.00    +0.000 A 
ATOM      5  N2  UNL     1     -38.018   6.894 -13.324  0.00  0.00    +0.000 NA
ATOM      6  C3  UNL     1     -37.858   5.996 -14.277  0.00  0.00    +0.000 A 
ATOM      7  H1  UNL     1     -37.433   6.121 -16.348  0.00  0.00    +0.000 HD
ENDBRANCH   1   6
BRANCH   1   8
ATOM      8  O1  UNL     1     -37.295   3.922 -15.260  0.00  0.00    +0.000 OA
BRANCH   8   9
ATOM      9  C5  UNL     1     -37.658   2.643 -15.580  0.00  0.00    +0.000 A 
ATOM     10  C6  UNL     1     -38.372   1.762 -14.765  0.00  0.00    +0.000 A 
ATOM     11  C7  UNL     1     -38.676   0.475 -15.220  0.00  0.00    +0.000 A 
ATOM     12  C8  UNL     1     -38.269   0.063 -16.489  0.00  0.00    +0.000 A 
ATOM     13  C9  UNL     1     -37.557   0.936 -17.305  0.00  0.00    +0.000 A 
ATOM     14  C10 UNL     1     -37.253   2.221 -16.850  0.00  0.00    +0.000 A 
ENDBRANCH   8   9
ENDBRANCH   1   8
TORSDOF 3
ENDMDL
MODEL 9
REMARK VINA RESULT:    -4.010     19.888     21.578
REMARK INTER + INTRA:          -4.950
REMARK INTER:                  -4.747
REMARK INTRA:                  -0.203
REMARK UNBOUND:                -0.237
REMARK  Name = /home/anacleto/Desktop/manuscript_Mpro/naturecomm/supplementary_file_S2/6-chemical-library/molecular_docking/3D_ligand_structure/1127.pdb
REMARK  3 active torsions:
REMARK  status: ('A' for Active; 'I' for Inactive)
REMARK    1  A    between atoms: C3_5  and  C4_6
REMARK    2  A    between atoms: C4_6  and  O1_7
REMARK    3  A    between atoms: O1_7  and  C5_8
REMARK                            x       y       z     vdW  Elec       q    Type
REMARK                         _______ _______ _______ _____ _____    ______ ____
ROOT
ATOM      1  C4  UNL     1     -23.218  -4.445 -26.499  0.00  0.00    +0.000 C 
ENDROOT
BRANCH   1   6
ATOM      2  N1  UNL     1     -20.771  -5.028 -26.360  0.00  0.00    +0.000 N 
ATOM      3  C1  UNL     1     -19.636  -4.817 -27.088  0.00  0.00    +0.000 A 
ATOM      4  C2  UNL     1     -20.042  -4.076 -28.172  0.00  0.00    +0.000 A 
ATOM      5  N2  UNL     1     -21.391  -3.835 -28.118  0.00  0.00    +0.000 NA
ATOM      6  C3  UNL     1     -21.816  -4.418 -27.013  0.00  0.00    +0.000 A 
ATOM      7  H1  UNL     1     -20.860  -5.537 -25.490  0.00  0.00    +0.000 HD
ENDBRANCH   1   6
BRANCH   1   8
ATOM      8  O1  UNL     1     -24.043  -3.753 -27.440  0.00  0.00    +0.000 OA
BRANCH   8   9
ATOM      9  C5  UNL     1     -25.384  -4.014 -27.392  0.00  0.00    +0.000 A 
ATOM     10  C6  UNL     1     -26.343  -3.569 -28.305  0.00  0.00    +0.000 A 
ATOM     11  C7  UNL     1     -27.688  -3.912 -28.134  0.00  0.00    +0.000 A 
ATOM     12  C8  UNL     1     -28.080  -4.699 -27.053  0.00  0.00    +0.000 A 
ATOM     13  C9  UNL     1     -27.130  -5.145 -26.140  0.00  0.00    +0.000 A 
ATOM     14  C10 UNL     1     -25.787  -4.803 -26.310  0.00  0.00    +0.000 A 
ENDBRANCH   8   9
ENDBRANCH   1   8
TORSDOF 3
ENDMDL
