MODEL 1
REMARK VINA RESULT:    -4.664      0.000      0.000
REMARK INTER + INTRA:          -4.664
REMARK INTER:                  -4.664
REMARK INTRA:                   0.000
REMARK UNBOUND:                 0.000
REMARK  Name = /home/anacleto/Desktop/manuscript_Mpro/naturecomm/supplementary_file_S2/6-chemical-library/molecular_docking/3D_ligand_structure/149.pdb
REMARK  0 active torsions:
REMARK  status: ('A' for Active; 'I' for Inactive)
REMARK                            x       y       z     vdW  Elec       q    Type
REMARK                         _______ _______ _______ _____ _____    ______ ____
ROOT
ATOM      1  C1  UNL     1      17.351  11.356  -7.669  0.00  0.00    +0.000 A 
ATOM      2  C2  UNL     1      18.640  10.998  -7.278  0.00  0.00    +0.000 A 
ATOM      3  C3  UNL     1      18.883  10.634  -5.958  0.00  0.00    +0.000 A 
ATOM      4  C4  UNL     1      17.838  10.634  -5.031  0.00  0.00    +0.000 A 
ATOM      5  C5  UNL     1      16.534  10.999  -5.405  0.00  0.00    +0.000 A 
ATOM      6  C6  UNL     1      16.303  11.358  -6.739  0.00  0.00    +0.000 A 
ATOM      7  C7  UNL     1      15.455  10.984  -4.255  0.00  0.00    +0.000 A 
ATOM      8  C8  UNL     1      14.132  10.773  -4.301  0.00  0.00    +0.000 A 
ATOM      9  C9  UNL     1      13.332  10.636  -5.364  0.00  0.00    +0.000 A 
ATOM     10  C10 UNL     1      13.766  10.818  -6.806  0.00  0.00    +0.000 A 
ATOM     11  O1  UNL     1      13.110  10.264  -7.667  0.00  0.00    +0.000 OA
ATOM     12  C11 UNL     1      14.894  11.715  -7.251  0.00  0.00    +0.000 A 
ENDROOT
TORSDOF 0
ENDMDL
MODEL 2
REMARK VINA RESULT:    -4.597     16.559     18.180
REMARK INTER + INTRA:          -4.597
REMARK INTER:                  -4.597
REMARK INTRA:                   0.000
REMARK UNBOUND:                 0.000
REMARK  Name = /home/anacleto/Desktop/manuscript_Mpro/naturecomm/supplementary_file_S2/6-chemical-library/molecular_docking/3D_ligand_structure/149.pdb
REMARK  0 active torsions:
REMARK  status: ('A' for Active; 'I' for Inactive)
REMARK                            x       y       z     vdW  Elec       q    Type
REMARK                         _______ _______ _______ _____ _____    ______ ____
ROOT
ATOM      1  C1  UNL     1      18.123   5.303  12.709  0.00  0.00    +0.000 A 
ATOM      2  C2  UNL     1      17.824   6.296  13.641  0.00  0.00    +0.000 A 
ATOM      3  C3  UNL     1      18.113   7.624  13.348  0.00  0.00    +0.000 A 
ATOM      4  C4  UNL     1      18.705   7.956  12.127  0.00  0.00    +0.000 A 
ATOM      5  C5  UNL     1      19.020   6.968  11.180  0.00  0.00    +0.000 A 
ATOM      6  C6  UNL     1      18.719   5.636  11.486  0.00  0.00    +0.000 A 
ATOM      7  C7  UNL     1      19.712   7.475   9.856  0.00  0.00    +0.000 A 
ATOM      8  C8  UNL     1      19.689   6.976   8.612  0.00  0.00    +0.000 A 
ATOM      9  C9  UNL     1      19.168   5.827   8.169  0.00  0.00    +0.000 A 
ATOM     10  C10 UNL     1      18.569   4.748   9.051  0.00  0.00    +0.000 A 
ATOM     11  O1  UNL     1      17.764   3.988   8.547  0.00  0.00    +0.000 OA
ATOM     12  C11 UNL     1      18.974   4.494  10.482  0.00  0.00    +0.000 A 
ENDROOT
TORSDOF 0
ENDMDL
MODEL 3
REMARK VINA RESULT:    -4.499     17.222     18.645
REMARK INTER + INTRA:          -4.499
REMARK INTER:                  -4.499
REMARK INTRA:                   0.000
REMARK UNBOUND:                 0.000
REMARK  Name = /home/anacleto/Desktop/manuscript_Mpro/naturecomm/supplementary_file_S2/6-chemical-library/molecular_docking/3D_ligand_structure/149.pdb
REMARK  0 active torsions:
REMARK  status: ('A' for Active; 'I' for Inactive)
REMARK                            x       y       z     vdW  Elec       q    Type
REMARK                         _______ _______ _______ _____ _____    ______ ____
ROOT
ATOM      1  C1  UNL     1      21.321   5.486   9.591  0.00  0.00    +0.000 A 
ATOM      2  C2  UNL     1      20.739   5.616   8.332  0.00  0.00    +0.000 A 
ATOM      3  C3  UNL     1      19.541   6.310   8.196  0.00  0.00    +0.000 A 
ATOM      4  C4  UNL     1      18.926   6.867   9.319  0.00  0.00    +0.000 A 
ATOM      5  C5  UNL     1      19.494   6.739  10.597  0.00  0.00    +0.000 A 
ATOM      6  C6  UNL     1      20.703   6.042  10.719  0.00  0.00    +0.000 A 
ATOM      7  C7  UNL     1      18.683   7.389  11.783  0.00  0.00    +0.000 A 
ATOM      8  C8  UNL     1      19.099   7.898  12.951  0.00  0.00    +0.000 A 
ATOM      9  C9  UNL     1      20.322   7.883  13.495  0.00  0.00    +0.000 A 
ATOM     10  C10 UNL     1      21.518   7.148  12.921  0.00  0.00    +0.000 A 
ATOM     11  O1  UNL     1      22.625   7.543  13.231  0.00  0.00    +0.000 OA
ATOM     12  C11 UNL     1      21.428   5.905  12.072  0.00  0.00    +0.000 A 
ENDROOT
TORSDOF 0
ENDMDL
MODEL 4
REMARK VINA RESULT:    -4.460     16.963     18.340
REMARK INTER + INTRA:          -4.460
REMARK INTER:                  -4.460
REMARK INTRA:                   0.000
REMARK UNBOUND:                 0.000
REMARK  Name = /home/anacleto/Desktop/manuscript_Mpro/naturecomm/supplementary_file_S2/6-chemical-library/molecular_docking/3D_ligand_structure/149.pdb
REMARK  0 active torsions:
REMARK  status: ('A' for Active; 'I' for Inactive)
REMARK                            x       y       z     vdW  Elec       q    Type
REMARK                         _______ _______ _______ _____ _____    ______ ____
ROOT
ATOM      1  C1  UNL     1      13.266  -0.634   8.733  0.00  0.00    +0.000 A 
ATOM      2  C2  UNL     1      13.629  -1.774   8.020  0.00  0.00    +0.000 A 
ATOM      3  C3  UNL     1      14.768  -1.753   7.222  0.00  0.00    +0.000 A 
ATOM      4  C4  UNL     1      15.537  -0.590   7.135  0.00  0.00    +0.000 A 
ATOM      5  C5  UNL     1      15.182   0.571   7.841  0.00  0.00    +0.000 A 
ATOM      6  C6  UNL     1      14.036   0.534   8.644  0.00  0.00    +0.000 A 
ATOM      7  C7  UNL     1      16.119   1.822   7.631  0.00  0.00    +0.000 A 
ATOM      8  C8  UNL     1      16.404   2.846   8.447  0.00  0.00    +0.000 A 
ATOM      9  C9  UNL     1      15.869   3.160   9.632  0.00  0.00    +0.000 A 
ATOM     10  C10 UNL     1      14.692   2.448  10.270  0.00  0.00    +0.000 A 
ATOM     11  O1  UNL     1      14.576   2.517  11.478  0.00  0.00    +0.000 OA
ATOM     12  C11 UNL     1      13.604   1.740   9.500  0.00  0.00    +0.000 A 
ENDROOT
TORSDOF 0
ENDMDL
MODEL 5
REMARK VINA RESULT:    -4.388     16.815     18.379
REMARK INTER + INTRA:          -4.388
REMARK INTER:                  -4.388
REMARK INTRA:                   0.000
REMARK UNBOUND:                 0.000
REMARK  Name = /home/anacleto/Desktop/manuscript_Mpro/naturecomm/supplementary_file_S2/6-chemical-library/molecular_docking/3D_ligand_structure/149.pdb
REMARK  0 active torsions:
REMARK  status: ('A' for Active; 'I' for Inactive)
REMARK                            x       y       z     vdW  Elec       q    Type
REMARK                         _______ _______ _______ _____ _____    ______ ____
ROOT
ATOM      1  C1  UNL     1      21.176   6.942  12.669  0.00  0.00    +0.000 A 
ATOM      2  C2  UNL     1      20.243   7.426  13.583  0.00  0.00    +0.000 A 
ATOM      3  C3  UNL     1      18.977   7.799  13.143  0.00  0.00    +0.000 A 
ATOM      4  C4  UNL     1      18.650   7.691  11.789  0.00  0.00    +0.000 A 
ATOM      5  C5  UNL     1      19.581   7.212  10.853  0.00  0.00    +0.000 A 
ATOM      6  C6  UNL     1      20.849   6.836  11.311  0.00  0.00    +0.000 A 
ATOM      7  C7  UNL     1      19.093   7.169   9.353  0.00  0.00    +0.000 A 
ATOM      8  C8  UNL     1      19.450   6.365   8.342  0.00  0.00    +0.000 A 
ATOM      9  C9  UNL     1      20.420   5.446   8.291  0.00  0.00    +0.000 A 
ATOM     10  C10 UNL     1      21.439   5.198   9.386  0.00  0.00    +0.000 A 
ATOM     11  O1  UNL     1      21.967   4.103   9.429  0.00  0.00    +0.000 OA
ATOM     12  C11 UNL     1      21.912   6.244  10.365  0.00  0.00    +0.000 A 
ENDROOT
TORSDOF 0
ENDMDL
MODEL 6
REMARK VINA RESULT:    -4.272      3.923      5.565
REMARK INTER + INTRA:          -4.272
REMARK INTER:                  -4.272
REMARK INTRA:                   0.000
REMARK UNBOUND:                 0.000
REMARK  Name = /home/anacleto/Desktop/manuscript_Mpro/naturecomm/supplementary_file_S2/6-chemical-library/molecular_docking/3D_ligand_structure/149.pdb
REMARK  0 active torsions:
REMARK  status: ('A' for Active; 'I' for Inactive)
REMARK                            x       y       z     vdW  Elec       q    Type
REMARK                         _______ _______ _______ _____ _____    ______ ____
ROOT
ATOM      1  C1  UNL     1      14.938  10.975  -3.751  0.00  0.00    +0.000 A 
ATOM      2  C2  UNL     1      14.387  11.429  -4.948  0.00  0.00    +0.000 A 
ATOM      3  C3  UNL     1      14.228  12.794  -5.158  0.00  0.00    +0.000 A 
ATOM      4  C4  UNL     1      14.615  13.702  -4.169  0.00  0.00    +0.000 A 
ATOM      5  C5  UNL     1      15.165  13.261  -2.954  0.00  0.00    +0.000 A 
ATOM      6  C6  UNL     1      15.324  11.884  -2.758  0.00  0.00    +0.000 A 
ATOM      7  C7  UNL     1      15.532  14.388  -1.912  0.00  0.00    +0.000 A 
ATOM      8  C8  UNL     1      16.469  14.421  -0.955  0.00  0.00    +0.000 A 
ATOM      9  C9  UNL     1      17.283  13.447  -0.531  0.00  0.00    +0.000 A 
ATOM     10  C10 UNL     1      17.224  12.004  -0.994  0.00  0.00    +0.000 A 
ATOM     11  O1  UNL     1      18.235  11.336  -0.891  0.00  0.00    +0.000 OA
ATOM     12  C11 UNL     1      15.973  11.315  -1.482  0.00  0.00    +0.000 A 
ENDROOT
TORSDOF 0
ENDMDL
MODEL 7
REMARK VINA RESULT:    -4.242     16.489     17.670
REMARK INTER + INTRA:          -4.242
REMARK INTER:                  -4.242
REMARK INTRA:                   0.000
REMARK UNBOUND:                 0.000
REMARK  Name = /home/anacleto/Desktop/manuscript_Mpro/naturecomm/supplementary_file_S2/6-chemical-library/molecular_docking/3D_ligand_structure/149.pdb
REMARK  0 active torsions:
REMARK  status: ('A' for Active; 'I' for Inactive)
REMARK                            x       y       z     vdW  Elec       q    Type
REMARK                         _______ _______ _______ _____ _____    ______ ____
ROOT
ATOM      1  C1  UNL     1      20.576   2.808   9.626  0.00  0.00    +0.000 A 
ATOM      2  C2  UNL     1      21.734   2.379   8.980  0.00  0.00    +0.000 A 
ATOM      3  C3  UNL     1      22.481   3.284   8.233  0.00  0.00    +0.000 A 
ATOM      4  C4  UNL     1      22.065   4.613   8.129  0.00  0.00    +0.000 A 
ATOM      5  C5  UNL     1      20.897   5.061   8.768  0.00  0.00    +0.000 A 
ATOM      6  C6  UNL     1      20.158   4.141   9.521  0.00  0.00    +0.000 A 
ATOM      7  C7  UNL     1      20.526   6.578   8.546  0.00  0.00    +0.000 A 
ATOM      8  C8  UNL     1      19.858   7.438   9.328  0.00  0.00    +0.000 A 
ATOM      9  C9  UNL     1      19.206   7.210  10.474  0.00  0.00    +0.000 A 
ATOM     10  C10 UNL     1      18.982   5.842  11.089  0.00  0.00    +0.000 A 
ATOM     11  O1  UNL     1      18.781   5.787  12.287  0.00  0.00    +0.000 OA
ATOM     12  C11 UNL     1      18.897   4.557  10.303  0.00  0.00    +0.000 A 
ENDROOT
TORSDOF 0
ENDMDL
MODEL 8
REMARK VINA RESULT:    -4.227      1.930      3.477
REMARK INTER + INTRA:          -4.227
REMARK INTER:                  -4.227
REMARK INTRA:                   0.000
REMARK UNBOUND:                 0.000
REMARK  Name = /home/anacleto/Desktop/manuscript_Mpro/naturecomm/supplementary_file_S2/6-chemical-library/molecular_docking/3D_ligand_structure/149.pdb
REMARK  0 active torsions:
REMARK  status: ('A' for Active; 'I' for Inactive)
REMARK                            x       y       z     vdW  Elec       q    Type
REMARK                         _______ _______ _______ _____ _____    ______ ____
ROOT
ATOM      1  C1  UNL     1      15.391  12.184  -2.517  0.00  0.00    +0.000 A 
ATOM      2  C2  UNL     1      16.386  13.027  -2.025  0.00  0.00    +0.000 A 
ATOM      3  C3  UNL     1      17.367  13.509  -2.885  0.00  0.00    +0.000 A 
ATOM      4  C4  UNL     1      17.354  13.143  -4.233  0.00  0.00    +0.000 A 
ATOM      5  C5  UNL     1      16.364  12.288  -4.744  0.00  0.00    +0.000 A 
ATOM      6  C6  UNL     1      15.379  11.815  -3.868  0.00  0.00    +0.000 A 
ATOM      7  C7  UNL     1      16.482  11.930  -6.276  0.00  0.00    +0.000 A 
ATOM      8  C8  UNL     1      15.540  11.613  -7.174  0.00  0.00    +0.000 A 
ATOM      9  C9  UNL     1      14.234  11.388  -6.989  0.00  0.00    +0.000 A 
ATOM     10  C10 UNL     1      13.546  11.330  -5.640  0.00  0.00    +0.000 A 
ATOM     11  O1  UNL     1      12.351  11.553  -5.605  0.00  0.00    +0.000 OA
ATOM     12  C11 UNL     1      14.221  10.922  -4.354  0.00  0.00    +0.000 A 
ENDROOT
TORSDOF 0
ENDMDL
MODEL 9
REMARK VINA RESULT:    -4.109     10.499     12.587
REMARK INTER + INTRA:          -4.109
REMARK INTER:                  -4.109
REMARK INTRA:                   0.000
REMARK UNBOUND:                 0.000
REMARK  Name = /home/anacleto/Desktop/manuscript_Mpro/naturecomm/supplementary_file_S2/6-chemical-library/molecular_docking/3D_ligand_structure/149.pdb
REMARK  0 active torsions:
REMARK  status: ('A' for Active; 'I' for Inactive)
REMARK                            x       y       z     vdW  Elec       q    Type
REMARK                         _______ _______ _______ _____ _____    ______ ____
ROOT
ATOM      1  C1  UNL     1       6.716  19.822 -11.199  0.00  0.00    +0.000 A 
ATOM      2  C2  UNL     1       5.560  19.361 -11.827  0.00  0.00    +0.000 A 
ATOM      3  C3  UNL     1       5.620  18.238 -12.645  0.00  0.00    +0.000 A 
ATOM      4  C4  UNL     1       6.838  17.582 -12.838  0.00  0.00    +0.000 A 
ATOM      5  C5  UNL     1       8.015  18.036 -12.220  0.00  0.00    +0.000 A 
ATOM      6  C6  UNL     1       7.937  19.164 -11.395  0.00  0.00    +0.000 A 
ATOM      7  C7  UNL     1       9.326  17.221 -12.545  0.00  0.00    +0.000 A 
ATOM      8  C8  UNL     1      10.434  17.024 -11.819  0.00  0.00    +0.000 A 
ATOM      9  C9  UNL     1      10.792  17.572 -10.652  0.00  0.00    +0.000 A 
ATOM     10  C10 UNL     1      10.028  18.670  -9.938  0.00  0.00    +0.000 A 
ATOM     11  O1  UNL     1      10.184  18.779  -8.737  0.00  0.00    +0.000 OA
ATOM     12  C11 UNL     1       9.165  19.696 -10.630  0.00  0.00    +0.000 A 
ENDROOT
TORSDOF 0
ENDMDL
