MODEL 1
REMARK VINA RESULT:    -3.228      0.000      0.000
REMARK INTER + INTRA:          -3.228
REMARK INTER:                  -3.228
REMARK INTRA:                   0.000
REMARK UNBOUND:                 0.000
REMARK  Name = /home/anacleto/Desktop/manuscript_Mpro/naturecomm/supplementary_file_S2/6-chemical-library/molecular_docking/3D_ligand_structure/86.pdb
REMARK  0 active torsions:
REMARK  status: ('A' for Active; 'I' for Inactive)
REMARK                            x       y       z     vdW  Elec       q    Type
REMARK                         _______ _______ _______ _____ _____    ______ ____
ROOT
ATOM      1  C1  UNL     1      19.651   5.743   8.314  0.00  0.00    +0.000 A 
ATOM      2  C2  UNL     1      20.919   5.386   8.762  0.00  0.00    +0.000 A 
ATOM      3  C3  UNL     1      21.739   6.362   9.315  0.00  0.00    +0.000 A 
ATOM      4  N1  UNL     1      21.301   7.628   9.411  0.00  0.00    +0.000 N 
ATOM      5  C4  UNL     1      20.082   8.002   8.988  0.00  0.00    +0.000 A 
ATOM      6  C5  UNL     1      19.225   7.063   8.428  0.00  0.00    +0.000 A 
ATOM      7  H4  UNL     1      21.917   8.332   9.820  0.00  0.00    +0.000 HD
ENDROOT
TORSDOF 0
ENDMDL
MODEL 2
REMARK VINA RESULT:    -3.211      0.071      1.944
REMARK INTER + INTRA:          -3.211
REMARK INTER:                  -3.211
REMARK INTRA:                   0.000
REMARK UNBOUND:                 0.000
REMARK  Name = /home/anacleto/Desktop/manuscript_Mpro/naturecomm/supplementary_file_S2/6-chemical-library/molecular_docking/3D_ligand_structure/86.pdb
REMARK  0 active torsions:
REMARK  status: ('A' for Active; 'I' for Inactive)
REMARK                            x       y       z     vdW  Elec       q    Type
REMARK                         _______ _______ _______ _____ _____    ______ ____
ROOT
ATOM      1  C1  UNL     1      19.643   5.722   8.407  0.00  0.00    +0.000 A 
ATOM      2  C2  UNL     1      19.216   7.046   8.444  0.00  0.00    +0.000 A 
ATOM      3  C3  UNL     1      20.073   8.018   8.947  0.00  0.00    +0.000 A 
ATOM      4  N1  UNL     1      21.293   7.670   9.387  0.00  0.00    +0.000 N 
ATOM      5  C4  UNL     1      21.733   6.402   9.365  0.00  0.00    +0.000 A 
ATOM      6  C5  UNL     1      20.914   5.394   8.871  0.00  0.00    +0.000 A 
ATOM      7  H4  UNL     1      21.909   8.398   9.754  0.00  0.00    +0.000 HD
ENDROOT
TORSDOF 0
ENDMDL
MODEL 3
REMARK VINA RESULT:    -3.145     15.874     16.609
REMARK INTER + INTRA:          -3.145
REMARK INTER:                  -3.145
REMARK INTRA:                   0.000
REMARK UNBOUND:                 0.000
REMARK  Name = /home/anacleto/Desktop/manuscript_Mpro/naturecomm/supplementary_file_S2/6-chemical-library/molecular_docking/3D_ligand_structure/86.pdb
REMARK  0 active torsions:
REMARK  status: ('A' for Active; 'I' for Inactive)
REMARK                            x       y       z     vdW  Elec       q    Type
REMARK                         _______ _______ _______ _____ _____    ______ ____
ROOT
ATOM      1  C1  UNL     1      14.467  11.422  -7.218  0.00  0.00    +0.000 A 
ATOM      2  C2  UNL     1      13.369  10.893  -6.547  0.00  0.00    +0.000 A 
ATOM      3  C3  UNL     1      13.510  10.510  -5.218  0.00  0.00    +0.000 A 
ATOM      4  N1  UNL     1      14.695  10.655  -4.603  0.00  0.00    +0.000 N 
ATOM      5  C4  UNL     1      15.772  11.163  -5.224  0.00  0.00    +0.000 A 
ATOM      6  C5  UNL     1      15.682  11.560  -6.552  0.00  0.00    +0.000 A 
ATOM      7  H4  UNL     1      14.780  10.369  -3.626  0.00  0.00    +0.000 HD
ENDROOT
TORSDOF 0
ENDMDL
MODEL 4
REMARK VINA RESULT:    -3.125     15.837     16.514
REMARK INTER + INTRA:          -3.125
REMARK INTER:                  -3.125
REMARK INTRA:                   0.000
REMARK UNBOUND:                 0.000
REMARK  Name = /home/anacleto/Desktop/manuscript_Mpro/naturecomm/supplementary_file_S2/6-chemical-library/molecular_docking/3D_ligand_structure/86.pdb
REMARK  0 active torsions:
REMARK  status: ('A' for Active; 'I' for Inactive)
REMARK                            x       y       z     vdW  Elec       q    Type
REMARK                         _______ _______ _______ _____ _____    ______ ____
ROOT
ATOM      1  C1  UNL     1      14.522  11.460  -7.177  0.00  0.00    +0.000 A 
ATOM      2  C2  UNL     1      15.739  11.522  -6.505  0.00  0.00    +0.000 A 
ATOM      3  C3  UNL     1      15.809  11.073  -5.192  0.00  0.00    +0.000 A 
ATOM      4  N1  UNL     1      14.710  10.586  -4.593  0.00  0.00    +0.000 N 
ATOM      5  C4  UNL     1      13.522  10.514  -5.215  0.00  0.00    +0.000 A 
ATOM      6  C5  UNL     1      13.401  10.950  -6.527  0.00  0.00    +0.000 A 
ATOM      7  H4  UNL     1      14.781  10.260  -3.627  0.00  0.00    +0.000 HD
ENDROOT
TORSDOF 0
ENDMDL
MODEL 5
REMARK VINA RESULT:    -2.902     26.341     27.228
REMARK INTER + INTRA:          -2.902
REMARK INTER:                  -2.902
REMARK INTRA:                   0.000
REMARK UNBOUND:                 0.000
REMARK  Name = /home/anacleto/Desktop/manuscript_Mpro/naturecomm/supplementary_file_S2/6-chemical-library/molecular_docking/3D_ligand_structure/86.pdb
REMARK  0 active torsions:
REMARK  status: ('A' for Active; 'I' for Inactive)
REMARK                            x       y       z     vdW  Elec       q    Type
REMARK                         _______ _______ _______ _____ _____    ______ ____
ROOT
ATOM      1  C1  UNL     1       1.198  27.580  11.081  0.00  0.00    +0.000 A 
ATOM      2  C2  UNL     1       2.277  27.842  10.242  0.00  0.00    +0.000 A 
ATOM      3  C3  UNL     1       3.371  26.986  10.260  0.00  0.00    +0.000 A 
ATOM      4  N1  UNL     1       3.373  25.923  11.080  0.00  0.00    +0.000 N 
ATOM      5  C4  UNL     1       2.348  25.644  11.902  0.00  0.00    +0.000 A 
ATOM      6  C5  UNL     1       1.232  26.470  11.920  0.00  0.00    +0.000 A 
ATOM      7  H4  UNL     1       4.186  25.304  11.080  0.00  0.00    +0.000 HD
ENDROOT
TORSDOF 0
ENDMDL
MODEL 6
REMARK VINA RESULT:    -2.673      8.266      9.237
REMARK INTER + INTRA:          -2.673
REMARK INTER:                  -2.673
REMARK INTRA:                   0.000
REMARK UNBOUND:                 0.000
REMARK  Name = /home/anacleto/Desktop/manuscript_Mpro/naturecomm/supplementary_file_S2/6-chemical-library/molecular_docking/3D_ligand_structure/86.pdb
REMARK  0 active torsions:
REMARK  status: ('A' for Active; 'I' for Inactive)
REMARK                            x       y       z     vdW  Elec       q    Type
REMARK                         _______ _______ _______ _____ _____    ______ ____
ROOT
ATOM      1  C1  UNL     1      15.646   0.669   7.676  0.00  0.00    +0.000 A 
ATOM      2  C2  UNL     1      14.762   1.635   8.147  0.00  0.00    +0.000 A 
ATOM      3  C3  UNL     1      13.481   1.251   8.525  0.00  0.00    +0.000 A 
ATOM      4  N1  UNL     1      13.116  -0.038   8.434  0.00  0.00    +0.000 N 
ATOM      5  C4  UNL     1      13.947  -0.993   7.984  0.00  0.00    +0.000 A 
ATOM      6  C5  UNL     1      15.237  -0.659   7.594  0.00  0.00    +0.000 A 
ATOM      7  H4  UNL     1      12.171  -0.303   8.717  0.00  0.00    +0.000 HD
ENDROOT
TORSDOF 0
ENDMDL
MODEL 7
REMARK VINA RESULT:    -2.582     26.302     27.203
REMARK INTER + INTRA:          -2.582
REMARK INTER:                  -2.582
REMARK INTRA:                   0.000
REMARK UNBOUND:                 0.000
REMARK  Name = /home/anacleto/Desktop/manuscript_Mpro/naturecomm/supplementary_file_S2/6-chemical-library/molecular_docking/3D_ligand_structure/86.pdb
REMARK  0 active torsions:
REMARK  status: ('A' for Active; 'I' for Inactive)
REMARK                            x       y       z     vdW  Elec       q    Type
REMARK                         _______ _______ _______ _____ _____    ______ ____
ROOT
ATOM      1  C1  UNL     1       3.587  27.919   2.445  0.00  0.00    +0.000 A 
ATOM      2  C2  UNL     1       4.251  26.978   1.664  0.00  0.00    +0.000 A 
ATOM      3  C3  UNL     1       3.838  25.652   1.706  0.00  0.00    +0.000 A 
ATOM      4  N1  UNL     1       2.810  25.298   2.494  0.00  0.00    +0.000 N 
ATOM      5  C4  UNL     1       2.150  26.182   3.260  0.00  0.00    +0.000 A 
ATOM      6  C5  UNL     1       2.525  27.519   3.252  0.00  0.00    +0.000 A 
ATOM      7  H4  UNL     1       2.520  24.318   2.513  0.00  0.00    +0.000 HD
ENDROOT
TORSDOF 0
ENDMDL
MODEL 8
REMARK VINA RESULT:    -2.574      9.632      9.842
REMARK INTER + INTRA:          -2.574
REMARK INTER:                  -2.574
REMARK INTRA:                   0.000
REMARK UNBOUND:                 0.000
REMARK  Name = /home/anacleto/Desktop/manuscript_Mpro/naturecomm/supplementary_file_S2/6-chemical-library/molecular_docking/3D_ligand_structure/86.pdb
REMARK  0 active torsions:
REMARK  status: ('A' for Active; 'I' for Inactive)
REMARK                            x       y       z     vdW  Elec       q    Type
REMARK                         _______ _______ _______ _____ _____    ______ ____
ROOT
ATOM      1  C1  UNL     1      22.419  16.179  11.849  0.00  0.00    +0.000 A 
ATOM      2  C2  UNL     1      22.777  15.432  12.967  0.00  0.00    +0.000 A 
ATOM      3  C3  UNL     1      23.920  14.644  12.915  0.00  0.00    +0.000 A 
ATOM      4  N1  UNL     1      24.662  14.616  11.796  0.00  0.00    +0.000 N 
ATOM      5  C4  UNL     1      24.343  15.326  10.702  0.00  0.00    +0.000 A 
ATOM      6  C5  UNL     1      23.210  16.128  10.704  0.00  0.00    +0.000 A 
ATOM      7  H4  UNL     1      25.500  14.031  11.777  0.00  0.00    +0.000 HD
ENDROOT
TORSDOF 0
ENDMDL
MODEL 9
REMARK VINA RESULT:    -2.513     25.718     26.004
REMARK INTER + INTRA:          -2.513
REMARK INTER:                  -2.513
REMARK INTRA:                   0.000
REMARK UNBOUND:                 0.000
REMARK  Name = /home/anacleto/Desktop/manuscript_Mpro/naturecomm/supplementary_file_S2/6-chemical-library/molecular_docking/3D_ligand_structure/86.pdb
REMARK  0 active torsions:
REMARK  status: ('A' for Active; 'I' for Inactive)
REMARK                            x       y       z     vdW  Elec       q    Type
REMARK                         _______ _______ _______ _____ _____    ______ ____
ROOT
ATOM      1  C1  UNL     1       5.692  26.910   1.722  0.00  0.00    +0.000 A 
ATOM      2  C2  UNL     1       6.753  26.900   0.822  0.00  0.00    +0.000 A 
ATOM      3  C3  UNL     1       6.628  26.183  -0.361  0.00  0.00    +0.000 A 
ATOM      4  N1  UNL     1       5.492  25.515  -0.621  0.00  0.00    +0.000 N 
ATOM      5  C4  UNL     1       4.451  25.506   0.228  0.00  0.00    +0.000 A 
ATOM      6  C5  UNL     1       4.528  26.207   1.424  0.00  0.00    +0.000 A 
ATOM      7  H4  UNL     1       5.418  24.994  -1.496  0.00  0.00    +0.000 HD
ENDROOT
TORSDOF 0
ENDMDL
