MODEL 1
REMARK VINA RESULT:    -2.482      0.000      0.000
REMARK INTER + INTRA:          -2.482
REMARK INTER:                  -2.482
REMARK INTRA:                   0.000
REMARK UNBOUND:                 0.000
REMARK  Name = /home/anacleto/Desktop/manuscript_Mpro/naturecomm/supplementary_file_S2/6-chemical-library/molecular_docking/3D_ligand_structure/133.pdb
REMARK  0 active torsions:
REMARK  status: ('A' for Active; 'I' for Inactive)
REMARK                            x       y       z     vdW  Elec       q    Type
REMARK                         _______ _______ _______ _____ _____    ______ ____
ROOT
ATOM      1  C1  UNL     1      19.890   7.773   8.882  0.00  0.00    +0.000 C 
ATOM      2  C2  UNL     1      21.050   7.142   9.139  0.00  0.00    +0.000 C 
ATOM      3  C3  UNL     1      20.585   5.834   8.542  0.00  0.00    +0.000 C 
ATOM      4  C4  UNL     1      19.255   6.557   8.248  0.00  0.00    +0.000 C 
ENDROOT
TORSDOF 0
ENDMDL
MODEL 2
REMARK VINA RESULT:    -2.447      0.196      1.525
REMARK INTER + INTRA:          -2.447
REMARK INTER:                  -2.447
REMARK INTRA:                   0.000
REMARK UNBOUND:                 0.000
REMARK  Name = /home/anacleto/Desktop/manuscript_Mpro/naturecomm/supplementary_file_S2/6-chemical-library/molecular_docking/3D_ligand_structure/133.pdb
REMARK  0 active torsions:
REMARK  status: ('A' for Active; 'I' for Inactive)
REMARK                            x       y       z     vdW  Elec       q    Type
REMARK                         _______ _______ _______ _____ _____    ______ ____
ROOT
ATOM      1  C1  UNL     1      19.260   6.443   8.180  0.00  0.00    +0.000 C 
ATOM      2  C2  UNL     1      19.666   7.580   8.772  0.00  0.00    +0.000 C 
ATOM      3  C3  UNL     1      21.033   7.032   9.111  0.00  0.00    +0.000 C 
ATOM      4  C4  UNL     1      20.568   5.728   8.431  0.00  0.00    +0.000 C 
ENDROOT
TORSDOF 0
ENDMDL
MODEL 3
REMARK VINA RESULT:    -2.279     16.903     17.327
REMARK INTER + INTRA:          -2.279
REMARK INTER:                  -2.279
REMARK INTRA:                   0.000
REMARK UNBOUND:                 0.000
REMARK  Name = /home/anacleto/Desktop/manuscript_Mpro/naturecomm/supplementary_file_S2/6-chemical-library/molecular_docking/3D_ligand_structure/133.pdb
REMARK  0 active torsions:
REMARK  status: ('A' for Active; 'I' for Inactive)
REMARK                            x       y       z     vdW  Elec       q    Type
REMARK                         _______ _______ _______ _____ _____    ______ ____
ROOT
ATOM      1  C1  UNL     1      14.376  11.357  -7.245  0.00  0.00    +0.000 C 
ATOM      2  C2  UNL     1      13.290  10.579  -7.086  0.00  0.00    +0.000 C 
ATOM      3  C3  UNL     1      12.805  11.335  -5.870  0.00  0.00    +0.000 C 
ATOM      4  C4  UNL     1      14.050  12.226  -6.052  0.00  0.00    +0.000 C 
ENDROOT
TORSDOF 0
ENDMDL
MODEL 4
REMARK VINA RESULT:    -2.262     16.859     17.248
REMARK INTER + INTRA:          -2.262
REMARK INTER:                  -2.262
REMARK INTRA:                   0.000
REMARK UNBOUND:                 0.000
REMARK  Name = /home/anacleto/Desktop/manuscript_Mpro/naturecomm/supplementary_file_S2/6-chemical-library/molecular_docking/3D_ligand_structure/133.pdb
REMARK  0 active torsions:
REMARK  status: ('A' for Active; 'I' for Inactive)
REMARK                            x       y       z     vdW  Elec       q    Type
REMARK                         _______ _______ _______ _____ _____    ______ ____
ROOT
ATOM      1  C1  UNL     1      12.848  11.258  -5.961  0.00  0.00    +0.000 C 
ATOM      2  C2  UNL     1      13.843  12.163  -5.937  0.00  0.00    +0.000 C 
ATOM      3  C3  UNL     1      14.538  11.576  -7.145  0.00  0.00    +0.000 C 
ATOM      4  C4  UNL     1      13.397  10.539  -7.172  0.00  0.00    +0.000 C 
ENDROOT
TORSDOF 0
ENDMDL
MODEL 5
REMARK VINA RESULT:    -1.986      6.836      7.712
REMARK INTER + INTRA:          -1.986
REMARK INTER:                  -1.986
REMARK INTRA:                   0.000
REMARK UNBOUND:                 0.000
REMARK  Name = /home/anacleto/Desktop/manuscript_Mpro/naturecomm/supplementary_file_S2/6-chemical-library/molecular_docking/3D_ligand_structure/133.pdb
REMARK  0 active torsions:
REMARK  status: ('A' for Active; 'I' for Inactive)
REMARK                            x       y       z     vdW  Elec       q    Type
REMARK                         _______ _______ _______ _____ _____    ______ ____
ROOT
ATOM      1  C1  UNL     1      16.115   1.584   7.731  0.00  0.00    +0.000 C 
ATOM      2  C2  UNL     1      15.013   2.029   8.360  0.00  0.00    +0.000 C 
ATOM      3  C3  UNL     1      14.272   0.721   8.199  0.00  0.00    +0.000 C 
ATOM      4  C4  UNL     1      15.536   0.210   7.478  0.00  0.00    +0.000 C 
ENDROOT
TORSDOF 0
ENDMDL
MODEL 6
REMARK VINA RESULT:    -1.957      7.179      8.101
REMARK INTER + INTRA:          -1.957
REMARK INTER:                  -1.957
REMARK INTRA:                   0.000
REMARK UNBOUND:                 0.000
REMARK  Name = /home/anacleto/Desktop/manuscript_Mpro/naturecomm/supplementary_file_S2/6-chemical-library/molecular_docking/3D_ligand_structure/133.pdb
REMARK  0 active torsions:
REMARK  status: ('A' for Active; 'I' for Inactive)
REMARK                            x       y       z     vdW  Elec       q    Type
REMARK                         _______ _______ _______ _____ _____    ______ ____
ROOT
ATOM      1  C1  UNL     1      14.362   0.113   8.036  0.00  0.00    +0.000 C 
ATOM      2  C2  UNL     1      15.581   0.512   7.630  0.00  0.00    +0.000 C 
ATOM      3  C3  UNL     1      15.357   1.949   8.045  0.00  0.00    +0.000 C 
ATOM      4  C4  UNL     1      13.960   1.492   8.511  0.00  0.00    +0.000 C 
ENDROOT
TORSDOF 0
ENDMDL
MODEL 7
REMARK VINA RESULT:    -1.884      5.083      5.637
REMARK INTER + INTRA:          -1.884
REMARK INTER:                  -1.884
REMARK INTRA:                   0.000
REMARK UNBOUND:                 0.000
REMARK  Name = /home/anacleto/Desktop/manuscript_Mpro/naturecomm/supplementary_file_S2/6-chemical-library/molecular_docking/3D_ligand_structure/133.pdb
REMARK  0 active torsions:
REMARK  status: ('A' for Active; 'I' for Inactive)
REMARK                            x       y       z     vdW  Elec       q    Type
REMARK                         _______ _______ _______ _____ _____    ______ ____
ROOT
ATOM      1  C1  UNL     1      19.276   7.883  13.098  0.00  0.00    +0.000 C 
ATOM      2  C2  UNL     1      18.021   7.555  12.741  0.00  0.00    +0.000 C 
ATOM      3  C3  UNL     1      17.481   7.685  14.146  0.00  0.00    +0.000 C 
ATOM      4  C4  UNL     1      18.919   8.061  14.557  0.00  0.00    +0.000 C 
ENDROOT
TORSDOF 0
ENDMDL
MODEL 8
REMARK VINA RESULT:    -1.875      5.101      5.434
REMARK INTER + INTRA:          -1.875
REMARK INTER:                  -1.875
REMARK INTRA:                   0.000
REMARK UNBOUND:                 0.000
REMARK  Name = /home/anacleto/Desktop/manuscript_Mpro/naturecomm/supplementary_file_S2/6-chemical-library/molecular_docking/3D_ligand_structure/133.pdb
REMARK  0 active torsions:
REMARK  status: ('A' for Active; 'I' for Inactive)
REMARK                            x       y       z     vdW  Elec       q    Type
REMARK                         _______ _______ _______ _____ _____    ______ ____
ROOT
ATOM      1  C1  UNL     1      17.577   7.765  14.154  0.00  0.00    +0.000 C 
ATOM      2  C2  UNL     1      18.825   8.031  14.578  0.00  0.00    +0.000 C 
ATOM      3  C3  UNL     1      19.438   7.835  13.210  0.00  0.00    +0.000 C 
ATOM      4  C4  UNL     1      18.007   7.530  12.724  0.00  0.00    +0.000 C 
ENDROOT
TORSDOF 0
ENDMDL
MODEL 9
REMARK VINA RESULT:    -1.790      1.632      2.710
REMARK INTER + INTRA:          -1.790
REMARK INTER:                  -1.790
REMARK INTRA:                   0.000
REMARK UNBOUND:                 0.000
REMARK  Name = /home/anacleto/Desktop/manuscript_Mpro/naturecomm/supplementary_file_S2/6-chemical-library/molecular_docking/3D_ligand_structure/133.pdb
REMARK  0 active torsions:
REMARK  status: ('A' for Active; 'I' for Inactive)
REMARK                            x       y       z     vdW  Elec       q    Type
REMARK                         _______ _______ _______ _____ _____    ______ ____
ROOT
ATOM      1  C1  UNL     1      20.996   3.764   9.077  0.00  0.00    +0.000 C 
ATOM      2  C2  UNL     1      21.697   4.655   8.352  0.00  0.00    +0.000 C 
ATOM      3  C3  UNL     1      20.591   5.686   8.368  0.00  0.00    +0.000 C 
ATOM      4  C4  UNL     1      19.788   4.665   9.199  0.00  0.00    +0.000 C 
ENDROOT
TORSDOF 0
ENDMDL
