MODEL 1
REMARK VINA RESULT:    -5.314      0.000      0.000
REMARK INTER + INTRA:          -6.899
REMARK INTER:                  -6.579
REMARK INTRA:                  -0.320
REMARK UNBOUND:                -0.343
REMARK  Name = /home/anacleto/Desktop/manuscript_Mpro/naturecomm/supplementary_file_S2/6-chemical-library/molecular_docking/3D_ligand_structure/628.pdb
REMARK  4 active torsions:
REMARK  status: ('A' for Active; 'I' for Inactive)
REMARK    1  A    between atoms: C4_6  and  C5_7
REMARK    2  A    between atoms: C5_7  and  C6_8
REMARK    3  A    between atoms: N3_10  and  C7_11
REMARK    4  A    between atoms: C7_11  and  C8_12
REMARK                            x       y       z     vdW  Elec       q    Type
REMARK                         _______ _______ _______ _____ _____    ______ ____
ROOT
ATOM      1  C6  UNL     1      16.491   3.359   8.953  0.00  0.00    +0.000 C 
ATOM      2  O1  UNL     1      15.878   3.254  10.011  0.00  0.00    +0.000 OA
ATOM      3  N3  UNL     1      17.718   3.973   8.833  0.00  0.00    +0.000 N 
ATOM      4  H6  UNL     1      18.258   3.807   7.994  0.00  0.00    +0.000 HD
ENDROOT
BRANCH   1   5
ATOM      5  C5  UNL     1      15.951   2.786   7.656  0.00  0.00    +0.000 C 
BRANCH   5  11
ATOM      6  C1  UNL     1      16.541   0.329   7.635  0.00  0.00    +0.000 A 
ATOM      7  N1  UNL     1      16.253  -0.982   7.745  0.00  0.00    +0.000 NA
ATOM      8  C2  UNL     1      14.972  -1.278   8.008  0.00  0.00    +0.000 A 
ATOM      9  N2  UNL     1      13.977  -0.394   8.175  0.00  0.00    +0.000 NA
ATOM     10  C3  UNL     1      14.323   0.902   8.058  0.00  0.00    +0.000 A 
ATOM     11  C4  UNL     1      15.603   1.335   7.776  0.00  0.00    +0.000 A 
ENDBRANCH   5  11
ENDBRANCH   1   5
BRANCH   3  12
ATOM     12  C7  UNL     1      18.463   4.400   9.997  0.00  0.00    +0.000 C 
BRANCH  12  13
ATOM     13  C8  UNL     1      19.338   5.579   9.658  0.00  0.00    +0.000 A 
ATOM     14  C9  UNL     1      18.915   6.523   8.711  0.00  0.00    +0.000 A 
ATOM     15  C10 UNL     1      19.704   7.635   8.418  0.00  0.00    +0.000 A 
ATOM     16  C11 UNL     1      20.923   7.817   9.068  0.00  0.00    +0.000 A 
ATOM     17  C12 UNL     1      21.353   6.887  10.014  0.00  0.00    +0.000 A 
ATOM     18  C13 UNL     1      20.563   5.775  10.311  0.00  0.00    +0.000 A 
ENDBRANCH  12  13
ENDBRANCH   3  12
TORSDOF 4
ENDMDL
MODEL 2
REMARK VINA RESULT:    -5.212      1.388      2.087
REMARK INTER + INTRA:          -6.774
REMARK INTER:                  -6.412
REMARK INTRA:                  -0.362
REMARK UNBOUND:                -0.343
REMARK  Name = /home/anacleto/Desktop/manuscript_Mpro/naturecomm/supplementary_file_S2/6-chemical-library/molecular_docking/3D_ligand_structure/628.pdb
REMARK  4 active torsions:
REMARK  status: ('A' for Active; 'I' for Inactive)
REMARK    1  A    between atoms: C4_6  and  C5_7
REMARK    2  A    between atoms: C5_7  and  C6_8
REMARK    3  A    between atoms: N3_10  and  C7_11
REMARK    4  A    between atoms: C7_11  and  C8_12
REMARK                            x       y       z     vdW  Elec       q    Type
REMARK                         _______ _______ _______ _____ _____    ______ ____
ROOT
ATOM      1  C6  UNL     1      16.968   2.222   8.761  0.00  0.00    +0.000 C 
ATOM      2  O1  UNL     1      17.730   1.293   9.011  0.00  0.00    +0.000 OA
ATOM      3  N3  UNL     1      17.048   3.463   9.353  0.00  0.00    +0.000 N 
ATOM      4  H6  UNL     1      16.550   4.233   8.925  0.00  0.00    +0.000 HD
ENDROOT
BRANCH   1   5
ATOM      5  C5  UNL     1      15.860   2.092   7.733  0.00  0.00    +0.000 C 
BRANCH   5  11
ATOM      6  C1  UNL     1      13.696   1.548   8.919  0.00  0.00    +0.000 A 
ATOM      7  N1  UNL     1      12.714   0.716   9.318  0.00  0.00    +0.000 NA
ATOM      8  C2  UNL     1      12.846  -0.564   8.942  0.00  0.00    +0.000 A 
ATOM      9  N2  UNL     1      13.849  -1.072   8.211  0.00  0.00    +0.000 NA
ATOM     10  C3  UNL     1      14.800  -0.194   7.837  0.00  0.00    +0.000 A 
ATOM     11  C4  UNL     1      14.786   1.146   8.170  0.00  0.00    +0.000 A 
ENDBRANCH   5  11
ENDBRANCH   1   5
BRANCH   3  12
ATOM     12  C7  UNL     1      18.159   3.818  10.208  0.00  0.00    +0.000 C 
BRANCH  12  13
ATOM     13  C8  UNL     1      18.704   5.171   9.827  0.00  0.00    +0.000 A 
ATOM     14  C9  UNL     1      19.086   6.083  10.822  0.00  0.00    +0.000 A 
ATOM     15  C10 UNL     1      19.624   7.323  10.476  0.00  0.00    +0.000 A 
ATOM     16  C11 UNL     1      19.787   7.664   9.136  0.00  0.00    +0.000 A 
ATOM     17  C12 UNL     1      19.416   6.764   8.138  0.00  0.00    +0.000 A 
ATOM     18  C13 UNL     1      18.880   5.521   8.481  0.00  0.00    +0.000 A 
ENDBRANCH  12  13
ENDBRANCH   3  12
TORSDOF 4
ENDMDL
MODEL 3
REMARK VINA RESULT:    -5.090     13.475     14.632
REMARK INTER + INTRA:          -6.623
REMARK INTER:                  -6.130
REMARK INTRA:                  -0.493
REMARK UNBOUND:                -0.343
REMARK  Name = /home/anacleto/Desktop/manuscript_Mpro/naturecomm/supplementary_file_S2/6-chemical-library/molecular_docking/3D_ligand_structure/628.pdb
REMARK  4 active torsions:
REMARK  status: ('A' for Active; 'I' for Inactive)
REMARK    1  A    between atoms: C4_6  and  C5_7
REMARK    2  A    between atoms: C5_7  and  C6_8
REMARK    3  A    between atoms: N3_10  and  C7_11
REMARK    4  A    between atoms: C7_11  and  C8_12
REMARK                            x       y       z     vdW  Elec       q    Type
REMARK                         _______ _______ _______ _____ _____    ______ ____
ROOT
ATOM      1  C6  UNL     1      17.526  11.208  -2.146  0.00  0.00    +0.000 C 
ATOM      2  O1  UNL     1      18.277  11.118  -3.113  0.00  0.00    +0.000 OA
ATOM      3  N3  UNL     1      17.882  11.785  -0.947  0.00  0.00    +0.000 N 
ATOM      4  H6  UNL     1      17.149  12.035  -0.298  0.00  0.00    +0.000 HD
ENDROOT
BRANCH   1   5
ATOM      5  C5  UNL     1      16.097  10.703  -2.195  0.00  0.00    +0.000 C 
BRANCH   5  11
ATOM      6  C1  UNL     1      14.697  10.679  -4.299  0.00  0.00    +0.000 A 
ATOM      7  N1  UNL     1      13.963  11.260  -5.267  0.00  0.00    +0.000 NA
ATOM      8  C2  UNL     1      13.829  12.591  -5.177  0.00  0.00    +0.000 A 
ATOM      9  N2  UNL     1      14.348  13.373  -4.219  0.00  0.00    +0.000 NA
ATOM     10  C3  UNL     1      15.069  12.738  -3.276  0.00  0.00    +0.000 A 
ATOM     11  C4  UNL     1      15.292  11.375  -3.263  0.00  0.00    +0.000 A 
ENDBRANCH   5  11
ENDBRANCH   1   5
BRANCH   3  12
ATOM     12  C7  UNL     1      19.138  12.487  -0.794  0.00  0.00    +0.000 C 
BRANCH  12  13
ATOM     13  C8  UNL     1      18.904  13.863  -0.225  0.00  0.00    +0.000 A 
ATOM     14  C9  UNL     1      17.627  14.441  -0.278  0.00  0.00    +0.000 A 
ATOM     15  C10 UNL     1      17.396  15.699   0.278  0.00  0.00    +0.000 A 
ATOM     16  C11 UNL     1      18.435  16.392   0.894  0.00  0.00    +0.000 A 
ATOM     17  C12 UNL     1      19.708  15.826   0.957  0.00  0.00    +0.000 A 
ATOM     18  C13 UNL     1      19.941  14.566   0.403  0.00  0.00    +0.000 A 
ENDBRANCH  12  13
ENDBRANCH   3  12
TORSDOF 4
ENDMDL
MODEL 4
REMARK VINA RESULT:    -5.062     13.774     16.301
REMARK INTER + INTRA:          -6.589
REMARK INTER:                  -6.196
REMARK INTRA:                  -0.394
REMARK UNBOUND:                -0.343
REMARK  Name = /home/anacleto/Desktop/manuscript_Mpro/naturecomm/supplementary_file_S2/6-chemical-library/molecular_docking/3D_ligand_structure/628.pdb
REMARK  4 active torsions:
REMARK  status: ('A' for Active; 'I' for Inactive)
REMARK    1  A    between atoms: C4_6  and  C5_7
REMARK    2  A    between atoms: C5_7  and  C6_8
REMARK    3  A    between atoms: N3_10  and  C7_11
REMARK    4  A    between atoms: C7_11  and  C8_12
REMARK                            x       y       z     vdW  Elec       q    Type
REMARK                         _______ _______ _______ _____ _____    ______ ____
ROOT
ATOM      1  C6  UNL     1      17.410  11.586  -2.321  0.00  0.00    +0.000 C 
ATOM      2  O1  UNL     1      18.152  10.616  -2.441  0.00  0.00    +0.000 OA
ATOM      3  N3  UNL     1      16.890  12.293  -3.383  0.00  0.00    +0.000 N 
ATOM      4  H6  UNL     1      16.110  12.912  -3.211  0.00  0.00    +0.000 HD
ENDROOT
BRANCH   1   5
ATOM      5  C5  UNL     1      16.968  12.090  -0.960  0.00  0.00    +0.000 C 
BRANCH   5  11
ATOM      6  C1  UNL     1      17.250  14.492  -0.225  0.00  0.00    +0.000 A 
ATOM      7  N1  UNL     1      17.970  15.544   0.208  0.00  0.00    +0.000 NA
ATOM      8  C2  UNL     1      19.280  15.322   0.384  0.00  0.00    +0.000 A 
ATOM      9  N2  UNL     1      19.919  14.161   0.174  0.00  0.00    +0.000 NA
ATOM     10  C3  UNL     1      19.149  13.142  -0.255  0.00  0.00    +0.000 A 
ATOM     11  C4  UNL     1      17.791  13.246  -0.486  0.00  0.00    +0.000 A 
ENDBRANCH   5  11
ENDBRANCH   1   5
BRANCH   3  12
ATOM     12  C7  UNL     1      17.053  11.831  -4.744  0.00  0.00    +0.000 C 
BRANCH  12  13
ATOM     13  C8  UNL     1      15.715  11.484  -5.344  0.00  0.00    +0.000 A 
ATOM     14  C9  UNL     1      15.509  11.601  -6.727  0.00  0.00    +0.000 A 
ATOM     15  C10 UNL     1      14.284  11.247  -7.293  0.00  0.00    +0.000 A 
ATOM     16  C11 UNL     1      13.253  10.772  -6.486  0.00  0.00    +0.000 A 
ATOM     17  C12 UNL     1      13.447  10.647  -5.111  0.00  0.00    +0.000 A 
ATOM     18  C13 UNL     1      14.673  10.998  -4.542  0.00  0.00    +0.000 A 
ENDBRANCH  12  13
ENDBRANCH   3  12
TORSDOF 4
ENDMDL
MODEL 5
REMARK VINA RESULT:    -5.017      1.747      7.394
REMARK INTER + INTRA:          -6.533
REMARK INTER:                  -6.168
REMARK INTRA:                  -0.364
REMARK UNBOUND:                -0.343
REMARK  Name = /home/anacleto/Desktop/manuscript_Mpro/naturecomm/supplementary_file_S2/6-chemical-library/molecular_docking/3D_ligand_structure/628.pdb
REMARK  4 active torsions:
REMARK  status: ('A' for Active; 'I' for Inactive)
REMARK    1  A    between atoms: C4_6  and  C5_7
REMARK    2  A    between atoms: C5_7  and  C6_8
REMARK    3  A    between atoms: N3_10  and  C7_11
REMARK    4  A    between atoms: C7_11  and  C8_12
REMARK                            x       y       z     vdW  Elec       q    Type
REMARK                         _______ _______ _______ _____ _____    ______ ____
ROOT
ATOM      1  C6  UNL     1      17.858   3.524   9.531  0.00  0.00    +0.000 C 
ATOM      2  O1  UNL     1      17.292   3.811  10.581  0.00  0.00    +0.000 OA
ATOM      3  N3  UNL     1      17.211   3.038   8.416  0.00  0.00    +0.000 N 
ATOM      4  H6  UNL     1      17.698   3.057   7.531  0.00  0.00    +0.000 HD
ENDROOT
BRANCH   1   5
ATOM      5  C5  UNL     1      19.353   3.708   9.352  0.00  0.00    +0.000 C 
BRANCH   5  11
ATOM      6  C1  UNL     1      20.818   5.682   9.938  0.00  0.00    +0.000 A 
ATOM      7  N1  UNL     1      21.191   6.974   9.860  0.00  0.00    +0.000 NA
ATOM      8  C2  UNL     1      20.445   7.748   9.058  0.00  0.00    +0.000 A 
ATOM      9  N2  UNL     1      19.386   7.349   8.338  0.00  0.00    +0.000 NA
ATOM     10  C3  UNL     1      19.062   6.047   8.452  0.00  0.00    +0.000 A 
ATOM     11  C4  UNL     1      19.741   5.150   9.253  0.00  0.00    +0.000 A 
ENDBRANCH   5  11
ENDBRANCH   1   5
BRANCH   3  12
ATOM     12  C7  UNL     1      15.766   2.985   8.349  0.00  0.00    +0.000 C 
BRANCH  12  13
ATOM     13  C8  UNL     1      15.302   1.566   8.144  0.00  0.00    +0.000 A 
ATOM     14  C9  UNL     1      16.172   0.610   7.600  0.00  0.00    +0.000 A 
ATOM     15  C10 UNL     1      15.760  -0.713   7.440  0.00  0.00    +0.000 A 
ATOM     16  C11 UNL     1      14.476  -1.095   7.824  0.00  0.00    +0.000 A 
ATOM     17  C12 UNL     1      13.604  -0.155   8.371  0.00  0.00    +0.000 A 
ATOM     18  C13 UNL     1      14.015   1.169   8.534  0.00  0.00    +0.000 A 
ENDBRANCH  12  13
ENDBRANCH   3  12
TORSDOF 4
ENDMDL
MODEL 6
REMARK VINA RESULT:    -4.906     14.527     15.408
REMARK INTER + INTRA:          -6.396
REMARK INTER:                  -5.992
REMARK INTRA:                  -0.404
REMARK UNBOUND:                -0.343
REMARK  Name = /home/anacleto/Desktop/manuscript_Mpro/naturecomm/supplementary_file_S2/6-chemical-library/molecular_docking/3D_ligand_structure/628.pdb
REMARK  4 active torsions:
REMARK  status: ('A' for Active; 'I' for Inactive)
REMARK    1  A    between atoms: C4_6  and  C5_7
REMARK    2  A    between atoms: C5_7  and  C6_8
REMARK    3  A    between atoms: N3_10  and  C7_11
REMARK    4  A    between atoms: C7_11  and  C8_12
REMARK                            x       y       z     vdW  Elec       q    Type
REMARK                         _______ _______ _______ _____ _____    ______ ____
ROOT
ATOM      1  C6  UNL     1      16.717  13.211  -3.444  0.00  0.00    +0.000 C 
ATOM      2  O1  UNL     1      16.543  14.300  -3.984  0.00  0.00    +0.000 OA
ATOM      3  N3  UNL     1      16.742  13.025  -2.080  0.00  0.00    +0.000 N 
ATOM      4  H6  UNL     1      16.648  12.084  -1.721  0.00  0.00    +0.000 HD
ENDROOT
BRANCH   1   5
ATOM      5  C5  UNL     1      16.900  11.939  -4.250  0.00  0.00    +0.000 C 
BRANCH   5  11
ATOM      6  C1  UNL     1      15.521  11.710  -6.355  0.00  0.00    +0.000 A 
ATOM      7  N1  UNL     1      14.416  11.360  -7.042  0.00  0.00    +0.000 NA
ATOM      8  C2  UNL     1      13.422  10.831  -6.316  0.00  0.00    +0.000 A 
ATOM      9  N2  UNL     1      13.438  10.617  -4.992  0.00  0.00    +0.000 NA
ATOM     10  C3  UNL     1      14.569  10.982  -4.357  0.00  0.00    +0.000 A 
ATOM     11  C4  UNL     1      15.658  11.550  -4.989  0.00  0.00    +0.000 A 
ENDBRANCH   5  11
ENDBRANCH   1   5
BRANCH   3  12
ATOM     12  C7  UNL     1      16.393  14.094  -1.169  0.00  0.00    +0.000 C 
BRANCH  12  13
ATOM     13  C8  UNL     1      17.611  14.558  -0.412  0.00  0.00    +0.000 A 
ATOM     14  C9  UNL     1      18.781  13.785  -0.416  0.00  0.00    +0.000 A 
ATOM     15  C10 UNL     1      19.923  14.225   0.253  0.00  0.00    +0.000 A 
ATOM     16  C11 UNL     1      19.909  15.442   0.931  0.00  0.00    +0.000 A 
ATOM     17  C12 UNL     1      18.753  16.222   0.938  0.00  0.00    +0.000 A 
ATOM     18  C13 UNL     1      17.610  15.784   0.267  0.00  0.00    +0.000 A 
ENDBRANCH  12  13
ENDBRANCH   3  12
TORSDOF 4
ENDMDL
MODEL 7
REMARK VINA RESULT:    -4.726     14.834     16.986
REMARK INTER + INTRA:          -6.175
REMARK INTER:                  -5.860
REMARK INTRA:                  -0.314
REMARK UNBOUND:                -0.343
REMARK  Name = /home/anacleto/Desktop/manuscript_Mpro/naturecomm/supplementary_file_S2/6-chemical-library/molecular_docking/3D_ligand_structure/628.pdb
REMARK  4 active torsions:
REMARK  status: ('A' for Active; 'I' for Inactive)
REMARK    1  A    between atoms: C4_6  and  C5_7
REMARK    2  A    between atoms: C5_7  and  C6_8
REMARK    3  A    between atoms: N3_10  and  C7_11
REMARK    4  A    between atoms: C7_11  and  C8_12
REMARK                            x       y       z     vdW  Elec       q    Type
REMARK                         _______ _______ _______ _____ _____    ______ ____
ROOT
ATOM      1  C6  UNL     1      16.095  13.742  -1.547  0.00  0.00    +0.000 C 
ATOM      2  O1  UNL     1      16.762  13.008  -0.823  0.00  0.00    +0.000 OA
ATOM      3  N3  UNL     1      15.395  13.304  -2.650  0.00  0.00    +0.000 N 
ATOM      4  H6  UNL     1      14.689  13.912  -3.042  0.00  0.00    +0.000 HD
ENDROOT
BRANCH   1   5
ATOM      5  C5  UNL     1      15.959  15.227  -1.271  0.00  0.00    +0.000 C 
BRANCH   5  11
ATOM      6  C1  UNL     1      18.341  16.069  -1.328  0.00  0.00    +0.000 A 
ATOM      7  N1  UNL     1      19.450  16.591  -0.771  0.00  0.00    +0.000 NA
ATOM      8  C2  UNL     1      19.375  16.851   0.542  0.00  0.00    +0.000 A 
ATOM      9  N2  UNL     1      18.308  16.644   1.328  0.00  0.00    +0.000 NA
ATOM     10  C3  UNL     1      17.226  16.124   0.717  0.00  0.00    +0.000 A 
ATOM     11  C4  UNL     1      17.181  15.801  -0.626  0.00  0.00    +0.000 A 
ENDBRANCH   5  11
ENDBRANCH   1   5
BRANCH   3  12
ATOM     12  C7  UNL     1      15.260  11.894  -2.943  0.00  0.00    +0.000 C 
BRANCH  12  13
ATOM     13  C8  UNL     1      14.868  11.692  -4.384  0.00  0.00    +0.000 A 
ATOM     14  C9  UNL     1      13.900  10.737  -4.726  0.00  0.00    +0.000 A 
ATOM     15  C10 UNL     1      13.507  10.570  -6.054  0.00  0.00    +0.000 A 
ATOM     16  C11 UNL     1      14.076  11.355  -7.054  0.00  0.00    +0.000 A 
ATOM     17  C12 UNL     1      15.036  12.312  -6.726  0.00  0.00    +0.000 A 
ATOM     18  C13 UNL     1      15.428  12.483  -5.398  0.00  0.00    +0.000 A 
ENDBRANCH  12  13
ENDBRANCH   3  12
TORSDOF 4
ENDMDL
MODEL 8
REMARK VINA RESULT:    -4.676     16.197     17.666
REMARK INTER + INTRA:          -6.113
REMARK INTER:                  -5.704
REMARK INTRA:                  -0.409
REMARK UNBOUND:                -0.343
REMARK  Name = /home/anacleto/Desktop/manuscript_Mpro/naturecomm/supplementary_file_S2/6-chemical-library/molecular_docking/3D_ligand_structure/628.pdb
REMARK  4 active torsions:
REMARK  status: ('A' for Active; 'I' for Inactive)
REMARK    1  A    between atoms: C4_6  and  C5_7
REMARK    2  A    between atoms: C5_7  and  C6_8
REMARK    3  A    between atoms: N3_10  and  C7_11
REMARK    4  A    between atoms: C7_11  and  C8_12
REMARK                            x       y       z     vdW  Elec       q    Type
REMARK                         _______ _______ _______ _____ _____    ______ ____
ROOT
ATOM      1  C6  UNL     1      19.492  10.255  -5.483  0.00  0.00    +0.000 C 
ATOM      2  O1  UNL     1      20.128  11.285  -5.683  0.00  0.00    +0.000 OA
ATOM      3  N3  UNL     1      18.197  10.229  -5.015  0.00  0.00    +0.000 N 
ATOM      4  H6  UNL     1      17.670   9.371  -5.107  0.00  0.00    +0.000 HD
ENDROOT
BRANCH   1   5
ATOM      5  C5  UNL     1      20.081   8.885  -5.764  0.00  0.00    +0.000 C 
BRANCH   5  11
ATOM      6  C1  UNL     1      19.175   8.618  -8.108  0.00  0.00    +0.000 A 
ATOM      7  N1  UNL     1      19.296   8.393  -9.430  0.00  0.00    +0.000 NA
ATOM      8  C2  UNL     1      20.542   8.169  -9.871  0.00  0.00    +0.000 A 
ATOM      9  N2  UNL     1      21.655   8.159  -9.122  0.00  0.00    +0.000 NA
ATOM     10  C3  UNL     1      21.474   8.394  -7.808  0.00  0.00    +0.000 A 
ATOM     11  C4  UNL     1      20.242   8.624  -7.229  0.00  0.00    +0.000 A 
ENDBRANCH   5  11
ENDBRANCH   1   5
BRANCH   3  12
ATOM     12  C7  UNL     1      17.422  11.443  -4.880  0.00  0.00    +0.000 C 
BRANCH  12  13
ATOM     13  C8  UNL     1      16.032  11.243  -5.428  0.00  0.00    +0.000 A 
ATOM     14  C9  UNL     1      14.990  10.841  -4.580  0.00  0.00    +0.000 A 
ATOM     15  C10 UNL     1      13.694  10.688  -5.074  0.00  0.00    +0.000 A 
ATOM     16  C11 UNL     1      13.426  10.936  -6.418  0.00  0.00    +0.000 A 
ATOM     17  C12 UNL     1      14.452  11.341  -7.270  0.00  0.00    +0.000 A 
ATOM     18  C13 UNL     1      15.749  11.497  -6.777  0.00  0.00    +0.000 A 
ENDBRANCH  12  13
ENDBRANCH   3  12
TORSDOF 4
ENDMDL
MODEL 9
REMARK VINA RESULT:    -4.670      5.327      7.597
REMARK INTER + INTRA:          -6.105
REMARK INTER:                  -5.761
REMARK INTRA:                  -0.343
REMARK UNBOUND:                -0.343
REMARK  Name = /home/anacleto/Desktop/manuscript_Mpro/naturecomm/supplementary_file_S2/6-chemical-library/molecular_docking/3D_ligand_structure/628.pdb
REMARK  4 active torsions:
REMARK  status: ('A' for Active; 'I' for Inactive)
REMARK    1  A    between atoms: C4_6  and  C5_7
REMARK    2  A    between atoms: C5_7  and  C6_8
REMARK    3  A    between atoms: N3_10  and  C7_11
REMARK    4  A    between atoms: C7_11  and  C8_12
REMARK                            x       y       z     vdW  Elec       q    Type
REMARK                         _______ _______ _______ _____ _____    ______ ____
ROOT
ATOM      1  C6  UNL     1      22.192   3.402   8.904  0.00  0.00    +0.000 C 
ATOM      2  O1  UNL     1      22.901   2.816   9.717  0.00  0.00    +0.000 OA
ATOM      3  N3  UNL     1      22.610   3.769   7.644  0.00  0.00    +0.000 N 
ATOM      4  H6  UNL     1      21.910   4.024   6.961  0.00  0.00    +0.000 HD
ENDROOT
BRANCH   1   5
ATOM      5  C5  UNL     1      20.751   3.761   9.212  0.00  0.00    +0.000 C 
BRANCH   5  11
ATOM      6  C1  UNL     1      21.348   6.189   9.575  0.00  0.00    +0.000 A 
ATOM      7  N1  UNL     1      21.137   7.515   9.460  0.00  0.00    +0.000 NA
ATOM      8  C2  UNL     1      20.017   7.872   8.816  0.00  0.00    +0.000 A 
ATOM      9  N2  UNL     1      19.112   7.037   8.282  0.00  0.00    +0.000 NA
ATOM     10  C3  UNL     1      19.377   5.724   8.424  0.00  0.00    +0.000 A 
ATOM     11  C4  UNL     1      20.488   5.228   9.077  0.00  0.00    +0.000 A 
ENDBRANCH   5  11
ENDBRANCH   1   5
BRANCH   3  12
ATOM     12  C7  UNL     1      23.886   3.334   7.119  0.00  0.00    +0.000 C 
BRANCH  12  13
ATOM     13  C8  UNL     1      23.696   2.602   5.816  0.00  0.00    +0.000 A 
ATOM     14  C9  UNL     1      24.068   3.206   4.605  0.00  0.00    +0.000 A 
ATOM     15  C10 UNL     1      23.927   2.520   3.399  0.00  0.00    +0.000 A 
ATOM     16  C11 UNL     1      23.415   1.224   3.388  0.00  0.00    +0.000 A 
ATOM     17  C12 UNL     1      23.046   0.612   4.585  0.00  0.00    +0.000 A 
ATOM     18  C13 UNL     1      23.189   1.295   5.794  0.00  0.00    +0.000 A 
ENDBRANCH  12  13
ENDBRANCH   3  12
TORSDOF 4
ENDMDL
