MODEL 1
REMARK VINA RESULT:    -4.988      0.000      0.000
REMARK INTER + INTRA:          -5.367
REMARK INTER:                  -5.321
REMARK INTRA:                  -0.047
REMARK UNBOUND:                -0.088
REMARK  Name = /home/anacleto/Desktop/manuscript_Mpro/naturecomm/supplementary_file_S2/6-chemical-library/molecular_docking/3D_ligand_structure/781.pdb
REMARK  1 active torsions:
REMARK  status: ('A' for Active; 'I' for Inactive)
REMARK    1  A    between atoms: C5_7  and  C6_9
REMARK                            x       y       z     vdW  Elec       q    Type
REMARK                         _______ _______ _______ _____ _____    ______ ____
ROOT
ATOM      1  C1  UNL     1     -22.545  -4.806 -25.181  0.00  0.00    +0.000 C 
ATOM      2  C2  UNL     1     -22.278  -4.669 -23.674  0.00  0.00    +0.000 C 
ATOM      3  N1  UNL     1     -22.769  -3.397 -23.119  0.00  0.00    +0.000 NA
ATOM      4  C3  UNL     1     -24.202  -3.254 -23.410  0.00  0.00    +0.000 C 
ATOM      5  C4  UNL     1     -24.521  -3.351 -24.913  0.00  0.00    +0.000 C 
ATOM      6  N2  UNL     1     -23.947  -4.556 -25.530  0.00  0.00    +0.000 N 
ATOM      7  C5  UNL     1     -24.396  -5.088 -26.732  0.00  0.00    +0.000 C 
ATOM      8  O1  UNL     1     -23.734  -5.850 -27.433  0.00  0.00    +0.000 OA
ATOM      9  H5  UNL     1     -22.626  -3.396 -22.109  0.00  0.00    +0.000 HD
ENDROOT
BRANCH   7  10
ATOM     10  C6  UNL     1     -25.767  -4.715 -27.164  0.00  0.00    +0.000 A 
ATOM     11  C7  UNL     1     -26.790  -5.326 -26.548  0.00  0.00    +0.000 A 
ATOM     12  C8  UNL     1     -28.174  -4.976 -26.947  0.00  0.00    +0.000 A 
ATOM     13  O2  UNL     1     -29.141  -5.524 -26.434  0.00  0.00    +0.000 OA
ATOM     14  N3  UNL     1     -28.297  -4.018 -27.927  0.00  0.00    +0.000 N 
ATOM     15  C9  UNL     1     -27.238  -3.386 -28.525  0.00  0.00    +0.000 A 
ATOM     16  C10 UNL     1     -25.985  -3.702 -28.174  0.00  0.00    +0.000 A 
ATOM     17  H11 UNL     1     -29.247  -3.778 -28.184  0.00  0.00    +0.000 HD
ENDBRANCH   7  10
TORSDOF 1
ENDMDL
MODEL 2
REMARK VINA RESULT:    -4.890      1.783      2.686
REMARK INTER + INTRA:          -5.264
REMARK INTER:                  -5.180
REMARK INTRA:                  -0.084
REMARK UNBOUND:                -0.088
REMARK  Name = /home/anacleto/Desktop/manuscript_Mpro/naturecomm/supplementary_file_S2/6-chemical-library/molecular_docking/3D_ligand_structure/781.pdb
REMARK  1 active torsions:
REMARK  status: ('A' for Active; 'I' for Inactive)
REMARK    1  A    between atoms: C5_7  and  C6_9
REMARK                            x       y       z     vdW  Elec       q    Type
REMARK                         _______ _______ _______ _____ _____    ______ ____
ROOT
ATOM      1  C1  UNL     1     -22.444  -4.796 -25.877  0.00  0.00    +0.000 C 
ATOM      2  C2  UNL     1     -21.252  -5.199 -26.761  0.00  0.00    +0.000 C 
ATOM      3  N1  UNL     1     -21.473  -6.466 -27.476  0.00  0.00    +0.000 NA
ATOM      4  C3  UNL     1     -22.705  -6.374 -28.271  0.00  0.00    +0.000 C 
ATOM      5  C4  UNL     1     -23.939  -6.004 -27.426  0.00  0.00    +0.000 C 
ATOM      6  N2  UNL     1     -23.715  -4.804 -26.607  0.00  0.00    +0.000 N 
ATOM      7  C5  UNL     1     -24.745  -4.037 -26.077  0.00  0.00    +0.000 C 
ATOM      8  O1  UNL     1     -24.607  -3.269 -25.127  0.00  0.00    +0.000 OA
ATOM      9  H5  UNL     1     -20.683  -6.643 -28.095  0.00  0.00    +0.000 HD
ENDROOT
BRANCH   7  10
ATOM     10  C6  UNL     1     -26.077  -4.156 -26.723  0.00  0.00    +0.000 A 
ATOM     11  C7  UNL     1     -26.984  -4.936 -26.116  0.00  0.00    +0.000 A 
ATOM     12  C8  UNL     1     -28.327  -5.075 -26.727  0.00  0.00    +0.000 A 
ATOM     13  O2  UNL     1     -29.181  -5.796 -26.226  0.00  0.00    +0.000 OA
ATOM     14  N3  UNL     1     -28.543  -4.360 -27.882  0.00  0.00    +0.000 N 
ATOM     15  C9  UNL     1     -27.611  -3.546 -28.471  0.00  0.00    +0.000 A 
ATOM     16  C10 UNL     1     -26.393  -3.422 -27.929  0.00  0.00    +0.000 A 
ATOM     17  H11 UNL     1     -29.468  -4.453 -28.285  0.00  0.00    +0.000 HD
ENDBRANCH   7  10
TORSDOF 1
ENDMDL
MODEL 3
REMARK VINA RESULT:    -4.634      4.309      7.485
REMARK INTER + INTRA:          -4.993
REMARK INTER:                  -4.907
REMARK INTRA:                  -0.086
REMARK UNBOUND:                -0.088
REMARK  Name = /home/anacleto/Desktop/manuscript_Mpro/naturecomm/supplementary_file_S2/6-chemical-library/molecular_docking/3D_ligand_structure/781.pdb
REMARK  1 active torsions:
REMARK  status: ('A' for Active; 'I' for Inactive)
REMARK    1  A    between atoms: C5_7  and  C6_9
REMARK                            x       y       z     vdW  Elec       q    Type
REMARK                         _______ _______ _______ _____ _____    ______ ____
ROOT
ATOM      1  C1  UNL     1     -22.089  -4.548 -28.631  0.00  0.00    +0.000 C 
ATOM      2  C2  UNL     1     -23.366  -3.787 -28.241  0.00  0.00    +0.000 C 
ATOM      3  N1  UNL     1     -23.939  -4.248 -26.965  0.00  0.00    +0.000 NA
ATOM      4  C3  UNL     1     -22.926  -4.145 -25.905  0.00  0.00    +0.000 C 
ATOM      5  C4  UNL     1     -21.635  -4.918 -26.233  0.00  0.00    +0.000 C 
ATOM      6  N2  UNL     1     -21.093  -4.568 -27.555  0.00  0.00    +0.000 N 
ATOM      7  C5  UNL     1     -19.775  -4.798 -27.926  0.00  0.00    +0.000 C 
ATOM      8  O1  UNL     1     -19.393  -4.851 -29.093  0.00  0.00    +0.000 OA
ATOM      9  H5  UNL     1     -24.739  -3.662 -26.727  0.00  0.00    +0.000 HD
ENDROOT
BRANCH   7  10
ATOM     10  C6  UNL     1     -18.785  -4.969 -26.833  0.00  0.00    +0.000 A 
ATOM     11  C7  UNL     1     -18.345  -6.214 -26.596  0.00  0.00    +0.000 A 
ATOM     12  C8  UNL     1     -17.351  -6.424 -25.516  0.00  0.00    +0.000 A 
ATOM     13  O2  UNL     1     -16.939  -7.545 -25.243  0.00  0.00    +0.000 OA
ATOM     14  N3  UNL     1     -16.939  -5.297 -24.845  0.00  0.00    +0.000 N 
ATOM     15  C9  UNL     1     -17.381  -4.029 -25.121  0.00  0.00    +0.000 A 
ATOM     16  C10 UNL     1     -18.284  -3.833 -26.090  0.00  0.00    +0.000 A 
ATOM     17  H11 UNL     1     -16.251  -5.450 -24.117  0.00  0.00    +0.000 HD
ENDBRANCH   7  10
TORSDOF 1
ENDMDL
MODEL 4
REMARK VINA RESULT:    -4.588      2.890      4.230
REMARK INTER + INTRA:          -4.945
REMARK INTER:                  -4.869
REMARK INTRA:                  -0.076
REMARK UNBOUND:                -0.088
REMARK  Name = /home/anacleto/Desktop/manuscript_Mpro/naturecomm/supplementary_file_S2/6-chemical-library/molecular_docking/3D_ligand_structure/781.pdb
REMARK  1 active torsions:
REMARK  status: ('A' for Active; 'I' for Inactive)
REMARK    1  A    between atoms: C5_7  and  C6_9
REMARK                            x       y       z     vdW  Elec       q    Type
REMARK                         _______ _______ _______ _____ _____    ______ ____
ROOT
ATOM      1  C1  UNL     1     -22.465  -5.424 -29.242  0.00  0.00    +0.000 C 
ATOM      2  C2  UNL     1     -22.136  -5.947 -30.650  0.00  0.00    +0.000 C 
ATOM      3  N1  UNL     1     -22.885  -7.166 -30.996  0.00  0.00    +0.000 NA
ATOM      4  C3  UNL     1     -24.326  -6.916 -30.856  0.00  0.00    +0.000 C 
ATOM      5  C4  UNL     1     -24.714  -6.420 -29.450  0.00  0.00    +0.000 C 
ATOM      6  N2  UNL     1     -23.906  -5.269 -29.020  0.00  0.00    +0.000 N 
ATOM      7  C5  UNL     1     -24.293  -4.398 -28.011  0.00  0.00    +0.000 C 
ATOM      8  O1  UNL     1     -23.514  -3.669 -27.401  0.00  0.00    +0.000 OA
ATOM      9  H5  UNL     1     -22.678  -7.423 -31.961  0.00  0.00    +0.000 HD
ENDROOT
BRANCH   7  10
ATOM     10  C6  UNL     1     -25.740  -4.348 -27.680  0.00  0.00    +0.000 A 
ATOM     11  C7  UNL     1     -26.148  -5.054 -26.615  0.00  0.00    +0.000 A 
ATOM     12  C8  UNL     1     -27.584  -5.024 -26.249  0.00  0.00    +0.000 A 
ATOM     13  O2  UNL     1     -28.011  -5.673 -25.302  0.00  0.00    +0.000 OA
ATOM     14  N3  UNL     1     -28.394  -4.241 -27.037  0.00  0.00    +0.000 N 
ATOM     15  C9  UNL     1     -27.951  -3.504 -28.106  0.00  0.00    +0.000 A 
ATOM     16  C10 UNL     1     -26.657  -3.532 -28.447  0.00  0.00    +0.000 A 
ATOM     17  H11 UNL     1     -29.371  -4.218 -26.772  0.00  0.00    +0.000 HD
ENDBRANCH   7  10
TORSDOF 1
ENDMDL
MODEL 5
REMARK VINA RESULT:    -4.508     14.143     16.875
REMARK INTER + INTRA:          -4.860
REMARK INTER:                  -4.802
REMARK INTRA:                  -0.058
REMARK UNBOUND:                -0.088
REMARK  Name = /home/anacleto/Desktop/manuscript_Mpro/naturecomm/supplementary_file_S2/6-chemical-library/molecular_docking/3D_ligand_structure/781.pdb
REMARK  1 active torsions:
REMARK  status: ('A' for Active; 'I' for Inactive)
REMARK    1  A    between atoms: C5_7  and  C6_9
REMARK                            x       y       z     vdW  Elec       q    Type
REMARK                         _______ _______ _______ _____ _____    ______ ____
ROOT
ATOM      1  C1  UNL     1     -31.048   3.672 -40.924  0.00  0.00    +0.000 C 
ATOM      2  C2  UNL     1     -31.824   4.992 -41.066  0.00  0.00    +0.000 C 
ATOM      3  N1  UNL     1     -32.022   5.680 -39.780  0.00  0.00    +0.000 NA
ATOM      4  C3  UNL     1     -30.719   5.907 -39.137  0.00  0.00    +0.000 C 
ATOM      5  C4  UNL     1     -29.914   4.609 -38.942  0.00  0.00    +0.000 C 
ATOM      6  N2  UNL     1     -29.793   3.833 -40.185  0.00  0.00    +0.000 N 
ATOM      7  C5  UNL     1     -28.818   2.865 -40.390  0.00  0.00    +0.000 C 
ATOM      8  O1  UNL     1     -28.902   1.978 -41.237  0.00  0.00    +0.000 OA
ATOM      9  H5  UNL     1     -32.477   6.577 -39.947  0.00  0.00    +0.000 HD
ENDROOT
BRANCH   7  10
ATOM     10  C6  UNL     1     -27.605   2.936 -39.536  0.00  0.00    +0.000 A 
ATOM     11  C7  UNL     1     -26.644   3.794 -39.909  0.00  0.00    +0.000 A 
ATOM     12  C8  UNL     1     -25.421   3.898 -39.079  0.00  0.00    +0.000 A 
ATOM     13  O2  UNL     1     -24.503   4.646 -39.392  0.00  0.00    +0.000 OA
ATOM     14  N3  UNL     1     -25.380   3.102 -37.958  0.00  0.00    +0.000 N 
ATOM     15  C9  UNL     1     -26.387   2.252 -37.579  0.00  0.00    +0.000 A 
ATOM     16  C10 UNL     1     -27.491   2.147 -38.328  0.00  0.00    +0.000 A 
ATOM     17  H11 UNL     1     -24.545   3.190 -37.391  0.00  0.00    +0.000 HD
ENDBRANCH   7  10
TORSDOF 1
ENDMDL
MODEL 6
REMARK VINA RESULT:    -4.479     15.678     17.019
REMARK INTER + INTRA:          -4.829
REMARK INTER:                  -4.779
REMARK INTRA:                  -0.050
REMARK UNBOUND:                -0.088
REMARK  Name = /home/anacleto/Desktop/manuscript_Mpro/naturecomm/supplementary_file_S2/6-chemical-library/molecular_docking/3D_ligand_structure/781.pdb
REMARK  1 active torsions:
REMARK  status: ('A' for Active; 'I' for Inactive)
REMARK    1  A    between atoms: C5_7  and  C6_9
REMARK                            x       y       z     vdW  Elec       q    Type
REMARK                         _______ _______ _______ _____ _____    ______ ____
ROOT
ATOM      1  C1  UNL     1     -22.229   8.733 -37.629  0.00  0.00    +0.000 C 
ATOM      2  C2  UNL     1     -22.854   9.873 -36.809  0.00  0.00    +0.000 C 
ATOM      3  N1  UNL     1     -23.944  10.560 -37.521  0.00  0.00    +0.000 NA
ATOM      4  C3  UNL     1     -24.966   9.581 -37.917  0.00  0.00    +0.000 C 
ATOM      5  C4  UNL     1     -24.397   8.432 -38.770  0.00  0.00    +0.000 C 
ATOM      6  N2  UNL     1     -23.231   7.793 -38.142  0.00  0.00    +0.000 N 
ATOM      7  C5  UNL     1     -22.782   6.523 -38.477  0.00  0.00    +0.000 C 
ATOM      8  O1  UNL     1     -21.646   6.115 -38.245  0.00  0.00    +0.000 OA
ATOM      9  H5  UNL     1     -24.362  11.255 -36.903  0.00  0.00    +0.000 HD
ENDROOT
BRANCH   7  10
ATOM     10  C6  UNL     1     -23.756   5.615 -39.136  0.00  0.00    +0.000 A 
ATOM     11  C7  UNL     1     -24.557   4.893 -38.338  0.00  0.00    +0.000 A 
ATOM     12  C8  UNL     1     -25.546   3.981 -38.959  0.00  0.00    +0.000 A 
ATOM     13  O2  UNL     1     -26.281   3.280 -38.274  0.00  0.00    +0.000 OA
ATOM     14  N3  UNL     1     -25.574   3.963 -40.334  0.00  0.00    +0.000 N 
ATOM     15  C9  UNL     1     -24.765   4.730 -41.132  0.00  0.00    +0.000 A 
ATOM     16  C10 UNL     1     -23.864   5.551 -40.578  0.00  0.00    +0.000 A 
ATOM     17  H11 UNL     1     -26.261   3.345 -40.748  0.00  0.00    +0.000 HD
ENDBRANCH   7  10
TORSDOF 1
ENDMDL
MODEL 7
REMARK VINA RESULT:    -4.464     14.888     16.389
REMARK INTER + INTRA:          -4.813
REMARK INTER:                  -4.727
REMARK INTRA:                  -0.086
REMARK UNBOUND:                -0.088
REMARK  Name = /home/anacleto/Desktop/manuscript_Mpro/naturecomm/supplementary_file_S2/6-chemical-library/molecular_docking/3D_ligand_structure/781.pdb
REMARK  1 active torsions:
REMARK  status: ('A' for Active; 'I' for Inactive)
REMARK    1  A    between atoms: C5_7  and  C6_9
REMARK                            x       y       z     vdW  Elec       q    Type
REMARK                         _______ _______ _______ _____ _____    ______ ____
ROOT
ATOM      1  C1  UNL     1     -23.822   8.214 -38.167  0.00  0.00    +0.000 C 
ATOM      2  C2  UNL     1     -22.380   8.744 -38.211  0.00  0.00    +0.000 C 
ATOM      3  N1  UNL     1     -21.427   7.867 -37.512  0.00  0.00    +0.000 NA
ATOM      4  C3  UNL     1     -21.502   6.511 -38.074  0.00  0.00    +0.000 C 
ATOM      5  C4  UNL     1     -22.924   5.920 -38.024  0.00  0.00    +0.000 C 
ATOM      6  N2  UNL     1     -23.925   6.821 -38.611  0.00  0.00    +0.000 N 
ATOM      7  C5  UNL     1     -25.172   6.396 -39.051  0.00  0.00    +0.000 C 
ATOM      8  O1  UNL     1     -26.134   7.145 -39.208  0.00  0.00    +0.000 OA
ATOM      9  H5  UNL     1     -20.483   8.232 -37.635  0.00  0.00    +0.000 HD
ENDROOT
BRANCH   7  10
ATOM     10  C6  UNL     1     -25.322   4.952 -39.361  0.00  0.00    +0.000 A 
ATOM     11  C7  UNL     1     -26.002   4.204 -38.479  0.00  0.00    +0.000 A 
ATOM     12  C8  UNL     1     -26.178   2.759 -38.757  0.00  0.00    +0.000 A 
ATOM     13  O2  UNL     1     -26.767   2.028 -37.969  0.00  0.00    +0.000 OA
ATOM     14  N3  UNL     1     -25.636   2.297 -39.933  0.00  0.00    +0.000 N 
ATOM     15  C9  UNL     1     -24.968   3.085 -40.836  0.00  0.00    +0.000 A 
ATOM     16  C10 UNL     1     -24.798   4.389 -40.588  0.00  0.00    +0.000 A 
ATOM     17  H11 UNL     1     -25.772   1.311 -40.119  0.00  0.00    +0.000 HD
ENDBRANCH   7  10
TORSDOF 1
ENDMDL
MODEL 8
REMARK VINA RESULT:    -4.462     18.147     19.425
REMARK INTER + INTRA:          -4.811
REMARK INTER:                  -4.753
REMARK INTRA:                  -0.058
REMARK UNBOUND:                -0.088
REMARK  Name = /home/anacleto/Desktop/manuscript_Mpro/naturecomm/supplementary_file_S2/6-chemical-library/molecular_docking/3D_ligand_structure/781.pdb
REMARK  1 active torsions:
REMARK  status: ('A' for Active; 'I' for Inactive)
REMARK    1  A    between atoms: C5_7  and  C6_9
REMARK                            x       y       z     vdW  Elec       q    Type
REMARK                         _______ _______ _______ _____ _____    ______ ____
ROOT
ATOM      1  C1  UNL     1     -23.412   9.815 -37.186  0.00  0.00    +0.000 C 
ATOM      2  C2  UNL     1     -24.753   9.898 -37.933  0.00  0.00    +0.000 C 
ATOM      3  N1  UNL     1     -24.671  10.696 -39.168  0.00  0.00    +0.000 NA
ATOM      4  C3  UNL     1     -23.621  10.148 -40.038  0.00  0.00    +0.000 C 
ATOM      5  C4  UNL     1     -22.247  10.073 -39.346  0.00  0.00    +0.000 C 
ATOM      6  N2  UNL     1     -22.310   9.382 -38.050  0.00  0.00    +0.000 N 
ATOM      7  C5  UNL     1     -21.201   8.834 -37.421  0.00  0.00    +0.000 C 
ATOM      8  O1  UNL     1     -21.152   8.577 -36.220  0.00  0.00    +0.000 OA
ATOM      9  H5  UNL     1     -25.567  10.656 -39.652  0.00  0.00    +0.000 HD
ENDROOT
BRANCH   7  10
ATOM     10  C6  UNL     1     -20.022   8.531 -38.273  0.00  0.00    +0.000 A 
ATOM     11  C7  UNL     1     -20.045   7.380 -38.962  0.00  0.00    +0.000 A 
ATOM     12  C8  UNL     1     -18.890   7.046 -39.828  0.00  0.00    +0.000 A 
ATOM     13  O2  UNL     1     -18.850   5.995 -40.457  0.00  0.00    +0.000 OA
ATOM     14  N3  UNL     1     -17.876   7.974 -39.870  0.00  0.00    +0.000 N 
ATOM     15  C9  UNL     1     -17.885   9.158 -39.179  0.00  0.00    +0.000 A 
ATOM     16  C10 UNL     1     -18.921   9.463 -38.389  0.00  0.00    +0.000 A 
ATOM     17  H11 UNL     1     -17.096   7.741 -40.474  0.00  0.00    +0.000 HD
ENDBRANCH   7  10
TORSDOF 1
ENDMDL
MODEL 9
REMARK VINA RESULT:    -4.388      2.881      5.401
REMARK INTER + INTRA:          -4.732
REMARK INTER:                  -4.644
REMARK INTRA:                  -0.088
REMARK UNBOUND:                -0.088
REMARK  Name = /home/anacleto/Desktop/manuscript_Mpro/naturecomm/supplementary_file_S2/6-chemical-library/molecular_docking/3D_ligand_structure/781.pdb
REMARK  1 active torsions:
REMARK  status: ('A' for Active; 'I' for Inactive)
REMARK    1  A    between atoms: C5_7  and  C6_9
REMARK                            x       y       z     vdW  Elec       q    Type
REMARK                         _______ _______ _______ _____ _____    ______ ____
ROOT
ATOM      1  C1  UNL     1     -26.819  -3.331 -28.466  0.00  0.00    +0.000 C 
ATOM      2  C2  UNL     1     -27.989  -3.217 -27.475  0.00  0.00    +0.000 C 
ATOM      3  N1  UNL     1     -28.336  -4.503 -26.849  0.00  0.00    +0.000 NA
ATOM      4  C3  UNL     1     -27.149  -5.067 -26.192  0.00  0.00    +0.000 C 
ATOM      5  C4  UNL     1     -25.954  -5.232 -27.151  0.00  0.00    +0.000 C 
ATOM      6  N2  UNL     1     -25.649  -3.994 -27.883  0.00  0.00    +0.000 N 
ATOM      7  C5  UNL     1     -24.424  -3.746 -28.487  0.00  0.00    +0.000 C 
ATOM      8  O1  UNL     1     -24.256  -2.916 -29.378  0.00  0.00    +0.000 OA
ATOM      9  H5  UNL     1     -29.067  -4.351 -26.155  0.00  0.00    +0.000 HD
ENDROOT
BRANCH   7  10
ATOM     10  C6  UNL     1     -23.259  -4.527 -27.999  0.00  0.00    +0.000 A 
ATOM     11  C7  UNL     1     -22.844  -5.548 -28.764  0.00  0.00    +0.000 A 
ATOM     12  C8  UNL     1     -21.680  -6.347 -28.313  0.00  0.00    +0.000 A 
ATOM     13  O2  UNL     1     -21.279  -7.306 -28.962  0.00  0.00    +0.000 OA
ATOM     14  N3  UNL     1     -21.097  -5.956 -27.131  0.00  0.00    +0.000 N 
ATOM     15  C9  UNL     1     -21.521  -4.892 -26.378  0.00  0.00    +0.000 A 
ATOM     16  C10 UNL     1     -22.576  -4.169 -26.774  0.00  0.00    +0.000 A 
ATOM     17  H11 UNL     1     -20.296  -6.502 -26.838  0.00  0.00    +0.000 HD
ENDBRANCH   7  10
TORSDOF 1
ENDMDL
