MODEL 1
REMARK VINA RESULT:    -5.039      0.000      0.000
REMARK INTER + INTRA:          -6.247
REMARK INTER:                  -6.011
REMARK INTRA:                  -0.236
REMARK UNBOUND:                -0.324
REMARK  Name = /home/anacleto/Desktop/manuscript_Mpro/naturecomm/supplementary_file_S2/6-chemical-library/molecular_docking/3D_ligand_structure/901.pdb
REMARK  3 active torsions:
REMARK  status: ('A' for Active; 'I' for Inactive)
REMARK    1  A    between atoms: C5_5  and  C6_6
REMARK    2  A    between atoms: N1_8  and  C7_9
REMARK    3  A    between atoms: C7_9  and  C8_10
REMARK                            x       y       z     vdW  Elec       q    Type
REMARK                         _______ _______ _______ _____ _____    ______ ____
ROOT
ATOM      1  C6  UNL     1      14.827  13.299  -4.373  0.00  0.00    +0.000 C 
ATOM      2  O1  UNL     1      15.259  14.198  -5.090  0.00  0.00    +0.000 OA
ATOM      3  N1  UNL     1      14.557  13.471  -3.037  0.00  0.00    +0.000 N 
ATOM      4  H10 UNL     1      14.269  12.677  -2.479  0.00  0.00    +0.000 HD
ENDROOT
BRANCH   1   9
ATOM      5  C1  UNL     1      15.520  11.529  -6.076  0.00  0.00    +0.000 C 
ATOM      6  C2  UNL     1      14.631  11.414  -7.306  0.00  0.00    +0.000 C 
ATOM      7  C3  UNL     1      13.308  10.926  -6.744  0.00  0.00    +0.000 C 
ATOM      8  C4  UNL     1      13.153  11.719  -5.454  0.00  0.00    +0.000 C 
ATOM      9  C5  UNL     1      14.580  11.899  -4.919  0.00  0.00    +0.000 C 
ENDBRANCH   1   9
BRANCH   3  10
ATOM     10  C7  UNL     1      14.792  14.729  -2.350  0.00  0.00    +0.000 C 
BRANCH  10  11
ATOM     11  C8  UNL     1      13.563  15.655  -2.378  0.00  0.00    +0.000 C 
ATOM     12  C9  UNL     1      12.772  15.681  -1.077  0.00  0.00    +0.000 C 
ATOM     13  C10 UNL     1      12.006  16.993  -1.137  0.00  0.00    +0.000 C 
ATOM     14  C11 UNL     1      12.705  17.815  -2.210  0.00  0.00    +0.000 C 
ATOM     15  N2  UNL     1      13.923  17.076  -2.565  0.00  0.00    +0.000 NA
ATOM     16  H20 UNL     1      14.647  17.316  -1.884  0.00  0.00    +0.000 HD
ENDBRANCH  10  11
ENDBRANCH   3  10
TORSDOF 3
ENDMDL
MODEL 2
REMARK VINA RESULT:    -4.999     16.100     17.498
REMARK INTER + INTRA:          -6.199
REMARK INTER:                  -6.007
REMARK INTRA:                  -0.193
REMARK UNBOUND:                -0.324
REMARK  Name = /home/anacleto/Desktop/manuscript_Mpro/naturecomm/supplementary_file_S2/6-chemical-library/molecular_docking/3D_ligand_structure/901.pdb
REMARK  3 active torsions:
REMARK  status: ('A' for Active; 'I' for Inactive)
REMARK    1  A    between atoms: C5_5  and  C6_6
REMARK    2  A    between atoms: N1_8  and  C7_9
REMARK    3  A    between atoms: C7_9  and  C8_10
REMARK                            x       y       z     vdW  Elec       q    Type
REMARK                         _______ _______ _______ _____ _____    ______ ____
ROOT
ATOM      1  C6  UNL     1      18.675   4.662   9.285  0.00  0.00    +0.000 C 
ATOM      2  O1  UNL     1      19.141   4.266  10.350  0.00  0.00    +0.000 OA
ATOM      3  N1  UNL     1      17.484   4.205   8.773  0.00  0.00    +0.000 N 
ATOM      4  H10 UNL     1      17.182   4.515   7.859  0.00  0.00    +0.000 HD
ENDROOT
BRANCH   1   9
ATOM      5  C1  UNL     1      20.935   5.614   8.580  0.00  0.00    +0.000 C 
ATOM      6  C2  UNL     1      21.341   6.916   9.258  0.00  0.00    +0.000 C 
ATOM      7  C3  UNL     1      20.317   7.915   8.752  0.00  0.00    +0.000 C 
ATOM      8  C4  UNL     1      19.013   7.129   8.770  0.00  0.00    +0.000 C 
ATOM      9  C5  UNL     1      19.408   5.686   8.429  0.00  0.00    +0.000 C 
ENDBRANCH   1   9
BRANCH   3  10
ATOM     10  C7  UNL     1      16.689   3.187   9.438  0.00  0.00    +0.000 C 
BRANCH  10  11
ATOM     11  C8  UNL     1      15.813   2.388   8.457  0.00  0.00    +0.000 C 
ATOM     12  C9  UNL     1      16.484   1.141   7.897  0.00  0.00    +0.000 C 
ATOM     13  C10 UNL     1      15.322   0.271   7.442  0.00  0.00    +0.000 C 
ATOM     14  C11 UNL     1      14.096   0.846   8.138  0.00  0.00    +0.000 C 
ATOM     15  N2  UNL     1      14.596   1.843   9.092  0.00  0.00    +0.000 NA
ATOM     16  H20 UNL     1      14.871   1.352   9.945  0.00  0.00    +0.000 HD
ENDBRANCH  10  11
ENDBRANCH   3  10
TORSDOF 3
ENDMDL
MODEL 3
REMARK VINA RESULT:    -4.731     16.966     18.057
REMARK INTER + INTRA:          -5.885
REMARK INTER:                  -5.619
REMARK INTRA:                  -0.266
REMARK UNBOUND:                -0.324
REMARK  Name = /home/anacleto/Desktop/manuscript_Mpro/naturecomm/supplementary_file_S2/6-chemical-library/molecular_docking/3D_ligand_structure/901.pdb
REMARK  3 active torsions:
REMARK  status: ('A' for Active; 'I' for Inactive)
REMARK    1  A    between atoms: C5_5  and  C6_6
REMARK    2  A    between atoms: N1_8  and  C7_9
REMARK    3  A    between atoms: C7_9  and  C8_10
REMARK                            x       y       z     vdW  Elec       q    Type
REMARK                         _______ _______ _______ _____ _____    ______ ____
ROOT
ATOM      1  C6  UNL     1      20.556   6.825  11.430  0.00  0.00    +0.000 C 
ATOM      2  O1  UNL     1      21.258   6.261  12.265  0.00  0.00    +0.000 OA
ATOM      3  N1  UNL     1      19.519   7.661  11.766  0.00  0.00    +0.000 N 
ATOM      4  H10 UNL     1      18.931   8.044  11.036  0.00  0.00    +0.000 HD
ENDROOT
BRANCH   1   9
ATOM      5  C1  UNL     1      20.264   7.785   9.084  0.00  0.00    +0.000 C 
ATOM      6  C2  UNL     1      19.094   7.228   8.285  0.00  0.00    +0.000 C 
ATOM      7  C3  UNL     1      19.470   5.773   8.073  0.00  0.00    +0.000 C 
ATOM      8  C4  UNL     1      20.070   5.360   9.409  0.00  0.00    +0.000 C 
ATOM      9  C5  UNL     1      20.776   6.615   9.938  0.00  0.00    +0.000 C 
ENDBRANCH   1   9
BRANCH   3  10
ATOM     10  C7  UNL     1      19.142   7.923  13.143  0.00  0.00    +0.000 C 
BRANCH  10  11
ATOM     11  C8  UNL     1      17.662   7.610  13.421  0.00  0.00    +0.000 C 
ATOM     12  C9  UNL     1      17.386   6.150  13.760  0.00  0.00    +0.000 C 
ATOM     13  C10 UNL     1      16.059   6.189  14.503  0.00  0.00    +0.000 C 
ATOM     14  C11 UNL     1      15.876   7.642  14.918  0.00  0.00    +0.000 C 
ATOM     15  N2  UNL     1      17.140   8.320  14.607  0.00  0.00    +0.000 NA
ATOM     16  H20 UNL     1      17.783   8.161  15.385  0.00  0.00    +0.000 HD
ENDBRANCH  10  11
ENDBRANCH   3  10
TORSDOF 3
ENDMDL
MODEL 4
REMARK VINA RESULT:    -4.724      1.342      1.788
REMARK INTER + INTRA:          -5.876
REMARK INTER:                  -5.683
REMARK INTRA:                  -0.193
REMARK UNBOUND:                -0.324
REMARK  Name = /home/anacleto/Desktop/manuscript_Mpro/naturecomm/supplementary_file_S2/6-chemical-library/molecular_docking/3D_ligand_structure/901.pdb
REMARK  3 active torsions:
REMARK  status: ('A' for Active; 'I' for Inactive)
REMARK    1  A    between atoms: C5_5  and  C6_6
REMARK    2  A    between atoms: N1_8  and  C7_9
REMARK    3  A    between atoms: C7_9  and  C8_10
REMARK                            x       y       z     vdW  Elec       q    Type
REMARK                         _______ _______ _______ _____ _____    ______ ____
ROOT
ATOM      1  C6  UNL     1      14.650  13.050  -4.566  0.00  0.00    +0.000 C 
ATOM      2  O1  UNL     1      14.678  12.075  -3.820  0.00  0.00    +0.000 OA
ATOM      3  N1  UNL     1      14.466  14.335  -4.114  0.00  0.00    +0.000 N 
ATOM      4  H10 UNL     1      14.383  15.091  -4.780  0.00  0.00    +0.000 HD
ENDROOT
BRANCH   1   9
ATOM      5  C1  UNL     1      15.110  11.458  -6.507  0.00  0.00    +0.000 C 
ATOM      6  C2  UNL     1      16.523  11.499  -7.072  0.00  0.00    +0.000 C 
ATOM      7  C3  UNL     1      16.628  12.891  -7.669  0.00  0.00    +0.000 C 
ATOM      8  C4  UNL     1      15.920  13.771  -6.648  0.00  0.00    +0.000 C 
ATOM      9  C5  UNL     1      14.796  12.899  -6.075  0.00  0.00    +0.000 C 
ENDBRANCH   1   9
BRANCH   3  10
ATOM     10  C7  UNL     1      14.256  14.644  -2.711  0.00  0.00    +0.000 C 
BRANCH  10  11
ATOM     11  C8  UNL     1      13.142  15.684  -2.496  0.00  0.00    +0.000 C 
ATOM     12  C9  UNL     1      12.586  15.718  -1.078  0.00  0.00    +0.000 C 
ATOM     13  C10 UNL     1      11.960  17.099  -0.961  0.00  0.00    +0.000 C 
ATOM     14  C11 UNL     1      12.552  17.905  -2.108  0.00  0.00    +0.000 C 
ATOM     15  N2  UNL     1      13.610  17.072  -2.692  0.00  0.00    +0.000 NA
ATOM     16  H20 UNL     1      14.458  17.206  -2.137  0.00  0.00    +0.000 HD
ENDBRANCH  10  11
ENDBRANCH   3  10
TORSDOF 3
ENDMDL
MODEL 5
REMARK VINA RESULT:    -4.608      3.822      4.271
REMARK INTER + INTRA:          -5.740
REMARK INTER:                  -5.263
REMARK INTRA:                  -0.478
REMARK UNBOUND:                -0.324
REMARK  Name = /home/anacleto/Desktop/manuscript_Mpro/naturecomm/supplementary_file_S2/6-chemical-library/molecular_docking/3D_ligand_structure/901.pdb
REMARK  3 active torsions:
REMARK  status: ('A' for Active; 'I' for Inactive)
REMARK    1  A    between atoms: C5_5  and  C6_6
REMARK    2  A    between atoms: N1_8  and  C7_9
REMARK    3  A    between atoms: C7_9  and  C8_10
REMARK                            x       y       z     vdW  Elec       q    Type
REMARK                         _______ _______ _______ _____ _____    ______ ____
ROOT
ATOM      1  C6  UNL     1      15.180  11.515  -3.581  0.00  0.00    +0.000 C 
ATOM      2  O1  UNL     1      14.739  12.639  -3.353  0.00  0.00    +0.000 OA
ATOM      3  N1  UNL     1      15.658  10.684  -2.596  0.00  0.00    +0.000 N 
ATOM      4  H10 UNL     1      16.072   9.797  -2.850  0.00  0.00    +0.000 HD
ENDROOT
BRANCH   1   9
ATOM      5  C1  UNL     1      15.912  11.933  -5.990  0.00  0.00    +0.000 C 
ATOM      6  C2  UNL     1      14.807  12.354  -6.950  0.00  0.00    +0.000 C 
ATOM      7  C3  UNL     1      13.910  11.132  -7.016  0.00  0.00    +0.000 C 
ATOM      8  C4  UNL     1      13.865  10.643  -5.575  0.00  0.00    +0.000 C 
ATOM      9  C5  UNL     1      15.250  10.964  -4.999  0.00  0.00    +0.000 C 
ENDBRANCH   1   9
BRANCH   3  10
ATOM     10  C7  UNL     1      15.713  11.080  -1.200  0.00  0.00    +0.000 C 
BRANCH  10  11
ATOM     11  C8  UNL     1      16.993  11.861  -0.858  0.00  0.00    +0.000 C 
ATOM     12  C9  UNL     1      18.180  11.538  -1.757  0.00  0.00    +0.000 C 
ATOM     13  C10 UNL     1      19.090  12.749  -1.616  0.00  0.00    +0.000 C 
ATOM     14  C11 UNL     1      18.212  13.841  -1.021  0.00  0.00    +0.000 C 
ATOM     15  N2  UNL     1      16.840  13.319  -1.038  0.00  0.00    +0.000 NA
ATOM     16  H20 UNL     1      16.450  13.488  -1.968  0.00  0.00    +0.000 HD
ENDBRANCH  10  11
ENDBRANCH   3  10
TORSDOF 3
ENDMDL
MODEL 6
REMARK VINA RESULT:    -4.472      3.740      5.904
REMARK INTER + INTRA:          -5.580
REMARK INTER:                  -5.331
REMARK INTRA:                  -0.249
REMARK UNBOUND:                -0.324
REMARK  Name = /home/anacleto/Desktop/manuscript_Mpro/naturecomm/supplementary_file_S2/6-chemical-library/molecular_docking/3D_ligand_structure/901.pdb
REMARK  3 active torsions:
REMARK  status: ('A' for Active; 'I' for Inactive)
REMARK    1  A    between atoms: C5_5  and  C6_6
REMARK    2  A    between atoms: N1_8  and  C7_9
REMARK    3  A    between atoms: C7_9  and  C8_10
REMARK                            x       y       z     vdW  Elec       q    Type
REMARK                         _______ _______ _______ _____ _____    ______ ____
ROOT
ATOM      1  C6  UNL     1      17.119  15.688  -0.943  0.00  0.00    +0.000 C 
ATOM      2  O1  UNL     1      17.285  16.826  -1.373  0.00  0.00    +0.000 OA
ATOM      3  N1  UNL     1      16.156  14.836  -1.429  0.00  0.00    +0.000 N 
ATOM      4  H10 UNL     1      16.020  13.935  -0.990  0.00  0.00    +0.000 HD
ENDROOT
BRANCH   1   9
ATOM      5  C1  UNL     1      18.752  16.229   0.942  0.00  0.00    +0.000 C 
ATOM      6  C2  UNL     1      20.220  15.957   0.640  0.00  0.00    +0.000 C 
ATOM      7  C3  UNL     1      20.277  14.448   0.489  0.00  0.00    +0.000 C 
ATOM      8  C4  UNL     1      19.008  14.118  -0.283  0.00  0.00    +0.000 C 
ATOM      9  C5  UNL     1      17.968  15.139   0.197  0.00  0.00    +0.000 C 
ENDBRANCH   1   9
BRANCH   3  10
ATOM     10  C7  UNL     1      15.228  15.225  -2.475  0.00  0.00    +0.000 C 
BRANCH  10  11
ATOM     11  C8  UNL     1      13.780  15.342  -1.968  0.00  0.00    +0.000 C 
ATOM     12  C9  UNL     1      13.602  16.323  -0.816  0.00  0.00    +0.000 C 
ATOM     13  C10 UNL     1      12.123  16.679  -0.861  0.00  0.00    +0.000 C 
ATOM     14  C11 UNL     1      11.651  16.248  -2.242  0.00  0.00    +0.000 C 
ATOM     15  N2  UNL     1      12.857  15.875  -2.991  0.00  0.00    +0.000 NA
ATOM     16  H20 UNL     1      13.265  16.729  -3.378  0.00  0.00    +0.000 HD
ENDBRANCH  10  11
ENDBRANCH   3  10
TORSDOF 3
ENDMDL
MODEL 7
REMARK VINA RESULT:    -4.363     17.414     18.376
REMARK INTER + INTRA:          -5.451
REMARK INTER:                  -4.992
REMARK INTRA:                  -0.460
REMARK UNBOUND:                -0.324
REMARK  Name = /home/anacleto/Desktop/manuscript_Mpro/naturecomm/supplementary_file_S2/6-chemical-library/molecular_docking/3D_ligand_structure/901.pdb
REMARK  3 active torsions:
REMARK  status: ('A' for Active; 'I' for Inactive)
REMARK    1  A    between atoms: C5_5  and  C6_6
REMARK    2  A    between atoms: N1_8  and  C7_9
REMARK    3  A    between atoms: C7_9  and  C8_10
REMARK                            x       y       z     vdW  Elec       q    Type
REMARK                         _______ _______ _______ _____ _____    ______ ____
ROOT
ATOM      1  C6  UNL     1      25.012  16.170   9.878  0.00  0.00    +0.000 C 
ATOM      2  O1  UNL     1      24.672  17.295   9.524  0.00  0.00    +0.000 OA
ATOM      3  N1  UNL     1      24.134  15.253  10.405  0.00  0.00    +0.000 N 
ATOM      4  H10 UNL     1      24.482  14.365  10.743  0.00  0.00    +0.000 HD
ENDROOT
BRANCH   1   9
ATOM      5  C1  UNL     1      27.193  16.288   8.558  0.00  0.00    +0.000 C 
ATOM      6  C2  UNL     1      27.480  15.098   7.652  0.00  0.00    +0.000 C 
ATOM      7  C3  UNL     1      27.668  13.948   8.625  0.00  0.00    +0.000 C 
ATOM      8  C4  UNL     1      26.589  14.185   9.672  0.00  0.00    +0.000 C 
ATOM      9  C5  UNL     1      26.461  15.710   9.779  0.00  0.00    +0.000 C 
ENDBRANCH   1   9
BRANCH   3  10
ATOM     10  C7  UNL     1      22.729  15.553  10.618  0.00  0.00    +0.000 C 
BRANCH  10  11
ATOM     11  C8  UNL     1      22.469  16.237  11.971  0.00  0.00    +0.000 C 
ATOM     12  C9  UNL     1      23.533  15.958  13.025  0.00  0.00    +0.000 C 
ATOM     13  C10 UNL     1      23.386  17.107  14.011  0.00  0.00    +0.000 C 
ATOM     14  C11 UNL     1      22.585  18.168  13.270  0.00  0.00    +0.000 C 
ATOM     15  N2  UNL     1      22.486  17.711  11.879  0.00  0.00    +0.000 NA
ATOM     16  H20 UNL     1      23.341  17.993  11.394  0.00  0.00    +0.000 HD
ENDBRANCH  10  11
ENDBRANCH   3  10
TORSDOF 3
ENDMDL
MODEL 8
REMARK VINA RESULT:    -4.358     16.369     17.220
REMARK INTER + INTRA:          -5.446
REMARK INTER:                  -5.244
REMARK INTRA:                  -0.202
REMARK UNBOUND:                -0.324
REMARK  Name = /home/anacleto/Desktop/manuscript_Mpro/naturecomm/supplementary_file_S2/6-chemical-library/molecular_docking/3D_ligand_structure/901.pdb
REMARK  3 active torsions:
REMARK  status: ('A' for Active; 'I' for Inactive)
REMARK    1  A    between atoms: C5_5  and  C6_6
REMARK    2  A    between atoms: N1_8  and  C7_9
REMARK    3  A    between atoms: C7_9  and  C8_10
REMARK                            x       y       z     vdW  Elec       q    Type
REMARK                         _______ _______ _______ _____ _____    ______ ____
ROOT
ATOM      1  C6  UNL     1      16.700   3.324   9.704  0.00  0.00    +0.000 C 
ATOM      2  O1  UNL     1      16.472   3.280  10.909  0.00  0.00    +0.000 OA
ATOM      3  N1  UNL     1      17.824   3.913   9.175  0.00  0.00    +0.000 N 
ATOM      4  H10 UNL     1      17.927   3.981   8.171  0.00  0.00    +0.000 HD
ENDROOT
BRANCH   1   9
ATOM      5  C1  UNL     1      14.584   1.944   9.341  0.00  0.00    +0.000 C 
ATOM      6  C2  UNL     1      14.806   0.497   8.922  0.00  0.00    +0.000 C 
ATOM      7  C3  UNL     1      15.439   0.618   7.548  0.00  0.00    +0.000 C 
ATOM      8  C4  UNL     1      16.404   1.785   7.701  0.00  0.00    +0.000 C 
ATOM      9  C5  UNL     1      15.725   2.742   8.690  0.00  0.00    +0.000 C 
ENDBRANCH   1   9
BRANCH   3  10
ATOM     10  C7  UNL     1      18.826   4.563  10.002  0.00  0.00    +0.000 C 
BRANCH  10  11
ATOM     11  C8  UNL     1      19.634   5.620   9.229  0.00  0.00    +0.000 C 
ATOM     12  C9  UNL     1      18.870   6.909   8.953  0.00  0.00    +0.000 C 
ATOM     13  C10 UNL     1      19.963   7.940   8.712  0.00  0.00    +0.000 C 
ATOM     14  C11 UNL     1      21.233   7.315   9.272  0.00  0.00    +0.000 C 
ATOM     15  N2  UNL     1      20.814   6.098   9.978  0.00  0.00    +0.000 NA
ATOM     16  H20 UNL     1      20.511   6.366  10.917  0.00  0.00    +0.000 HD
ENDBRANCH  10  11
ENDBRANCH   3  10
TORSDOF 3
ENDMDL
MODEL 9
REMARK VINA RESULT:    -4.357      1.933      2.932
REMARK INTER + INTRA:          -5.445
REMARK INTER:                  -5.122
REMARK INTRA:                  -0.324
REMARK UNBOUND:                -0.324
REMARK  Name = /home/anacleto/Desktop/manuscript_Mpro/naturecomm/supplementary_file_S2/6-chemical-library/molecular_docking/3D_ligand_structure/901.pdb
REMARK  3 active torsions:
REMARK  status: ('A' for Active; 'I' for Inactive)
REMARK    1  A    between atoms: C5_5  and  C6_6
REMARK    2  A    between atoms: N1_8  and  C7_9
REMARK    3  A    between atoms: C7_9  and  C8_10
REMARK                            x       y       z     vdW  Elec       q    Type
REMARK                         _______ _______ _______ _____ _____    ______ ____
ROOT
ATOM      1  C6  UNL     1      14.351  14.665  -3.065  0.00  0.00    +0.000 C 
ATOM      2  O1  UNL     1      14.937  14.457  -2.006  0.00  0.00    +0.000 OA
ATOM      3  N1  UNL     1      13.236  15.462  -3.159  0.00  0.00    +0.000 N 
ATOM      4  H10 UNL     1      12.754  15.542  -4.045  0.00  0.00    +0.000 HD
ENDROOT
BRANCH   1   9
ATOM      5  C1  UNL     1      14.696  12.492  -4.358  0.00  0.00    +0.000 C 
ATOM      6  C2  UNL     1      16.126  11.971  -4.401  0.00  0.00    +0.000 C 
ATOM      7  C3  UNL     1      16.865  13.028  -5.200  0.00  0.00    +0.000 C 
ATOM      8  C4  UNL     1      16.281  14.337  -4.688  0.00  0.00    +0.000 C 
ATOM      9  C5  UNL     1      14.814  14.023  -4.366  0.00  0.00    +0.000 C 
ENDBRANCH   1   9
BRANCH   3  10
ATOM     10  C7  UNL     1      12.634  16.102  -2.003  0.00  0.00    +0.000 C 
BRANCH  10  11
ATOM     11  C8  UNL     1      12.661  17.637  -2.097  0.00  0.00    +0.000 C 
ATOM     12  C9  UNL     1      14.056  18.228  -2.253  0.00  0.00    +0.000 C 
ATOM     13  C10 UNL     1      13.808  19.601  -2.860  0.00  0.00    +0.000 C 
ATOM     14  C11 UNL     1      12.388  19.548  -3.403  0.00  0.00    +0.000 C 
ATOM     15  N2  UNL     1      11.958  18.148  -3.292  0.00  0.00    +0.000 NA
ATOM     16  H20 UNL     1      12.309  17.646  -4.110  0.00  0.00    +0.000 HD
ENDBRANCH  10  11
ENDBRANCH   3  10
TORSDOF 3
ENDMDL
