MODEL 1
REMARK VINA RESULT:    -4.208      0.000      0.000
REMARK INTER + INTRA:          -4.208
REMARK INTER:                  -4.208
REMARK INTRA:                   0.000
REMARK UNBOUND:                 0.000
REMARK  Name = /home/anacleto/Desktop/manuscript_Mpro/naturecomm/supplementary_file_S2/6-chemical-library/molecular_docking/3D_ligand_structure/228.pdb
REMARK  0 active torsions:
REMARK  status: ('A' for Active; 'I' for Inactive)
REMARK                            x       y       z     vdW  Elec       q    Type
REMARK                         _______ _______ _______ _____ _____    ______ ____
ROOT
ATOM      1  C1  UNL     1      17.193  11.360  -4.945  0.00  0.00    +0.000 C 
ATOM      2  C2  UNL     1      17.374  10.493  -3.704  0.00  0.00    +0.000 C 
ATOM      3  C3  UNL     1      16.269  10.798  -2.703  0.00  0.00    +0.000 C 
ATOM      4  N1  UNL     1      14.943  10.589  -3.271  0.00  0.00    +0.000 N 
ATOM      5  C4  UNL     1      14.753  10.814  -4.637  0.00  0.00    +0.000 A 
ATOM      6  C5  UNL     1      15.795  11.227  -5.474  0.00  0.00    +0.000 A 
ATOM      7  C6  UNL     1      13.472  10.708  -5.176  0.00  0.00    +0.000 A 
ATOM      8  C7  UNL     1      13.284  11.003  -6.517  0.00  0.00    +0.000 A 
ATOM      9  N2  UNL     1      14.270  11.401  -7.346  0.00  0.00    +0.000 NA
ATOM     10  C8  UNL     1      15.502  11.510  -6.803  0.00  0.00    +0.000 A 
ATOM     11  H7  UNL     1      14.447   9.772  -2.926  0.00  0.00    +0.000 HD
ENDROOT
TORSDOF 0
ENDMDL
MODEL 2
REMARK VINA RESULT:    -4.030      1.446      3.259
REMARK INTER + INTRA:          -4.030
REMARK INTER:                  -4.030
REMARK INTRA:                   0.000
REMARK UNBOUND:                 0.000
REMARK  Name = /home/anacleto/Desktop/manuscript_Mpro/naturecomm/supplementary_file_S2/6-chemical-library/molecular_docking/3D_ligand_structure/228.pdb
REMARK  0 active torsions:
REMARK  status: ('A' for Active; 'I' for Inactive)
REMARK                            x       y       z     vdW  Elec       q    Type
REMARK                         _______ _______ _______ _____ _____    ______ ____
ROOT
ATOM      1  C1  UNL     1      14.179  11.446  -6.951  0.00  0.00    +0.000 C 
ATOM      2  C2  UNL     1      13.123  11.661  -5.871  0.00  0.00    +0.000 C 
ATOM      3  C3  UNL     1      13.254  10.582  -4.807  0.00  0.00    +0.000 C 
ATOM      4  N1  UNL     1      14.584  10.562  -4.209  0.00  0.00    +0.000 N 
ATOM      5  C4  UNL     1      15.680  10.930  -4.994  0.00  0.00    +0.000 A 
ATOM      6  C5  UNL     1      15.539  11.322  -6.330  0.00  0.00    +0.000 A 
ATOM      7  C6  UNL     1      16.966  10.828  -4.465  0.00  0.00    +0.000 A 
ATOM      8  C7  UNL     1      18.049  11.128  -5.276  0.00  0.00    +0.000 A 
ATOM      9  N2  UNL     1      17.942  11.509  -6.565  0.00  0.00    +0.000 NA
ATOM     10  C8  UNL     1      16.689  11.591  -7.063  0.00  0.00    +0.000 A 
ATOM     11  H7  UNL     1      14.637  10.912  -3.256  0.00  0.00    +0.000 HD
ENDROOT
TORSDOF 0
ENDMDL
MODEL 3
REMARK VINA RESULT:    -3.892      2.087      4.242
REMARK INTER + INTRA:          -3.892
REMARK INTER:                  -3.892
REMARK INTRA:                   0.000
REMARK UNBOUND:                 0.000
REMARK  Name = /home/anacleto/Desktop/manuscript_Mpro/naturecomm/supplementary_file_S2/6-chemical-library/molecular_docking/3D_ligand_structure/228.pdb
REMARK  0 active torsions:
REMARK  status: ('A' for Active; 'I' for Inactive)
REMARK                            x       y       z     vdW  Elec       q    Type
REMARK                         _______ _______ _______ _____ _____    ______ ____
ROOT
ATOM      1  C1  UNL     1      15.018  13.370  -4.549  0.00  0.00    +0.000 C 
ATOM      2  C2  UNL     1      13.864  12.516  -5.064  0.00  0.00    +0.000 C 
ATOM      3  C3  UNL     1      14.304  11.063  -5.152  0.00  0.00    +0.000 C 
ATOM      4  N1  UNL     1      14.769  10.554  -3.868  0.00  0.00    +0.000 N 
ATOM      5  C4  UNL     1      15.388  11.435  -2.978  0.00  0.00    +0.000 A 
ATOM      6  C5  UNL     1      15.568  12.790  -3.280  0.00  0.00    +0.000 A 
ATOM      7  C6  UNL     1      15.920  10.945  -1.787  0.00  0.00    +0.000 A 
ATOM      8  C7  UNL     1      16.594  11.817  -0.946  0.00  0.00    +0.000 A 
ATOM      9  N2  UNL     1      16.780  13.126  -1.211  0.00  0.00    +0.000 NA
ATOM     10  C8  UNL     1      16.268  13.580  -2.375  0.00  0.00    +0.000 A 
ATOM     11  H7  UNL     1      14.145   9.893  -3.411  0.00  0.00    +0.000 HD
ENDROOT
TORSDOF 0
ENDMDL
MODEL 4
REMARK VINA RESULT:    -3.669     18.200     19.143
REMARK INTER + INTRA:          -3.669
REMARK INTER:                  -3.669
REMARK INTRA:                   0.000
REMARK UNBOUND:                 0.000
REMARK  Name = /home/anacleto/Desktop/manuscript_Mpro/naturecomm/supplementary_file_S2/6-chemical-library/molecular_docking/3D_ligand_structure/228.pdb
REMARK  0 active torsions:
REMARK  status: ('A' for Active; 'I' for Inactive)
REMARK                            x       y       z     vdW  Elec       q    Type
REMARK                         _______ _______ _______ _____ _____    ______ ____
ROOT
ATOM      1  C1  UNL     1      26.339  17.120  10.291  0.00  0.00    +0.000 C 
ATOM      2  C2  UNL     1      26.523  16.453   8.931  0.00  0.00    +0.000 C 
ATOM      3  C3  UNL     1      26.149  14.982   9.029  0.00  0.00    +0.000 C 
ATOM      4  N1  UNL     1      24.781  14.796   9.498  0.00  0.00    +0.000 N 
ATOM      5  C4  UNL     1      24.239  15.732  10.381  0.00  0.00    +0.000 A 
ATOM      6  C5  UNL     1      24.964  16.843  10.824  0.00  0.00    +0.000 A 
ATOM      7  C6  UNL     1      22.966  15.518  10.909  0.00  0.00    +0.000 A 
ATOM      8  C7  UNL     1      22.468  16.417  11.839  0.00  0.00    +0.000 A 
ATOM      9  N2  UNL     1      23.144  17.496  12.281  0.00  0.00    +0.000 NA
ATOM     10  C8  UNL     1      24.380  17.680  11.768  0.00  0.00    +0.000 A 
ATOM     11  H7  UNL     1      24.121  14.478   8.793  0.00  0.00    +0.000 HD
ENDROOT
TORSDOF 0
ENDMDL
MODEL 5
REMARK VINA RESULT:    -3.647      2.386      3.755
REMARK INTER + INTRA:          -3.647
REMARK INTER:                  -3.647
REMARK INTRA:                   0.000
REMARK UNBOUND:                 0.000
REMARK  Name = /home/anacleto/Desktop/manuscript_Mpro/naturecomm/supplementary_file_S2/6-chemical-library/molecular_docking/3D_ligand_structure/228.pdb
REMARK  0 active torsions:
REMARK  status: ('A' for Active; 'I' for Inactive)
REMARK                            x       y       z     vdW  Elec       q    Type
REMARK                         _______ _______ _______ _____ _____    ______ ____
ROOT
ATOM      1  C1  UNL     1      15.781  11.357  -6.116  0.00  0.00    +0.000 C 
ATOM      2  C2  UNL     1      14.576  11.416  -7.049  0.00  0.00    +0.000 C 
ATOM      3  C3  UNL     1      13.295  11.431  -6.228  0.00  0.00    +0.000 C 
ATOM      4  N1  UNL     1      13.259  12.548  -5.291  0.00  0.00    +0.000 N 
ATOM      5  C4  UNL     1      14.460  13.012  -4.750  0.00  0.00    +0.000 A 
ATOM      6  C5  UNL     1      15.694  12.444  -5.085  0.00  0.00    +0.000 A 
ATOM      7  C6  UNL     1      14.433  14.017  -3.785  0.00  0.00    +0.000 A 
ATOM      8  C7  UNL     1      15.625  14.420  -3.204  0.00  0.00    +0.000 A 
ATOM      9  N2  UNL     1      16.827  13.891  -3.509  0.00  0.00    +0.000 NA
ATOM     10  C8  UNL     1      16.833  12.910  -4.438  0.00  0.00    +0.000 A 
ATOM     11  H7  UNL     1      12.610  13.294  -5.531  0.00  0.00    +0.000 HD
ENDROOT
TORSDOF 0
ENDMDL
MODEL 6
REMARK VINA RESULT:    -3.511     18.790     19.614
REMARK INTER + INTRA:          -3.511
REMARK INTER:                  -3.511
REMARK INTRA:                   0.000
REMARK UNBOUND:                 0.000
REMARK  Name = /home/anacleto/Desktop/manuscript_Mpro/naturecomm/supplementary_file_S2/6-chemical-library/molecular_docking/3D_ligand_structure/228.pdb
REMARK  0 active torsions:
REMARK  status: ('A' for Active; 'I' for Inactive)
REMARK                            x       y       z     vdW  Elec       q    Type
REMARK                         _______ _______ _______ _____ _____    ______ ____
ROOT
ATOM      1  C1  UNL     1      23.703  15.128  13.165  0.00  0.00    +0.000 C 
ATOM      2  C2  UNL     1      22.230  15.524  13.201  0.00  0.00    +0.000 C 
ATOM      3  C3  UNL     1      22.091  17.006  12.889  0.00  0.00    +0.000 C 
ATOM      4  N1  UNL     1      22.671  17.349  11.596  0.00  0.00    +0.000 N 
ATOM      5  C4  UNL     1      23.772  16.622  11.137  0.00  0.00    +0.000 A 
ATOM      6  C5  UNL     1      24.329  15.572  11.877  0.00  0.00    +0.000 A 
ATOM      7  C6  UNL     1      24.393  16.997   9.947  0.00  0.00    +0.000 A 
ATOM      8  C7  UNL     1      25.527  16.312   9.539  0.00  0.00    +0.000 A 
ATOM      9  N2  UNL     1      26.083  15.297  10.230  0.00  0.00    +0.000 NA
ATOM     10  C8  UNL     1      25.475  14.956  11.387  0.00  0.00    +0.000 A 
ATOM     11  H7  UNL     1      21.999  17.567  10.863  0.00  0.00    +0.000 HD
ENDROOT
TORSDOF 0
ENDMDL
MODEL 7
REMARK VINA RESULT:    -3.446      2.855      3.104
REMARK INTER + INTRA:          -3.446
REMARK INTER:                  -3.446
REMARK INTRA:                   0.000
REMARK UNBOUND:                 0.000
REMARK  Name = /home/anacleto/Desktop/manuscript_Mpro/naturecomm/supplementary_file_S2/6-chemical-library/molecular_docking/3D_ligand_structure/228.pdb
REMARK  0 active torsions:
REMARK  status: ('A' for Active; 'I' for Inactive)
REMARK                            x       y       z     vdW  Elec       q    Type
REMARK                         _______ _______ _______ _____ _____    ______ ____
ROOT
ATOM      1  C1  UNL     1      16.455  13.560  -2.870  0.00  0.00    +0.000 C 
ATOM      2  C2  UNL     1      15.446  14.316  -2.012  0.00  0.00    +0.000 C 
ATOM      3  C3  UNL     1      14.556  15.169  -2.903  0.00  0.00    +0.000 C 
ATOM      4  N1  UNL     1      13.862  14.372  -3.907  0.00  0.00    +0.000 N 
ATOM      5  C4  UNL     1      14.486  13.227  -4.407  0.00  0.00    +0.000 A 
ATOM      6  C5  UNL     1      15.752  12.820  -3.970  0.00  0.00    +0.000 A 
ATOM      7  C6  UNL     1      13.877  12.507  -5.433  0.00  0.00    +0.000 A 
ATOM      8  C7  UNL     1      14.540  11.414  -5.969  0.00  0.00    +0.000 A 
ATOM      9  N2  UNL     1      15.757  10.999  -5.565  0.00  0.00    +0.000 NA
ATOM     10  C8  UNL     1      16.338  11.716  -4.579  0.00  0.00    +0.000 A 
ATOM     11  H7  UNL     1      12.864  14.250  -3.751  0.00  0.00    +0.000 HD
ENDROOT
TORSDOF 0
ENDMDL
MODEL 8
REMARK VINA RESULT:    -3.424      2.195      3.014
REMARK INTER + INTRA:          -3.424
REMARK INTER:                  -3.424
REMARK INTRA:                   0.000
REMARK UNBOUND:                 0.000
REMARK  Name = /home/anacleto/Desktop/manuscript_Mpro/naturecomm/supplementary_file_S2/6-chemical-library/molecular_docking/3D_ligand_structure/228.pdb
REMARK  0 active torsions:
REMARK  status: ('A' for Active; 'I' for Inactive)
REMARK                            x       y       z     vdW  Elec       q    Type
REMARK                         _______ _______ _______ _____ _____    ______ ____
ROOT
ATOM      1  C1  UNL     1      16.660  13.091  -5.349  0.00  0.00    +0.000 C 
ATOM      2  C2  UNL     1      17.597  13.287  -6.537  0.00  0.00    +0.000 C 
ATOM      3  C3  UNL     1      17.805  11.958  -7.247  0.00  0.00    +0.000 C 
ATOM      4  N1  UNL     1      16.546  11.373  -7.693  0.00  0.00    +0.000 N 
ATOM      5  C4  UNL     1      15.391  11.611  -6.945  0.00  0.00    +0.000 A 
ATOM      6  C5  UNL     1      15.405  12.396  -5.786  0.00  0.00    +0.000 A 
ATOM      7  C6  UNL     1      14.199  10.985  -7.306  0.00  0.00    +0.000 A 
ATOM      8  C7  UNL     1      13.077  11.172  -6.514  0.00  0.00    +0.000 A 
ATOM      9  N2  UNL     1      13.063  11.924  -5.395  0.00  0.00    +0.000 NA
ATOM     10  C8  UNL     1      14.229  12.513  -5.054  0.00  0.00    +0.000 A 
ATOM     11  H7  UNL     1      16.387  11.400  -8.697  0.00  0.00    +0.000 HD
ENDROOT
TORSDOF 0
ENDMDL
