MODEL 1
REMARK VINA RESULT:    -4.031      0.000      0.000
REMARK INTER + INTRA:          -4.031
REMARK INTER:                  -4.031
REMARK INTRA:                   0.000
REMARK UNBOUND:                 0.000
REMARK  Name = /home/anacleto/Desktop/manuscript_Mpro/naturecomm/supplementary_file_S2/6-chemical-library/molecular_docking/3D_ligand_structure/15.pdb
REMARK  0 active torsions:
REMARK  status: ('A' for Active; 'I' for Inactive)
REMARK                            x       y       z     vdW  Elec       q    Type
REMARK                         _______ _______ _______ _____ _____    ______ ____
ROOT
ATOM      1  C1  UNL     1      15.109  12.503  -6.910  0.00  0.00    +0.000 C 
ATOM      2  C2  UNL     1      14.703  11.701  -5.921  0.00  0.00    +0.000 C 
ATOM      3  C3  UNL     1      13.568  10.754  -5.988  0.00  0.00    +0.000 C 
ATOM      4  O1  UNL     1      12.873  10.490  -6.948  0.00  0.00    +0.000 OA
ATOM      5  N1  UNL     1      13.500  10.212  -4.714  0.00  0.00    +0.000 N 
ATOM      6  N2  UNL     1      14.598  10.607  -3.944  0.00  0.00    +0.000 N 
ATOM      7  C4  UNL     1      15.314  11.611  -4.575  0.00  0.00    +0.000 C 
ATOM      8  O2  UNL     1      16.216  12.285  -4.121  0.00  0.00    +0.000 OA
ATOM      9  H3  UNL     1      12.994   9.352  -4.539  0.00  0.00    +0.000 HD
ATOM     10  H4  UNL     1      14.619  10.507  -2.935  0.00  0.00    +0.000 HD
ENDROOT
TORSDOF 0
ENDMDL
MODEL 2
REMARK VINA RESULT:    -4.031      0.035      2.745
REMARK INTER + INTRA:          -4.031
REMARK INTER:                  -4.031
REMARK INTRA:                   0.000
REMARK UNBOUND:                 0.000
REMARK  Name = /home/anacleto/Desktop/manuscript_Mpro/naturecomm/supplementary_file_S2/6-chemical-library/molecular_docking/3D_ligand_structure/15.pdb
REMARK  0 active torsions:
REMARK  status: ('A' for Active; 'I' for Inactive)
REMARK                            x       y       z     vdW  Elec       q    Type
REMARK                         _______ _______ _______ _____ _____    ______ ____
ROOT
ATOM      1  C1  UNL     1      15.128  12.508  -6.870  0.00  0.00    +0.000 C 
ATOM      2  C2  UNL     1      14.707  11.702  -5.892  0.00  0.00    +0.000 C 
ATOM      3  C3  UNL     1      15.297  11.606  -4.538  0.00  0.00    +0.000 C 
ATOM      4  O1  UNL     1      16.194  12.276  -4.066  0.00  0.00    +0.000 OA
ATOM      5  N1  UNL     1      14.573  10.599  -3.920  0.00  0.00    +0.000 N 
ATOM      6  N2  UNL     1      13.486  10.209  -4.708  0.00  0.00    +0.000 N 
ATOM      7  C4  UNL     1      13.571  10.755  -5.979  0.00  0.00    +0.000 C 
ATOM      8  O2  UNL     1      12.890  10.497  -6.950  0.00  0.00    +0.000 OA
ATOM      9  H3  UNL     1      14.579  10.495  -2.912  0.00  0.00    +0.000 HD
ATOM     10  H4  UNL     1      12.976   9.348  -4.544  0.00  0.00    +0.000 HD
ENDROOT
TORSDOF 0
ENDMDL
MODEL 3
REMARK VINA RESULT:    -3.575     15.817     17.008
REMARK INTER + INTRA:          -3.575
REMARK INTER:                  -3.575
REMARK INTRA:                   0.000
REMARK UNBOUND:                 0.000
REMARK  Name = /home/anacleto/Desktop/manuscript_Mpro/naturecomm/supplementary_file_S2/6-chemical-library/molecular_docking/3D_ligand_structure/15.pdb
REMARK  0 active torsions:
REMARK  status: ('A' for Active; 'I' for Inactive)
REMARK                            x       y       z     vdW  Elec       q    Type
REMARK                         _______ _______ _______ _____ _____    ______ ____
ROOT
ATOM      1  C1  UNL     1      20.494   4.577   8.762  0.00  0.00    +0.000 C 
ATOM      2  C2  UNL     1      20.762   5.838   9.108  0.00  0.00    +0.000 C 
ATOM      3  C3  UNL     1      21.963   6.297   9.842  0.00  0.00    +0.000 C 
ATOM      4  O1  UNL     1      22.925   5.638  10.183  0.00  0.00    +0.000 OA
ATOM      5  N1  UNL     1      21.754   7.655  10.024  0.00  0.00    +0.000 N 
ATOM      6  N2  UNL     1      20.633   8.089   9.310  0.00  0.00    +0.000 N 
ATOM      7  C4  UNL     1      19.907   7.014   8.823  0.00  0.00    +0.000 C 
ATOM      8  O2  UNL     1      18.809   7.027   8.305  0.00  0.00    +0.000 OA
ATOM      9  H3  UNL     1      22.521   8.274  10.260  0.00  0.00    +0.000 HD
ATOM     10  H4  UNL     1      20.186   8.981   9.489  0.00  0.00    +0.000 HD
ENDROOT
TORSDOF 0
ENDMDL
MODEL 4
REMARK VINA RESULT:    -3.572     15.806     16.902
REMARK INTER + INTRA:          -3.572
REMARK INTER:                  -3.572
REMARK INTRA:                   0.000
REMARK UNBOUND:                 0.000
REMARK  Name = /home/anacleto/Desktop/manuscript_Mpro/naturecomm/supplementary_file_S2/6-chemical-library/molecular_docking/3D_ligand_structure/15.pdb
REMARK  0 active torsions:
REMARK  status: ('A' for Active; 'I' for Inactive)
REMARK                            x       y       z     vdW  Elec       q    Type
REMARK                         _______ _______ _______ _____ _____    ______ ____
ROOT
ATOM      1  C1  UNL     1      20.501   4.536   8.858  0.00  0.00    +0.000 C 
ATOM      2  C2  UNL     1      20.764   5.805   9.182  0.00  0.00    +0.000 C 
ATOM      3  C3  UNL     1      19.952   6.981   8.799  0.00  0.00    +0.000 C 
ATOM      4  O1  UNL     1      18.893   6.993   8.204  0.00  0.00    +0.000 OA
ATOM      5  N1  UNL     1      20.658   8.062   9.301  0.00  0.00    +0.000 N 
ATOM      6  N2  UNL     1      21.718   7.637  10.107  0.00  0.00    +0.000 N 
ATOM      7  C4  UNL     1      21.918   6.271   9.986  0.00  0.00    +0.000 C 
ATOM      8  O2  UNL     1      22.841   5.610  10.415  0.00  0.00    +0.000 OA
ATOM      9  H3  UNL     1      20.215   8.966   9.419  0.00  0.00    +0.000 HD
ATOM     10  H4  UNL     1      22.477   8.253  10.378  0.00  0.00    +0.000 HD
ENDROOT
TORSDOF 0
ENDMDL
MODEL 5
REMARK VINA RESULT:    -3.466     15.724     16.521
REMARK INTER + INTRA:          -3.466
REMARK INTER:                  -3.466
REMARK INTRA:                   0.000
REMARK UNBOUND:                 0.000
REMARK  Name = /home/anacleto/Desktop/manuscript_Mpro/naturecomm/supplementary_file_S2/6-chemical-library/molecular_docking/3D_ligand_structure/15.pdb
REMARK  0 active torsions:
REMARK  status: ('A' for Active; 'I' for Inactive)
REMARK                            x       y       z     vdW  Elec       q    Type
REMARK                         _______ _______ _______ _____ _____    ______ ____
ROOT
ATOM      1  C1  UNL     1      21.063   5.506  10.506  0.00  0.00    +0.000 C 
ATOM      2  C2  UNL     1      20.168   5.791   9.556  0.00  0.00    +0.000 C 
ATOM      3  C3  UNL     1      20.034   7.090   8.858  0.00  0.00    +0.000 C 
ATOM      4  O1  UNL     1      20.740   8.072   8.968  0.00  0.00    +0.000 OA
ATOM      5  N1  UNL     1      18.938   6.918   8.027  0.00  0.00    +0.000 N 
ATOM      6  N2  UNL     1      18.516   5.586   8.024  0.00  0.00    +0.000 N 
ATOM      7  C4  UNL     1      19.145   4.862   9.024  0.00  0.00    +0.000 C 
ATOM      8  O2  UNL     1      18.896   3.735   9.400  0.00  0.00    +0.000 OA
ATOM      9  H3  UNL     1      18.772   7.543   7.246  0.00  0.00    +0.000 HD
ATOM     10  H4  UNL     1      17.610   5.302   7.667  0.00  0.00    +0.000 HD
ENDROOT
TORSDOF 0
ENDMDL
MODEL 6
REMARK VINA RESULT:    -3.427     18.855     19.375
REMARK INTER + INTRA:          -3.427
REMARK INTER:                  -3.427
REMARK INTRA:                   0.000
REMARK UNBOUND:                 0.000
REMARK  Name = /home/anacleto/Desktop/manuscript_Mpro/naturecomm/supplementary_file_S2/6-chemical-library/molecular_docking/3D_ligand_structure/15.pdb
REMARK  0 active torsions:
REMARK  status: ('A' for Active; 'I' for Inactive)
REMARK                            x       y       z     vdW  Elec       q    Type
REMARK                         _______ _______ _______ _____ _____    ______ ____
ROOT
ATOM      1  C1  UNL     1      28.172  17.168   9.031  0.00  0.00    +0.000 C 
ATOM      2  C2  UNL     1      27.042  16.461   8.942  0.00  0.00    +0.000 C 
ATOM      3  C3  UNL     1      25.702  16.916   9.376  0.00  0.00    +0.000 C 
ATOM      4  O1  UNL     1      25.389  18.008   9.807  0.00  0.00    +0.000 OA
ATOM      5  N1  UNL     1      24.881  15.823   9.150  0.00  0.00    +0.000 N 
ATOM      6  N2  UNL     1      25.561  14.822   8.451  0.00  0.00    +0.000 N 
ATOM      7  C4  UNL     1      26.920  15.091   8.393  0.00  0.00    +0.000 C 
ATOM      8  O2  UNL     1      27.810  14.361   8.008  0.00  0.00    +0.000 OA
ATOM      9  H3  UNL     1      23.873  15.927   9.106  0.00  0.00    +0.000 HD
ATOM     10  H4  UNL     1      25.216  13.871   8.388  0.00  0.00    +0.000 HD
ENDROOT
TORSDOF 0
ENDMDL
MODEL 7
REMARK VINA RESULT:    -3.358     19.056     19.796
REMARK INTER + INTRA:          -3.358
REMARK INTER:                  -3.358
REMARK INTRA:                   0.000
REMARK UNBOUND:                 0.000
REMARK  Name = /home/anacleto/Desktop/manuscript_Mpro/naturecomm/supplementary_file_S2/6-chemical-library/molecular_docking/3D_ligand_structure/15.pdb
REMARK  0 active torsions:
REMARK  status: ('A' for Active; 'I' for Inactive)
REMARK                            x       y       z     vdW  Elec       q    Type
REMARK                         _______ _______ _______ _____ _____    ______ ____
ROOT
ATOM      1  C1  UNL     1      23.565  18.234  12.004  0.00  0.00    +0.000 C 
ATOM      2  C2  UNL     1      23.539  16.973  11.567  0.00  0.00    +0.000 C 
ATOM      3  C3  UNL     1      24.146  16.482  10.309  0.00  0.00    +0.000 C 
ATOM      4  O1  UNL     1      24.819  17.106   9.513  0.00  0.00    +0.000 OA
ATOM      5  N1  UNL     1      23.798  15.141  10.263  0.00  0.00    +0.000 N 
ATOM      6  N2  UNL     1      23.200  14.738  11.460  0.00  0.00    +0.000 N 
ATOM      7  C4  UNL     1      22.900  15.830  12.259  0.00  0.00    +0.000 C 
ATOM      8  O2  UNL     1      22.241  15.852  13.278  0.00  0.00    +0.000 OA
ATOM      9  H3  UNL     1      24.290  14.495   9.656  0.00  0.00    +0.000 HD
ATOM     10  H4  UNL     1      22.677  13.873  11.543  0.00  0.00    +0.000 HD
ENDROOT
TORSDOF 0
ENDMDL
MODEL 8
REMARK VINA RESULT:    -3.336      1.847      3.449
REMARK INTER + INTRA:          -3.336
REMARK INTER:                  -3.336
REMARK INTRA:                   0.000
REMARK UNBOUND:                 0.000
REMARK  Name = /home/anacleto/Desktop/manuscript_Mpro/naturecomm/supplementary_file_S2/6-chemical-library/molecular_docking/3D_ligand_structure/15.pdb
REMARK  0 active torsions:
REMARK  status: ('A' for Active; 'I' for Inactive)
REMARK                            x       y       z     vdW  Elec       q    Type
REMARK                         _______ _______ _______ _____ _____    ______ ____
ROOT
ATOM      1  C1  UNL     1      16.017  10.776  -3.773  0.00  0.00    +0.000 C 
ATOM      2  C2  UNL     1      15.100  11.639  -4.219  0.00  0.00    +0.000 C 
ATOM      3  C3  UNL     1      15.038  13.080  -3.888  0.00  0.00    +0.000 C 
ATOM      4  O1  UNL     1      15.828  13.730  -3.234  0.00  0.00    +0.000 OA
ATOM      5  N1  UNL     1      13.889  13.526  -4.522  0.00  0.00    +0.000 N 
ATOM      6  N2  UNL     1      13.357  12.534  -5.351  0.00  0.00    +0.000 N 
ATOM      7  C4  UNL     1      13.976  11.315  -5.127  0.00  0.00    +0.000 C 
ATOM      8  O2  UNL     1      13.654  10.224  -5.553  0.00  0.00    +0.000 OA
ATOM      9  H3  UNL     1      13.735  14.514  -4.689  0.00  0.00    +0.000 HD
ATOM     10  H4  UNL     1      12.413  12.580  -5.718  0.00  0.00    +0.000 HD
ENDROOT
TORSDOF 0
ENDMDL
MODEL 9
REMARK VINA RESULT:    -3.320      1.719      2.040
REMARK INTER + INTRA:          -3.320
REMARK INTER:                  -3.320
REMARK INTRA:                   0.000
REMARK UNBOUND:                 0.000
REMARK  Name = /home/anacleto/Desktop/manuscript_Mpro/naturecomm/supplementary_file_S2/6-chemical-library/molecular_docking/3D_ligand_structure/15.pdb
REMARK  0 active torsions:
REMARK  status: ('A' for Active; 'I' for Inactive)
REMARK                            x       y       z     vdW  Elec       q    Type
REMARK                         _______ _______ _______ _____ _____    ______ ____
ROOT
ATOM      1  C1  UNL     1      16.776  13.015  -4.511  0.00  0.00    +0.000 C 
ATOM      2  C2  UNL     1      15.831  12.072  -4.560  0.00  0.00    +0.000 C 
ATOM      3  C3  UNL     1      15.399  11.344  -5.774  0.00  0.00    +0.000 C 
ATOM      4  O1  UNL     1      15.866  11.418  -6.893  0.00  0.00    +0.000 OA
ATOM      5  N1  UNL     1      14.363  10.535  -5.336  0.00  0.00    +0.000 N 
ATOM      6  N2  UNL     1      14.253  10.572  -3.943  0.00  0.00    +0.000 N 
ATOM      7  C4  UNL     1      15.039  11.580  -3.409  0.00  0.00    +0.000 C 
ATOM      8  O2  UNL     1      15.056  11.989  -2.265  0.00  0.00    +0.000 OA
ATOM      9  H3  UNL     1      14.052   9.741  -5.885  0.00  0.00    +0.000 HD
ATOM     10  H4  UNL     1      13.432  10.237  -3.452  0.00  0.00    +0.000 HD
ENDROOT
TORSDOF 0
ENDMDL
