MODEL 1
REMARK VINA RESULT:    -4.895      0.000      0.000
REMARK INTER + INTRA:          -4.895
REMARK INTER:                  -4.895
REMARK INTRA:                   0.000
REMARK UNBOUND:                 0.000
REMARK  Name = /home/anacleto/Desktop/manuscript_Mpro/naturecomm/supplementary_file_S2/6-chemical-library/molecular_docking/3D_ligand_structure/1459.pdb
REMARK  0 active torsions:
REMARK  status: ('A' for Active; 'I' for Inactive)
REMARK                            x       y       z     vdW  Elec       q    Type
REMARK                         _______ _______ _______ _____ _____    ______ ____
ROOT
ATOM      1  C1  UNL     1     -19.994  10.159 -38.070  0.00  0.00    +0.000 C 
ATOM      2  N1  UNL     1     -18.521  10.138 -37.917  0.00  0.00    +0.000 NA
ATOM      3  C2  UNL     1     -17.862   9.365 -38.991  0.00  0.00    +0.000 C 
ATOM      4  C3  UNL     1     -18.242   7.862 -38.976  0.00  0.00    +0.000 C 
ATOM      5  C4  UNL     1     -19.707   7.746 -38.752  0.00  0.00    +0.000 A 
ATOM      6  C5  UNL     1     -20.510   8.779 -38.317  0.00  0.00    +0.000 A 
ATOM      7  C6  UNL     1     -21.832   8.261 -38.209  0.00  0.00    +0.000 A 
ATOM      8  N2  UNL     1     -20.466   6.624 -38.896  0.00  0.00    +0.000 N 
ATOM      9  C7  UNL     1     -21.778   6.912 -38.579  0.00  0.00    +0.000 A 
ATOM     10  C8  UNL     1     -22.908   6.087 -38.588  0.00  0.00    +0.000 A 
ATOM     11  C9  UNL     1     -24.130   6.653 -38.212  0.00  0.00    +0.000 A 
ATOM     12  C10 UNL     1     -24.215   7.994 -37.841  0.00  0.00    +0.000 A 
ATOM     13  C11 UNL     1     -23.077   8.807 -37.835  0.00  0.00    +0.000 A 
ATOM     14  H3  UNL     1     -18.187  11.099 -37.940  0.00  0.00    +0.000 HD
ATOM     15  H8  UNL     1     -20.132   5.715 -39.186  0.00  0.00    +0.000 HD
ENDROOT
TORSDOF 0
ENDMDL
MODEL 2
REMARK VINA RESULT:    -4.772      6.528      8.402
REMARK INTER + INTRA:          -4.772
REMARK INTER:                  -4.772
REMARK INTRA:                   0.000
REMARK UNBOUND:                 0.000
REMARK  Name = /home/anacleto/Desktop/manuscript_Mpro/naturecomm/supplementary_file_S2/6-chemical-library/molecular_docking/3D_ligand_structure/1459.pdb
REMARK  0 active torsions:
REMARK  status: ('A' for Active; 'I' for Inactive)
REMARK                            x       y       z     vdW  Elec       q    Type
REMARK                         _______ _______ _______ _____ _____    ______ ____
ROOT
ATOM      1  C1  UNL     1     -30.097   5.492 -39.029  0.00  0.00    +0.000 C 
ATOM      2  N1  UNL     1     -30.515   6.912 -39.077  0.00  0.00    +0.000 NA
ATOM      3  C2  UNL     1     -29.812   7.661 -40.140  0.00  0.00    +0.000 C 
ATOM      4  C3  UNL     1     -28.282   7.749 -39.908  0.00  0.00    +0.000 C 
ATOM      5  C4  UNL     1     -27.792   6.415 -39.475  0.00  0.00    +0.000 A 
ATOM      6  C5  UNL     1     -28.607   5.388 -39.050  0.00  0.00    +0.000 A 
ATOM      7  C6  UNL     1     -27.759   4.297 -38.706  0.00  0.00    +0.000 A 
ATOM      8  N2  UNL     1     -26.492   6.014 -39.389  0.00  0.00    +0.000 N 
ATOM      9  C7  UNL     1     -26.441   4.714 -38.929  0.00  0.00    +0.000 A 
ATOM     10  C8  UNL     1     -25.338   3.885 -38.693  0.00  0.00    +0.000 A 
ATOM     11  C9  UNL     1     -25.585   2.594 -38.218  0.00  0.00    +0.000 A 
ATOM     12  C10 UNL     1     -26.886   2.150 -37.988  0.00  0.00    +0.000 A 
ATOM     13  C11 UNL     1     -27.980   2.990 -38.227  0.00  0.00    +0.000 A 
ATOM     14  H3  UNL     1     -31.517   6.941 -39.251  0.00  0.00    +0.000 HD
ATOM     15  H8  UNL     1     -25.683   6.573 -39.621  0.00  0.00    +0.000 HD
ENDROOT
TORSDOF 0
ENDMDL
MODEL 3
REMARK VINA RESULT:    -4.661      1.638      3.029
REMARK INTER + INTRA:          -4.661
REMARK INTER:                  -4.661
REMARK INTRA:                   0.000
REMARK UNBOUND:                 0.000
REMARK  Name = /home/anacleto/Desktop/manuscript_Mpro/naturecomm/supplementary_file_S2/6-chemical-library/molecular_docking/3D_ligand_structure/1459.pdb
REMARK  0 active torsions:
REMARK  status: ('A' for Active; 'I' for Inactive)
REMARK                            x       y       z     vdW  Elec       q    Type
REMARK                         _______ _______ _______ _____ _____    ______ ____
ROOT
ATOM      1  C1  UNL     1     -17.741   8.141 -40.932  0.00  0.00    +0.000 C 
ATOM      2  N1  UNL     1     -16.868   9.264 -41.344  0.00  0.00    +0.000 NA
ATOM      3  C2  UNL     1     -16.129   9.841 -40.200  0.00  0.00    +0.000 C 
ATOM      4  C3  UNL     1     -17.060  10.485 -39.141  0.00  0.00    +0.000 C 
ATOM      5  C4  UNL     1     -18.216   9.579 -38.913  0.00  0.00    +0.000 A 
ATOM      6  C5  UNL     1     -18.549   8.523 -39.735  0.00  0.00    +0.000 A 
ATOM      7  C6  UNL     1     -19.720   7.924 -39.189  0.00  0.00    +0.000 A 
ATOM      8  N2  UNL     1     -19.132   9.665 -37.908  0.00  0.00    +0.000 N 
ATOM      9  C7  UNL     1     -20.063   8.656 -38.046  0.00  0.00    +0.000 A 
ATOM     10  C8  UNL     1     -21.174   8.341 -37.255  0.00  0.00    +0.000 A 
ATOM     11  C9  UNL     1     -21.956   7.248 -37.638  0.00  0.00    +0.000 A 
ATOM     12  C10 UNL     1     -21.638   6.499 -38.769  0.00  0.00    +0.000 A 
ATOM     13  C11 UNL     1     -20.526   6.826 -39.553  0.00  0.00    +0.000 A 
ATOM     14  H3  UNL     1     -16.204   8.914 -42.031  0.00  0.00    +0.000 HD
ATOM     15  H8  UNL     1     -19.142  10.358 -37.172  0.00  0.00    +0.000 HD
ENDROOT
TORSDOF 0
ENDMDL
MODEL 4
REMARK VINA RESULT:    -4.660      3.762      5.804
REMARK INTER + INTRA:          -4.660
REMARK INTER:                  -4.660
REMARK INTRA:                   0.000
REMARK UNBOUND:                 0.000
REMARK  Name = /home/anacleto/Desktop/manuscript_Mpro/naturecomm/supplementary_file_S2/6-chemical-library/molecular_docking/3D_ligand_structure/1459.pdb
REMARK  0 active torsions:
REMARK  status: ('A' for Active; 'I' for Inactive)
REMARK                            x       y       z     vdW  Elec       q    Type
REMARK                         _______ _______ _______ _____ _____    ______ ____
ROOT
ATOM      1  C1  UNL     1     -25.388   7.051 -39.669  0.00  0.00    +0.000 C 
ATOM      2  N1  UNL     1     -24.283   7.843 -39.082  0.00  0.00    +0.000 NA
ATOM      3  C2  UNL     1     -23.008   7.095 -39.075  0.00  0.00    +0.000 C 
ATOM      4  C3  UNL     1     -23.053   5.831 -38.179  0.00  0.00    +0.000 C 
ATOM      5  C4  UNL     1     -24.340   5.127 -38.418  0.00  0.00    +0.000 A 
ATOM      6  C5  UNL     1     -25.418   5.681 -39.075  0.00  0.00    +0.000 A 
ATOM      7  C6  UNL     1     -26.452   4.702 -39.077  0.00  0.00    +0.000 A 
ATOM      8  N2  UNL     1     -24.669   3.870 -38.005  0.00  0.00    +0.000 N 
ATOM      9  C7  UNL     1     -25.958   3.579 -38.404  0.00  0.00    +0.000 A 
ATOM     10  C8  UNL     1     -26.716   2.417 -38.217  0.00  0.00    +0.000 A 
ATOM     11  C9  UNL     1     -28.015   2.399 -38.734  0.00  0.00    +0.000 A 
ATOM     12  C10 UNL     1     -28.534   3.502 -39.411  0.00  0.00    +0.000 A 
ATOM     13  C11 UNL     1     -27.765   4.657 -39.589  0.00  0.00    +0.000 A 
ATOM     14  H3  UNL     1     -24.173   8.691 -39.635  0.00  0.00    +0.000 HD
ATOM     15  H8  UNL     1     -24.074   3.242 -37.485  0.00  0.00    +0.000 HD
ENDROOT
TORSDOF 0
ENDMDL
MODEL 5
REMARK VINA RESULT:    -4.625     14.267     16.892
REMARK INTER + INTRA:          -4.625
REMARK INTER:                  -4.625
REMARK INTRA:                   0.000
REMARK UNBOUND:                 0.000
REMARK  Name = /home/anacleto/Desktop/manuscript_Mpro/naturecomm/supplementary_file_S2/6-chemical-library/molecular_docking/3D_ligand_structure/1459.pdb
REMARK  0 active torsions:
REMARK  status: ('A' for Active; 'I' for Inactive)
REMARK                            x       y       z     vdW  Elec       q    Type
REMARK                         _______ _______ _______ _____ _____    ______ ____
ROOT
ATOM      1  C1  UNL     1     -36.877  10.856 -31.463  0.00  0.00    +0.000 C 
ATOM      2  N1  UNL     1     -37.592  10.827 -30.166  0.00  0.00    +0.000 NA
ATOM      3  C2  UNL     1     -37.998  12.178 -29.727  0.00  0.00    +0.000 C 
ATOM      4  C3  UNL     1     -36.793  13.112 -29.447  0.00  0.00    +0.000 C 
ATOM      5  C4  UNL     1     -35.798  12.940 -30.538  0.00  0.00    +0.000 A 
ATOM      6  C5  UNL     1     -35.814  11.904 -31.447  0.00  0.00    +0.000 A 
ATOM      7  C6  UNL     1     -34.692  12.086 -32.305  0.00  0.00    +0.000 A 
ATOM      8  N2  UNL     1     -34.717  13.732 -30.786  0.00  0.00    +0.000 N 
ATOM      9  C7  UNL     1     -34.024  13.237 -31.871  0.00  0.00    +0.000 A 
ATOM     10  C8  UNL     1     -32.865  13.717 -32.494  0.00  0.00    +0.000 A 
ATOM     11  C9  UNL     1     -32.375  13.003 -33.591  0.00  0.00    +0.000 A 
ATOM     12  C10 UNL     1     -33.019  11.855 -34.047  0.00  0.00    +0.000 A 
ATOM     13  C11 UNL     1     -34.176  11.386 -33.415  0.00  0.00    +0.000 A 
ATOM     14  H3  UNL     1     -38.420  10.245 -30.274  0.00  0.00    +0.000 HD
ATOM     15  H8  UNL     1     -34.452  14.554 -30.261  0.00  0.00    +0.000 HD
ENDROOT
TORSDOF 0
ENDMDL
MODEL 6
REMARK VINA RESULT:    -4.530     15.818     17.171
REMARK INTER + INTRA:          -4.530
REMARK INTER:                  -4.530
REMARK INTRA:                   0.000
REMARK UNBOUND:                 0.000
REMARK  Name = /home/anacleto/Desktop/manuscript_Mpro/naturecomm/supplementary_file_S2/6-chemical-library/molecular_docking/3D_ligand_structure/1459.pdb
REMARK  0 active torsions:
REMARK  status: ('A' for Active; 'I' for Inactive)
REMARK                            x       y       z     vdW  Elec       q    Type
REMARK                         _______ _______ _______ _____ _____    ______ ____
ROOT
ATOM      1  C1  UNL     1     -23.100  -5.740 -26.191  0.00  0.00    +0.000 C 
ATOM      2  N1  UNL     1     -21.729  -5.898 -26.730  0.00  0.00    +0.000 NA
ATOM      3  C2  UNL     1     -21.132  -4.601 -27.115  0.00  0.00    +0.000 C 
ATOM      4  C3  UNL     1     -21.891  -3.905 -28.273  0.00  0.00    +0.000 C 
ATOM      5  C4  UNL     1     -23.350  -4.017 -28.017  0.00  0.00    +0.000 A 
ATOM      6  C5  UNL     1     -23.913  -4.866 -27.088  0.00  0.00    +0.000 A 
ATOM      7  C6  UNL     1     -25.324  -4.690 -27.165  0.00  0.00    +0.000 A 
ATOM      8  N2  UNL     1     -24.345  -3.348 -28.667  0.00  0.00    +0.000 N 
ATOM      9  C7  UNL     1     -25.567  -3.735 -28.159  0.00  0.00    +0.000 A 
ATOM     10  C8  UNL     1     -26.858  -3.317 -28.503  0.00  0.00    +0.000 A 
ATOM     11  C9  UNL     1     -27.932  -3.887 -27.813  0.00  0.00    +0.000 A 
ATOM     12  C10 UNL     1     -27.721  -4.839 -26.817  0.00  0.00    +0.000 A 
ATOM     13  C11 UNL     1     -26.425  -5.249 -26.484  0.00  0.00    +0.000 A 
ATOM     14  H3  UNL     1     -21.155  -6.333 -26.012  0.00  0.00    +0.000 HD
ATOM     15  H8  UNL     1     -24.219  -2.675 -29.410  0.00  0.00    +0.000 HD
ENDROOT
TORSDOF 0
ENDMDL
MODEL 7
REMARK VINA RESULT:    -4.503      3.072      5.826
REMARK INTER + INTRA:          -4.503
REMARK INTER:                  -4.503
REMARK INTRA:                   0.000
REMARK UNBOUND:                 0.000
REMARK  Name = /home/anacleto/Desktop/manuscript_Mpro/naturecomm/supplementary_file_S2/6-chemical-library/molecular_docking/3D_ligand_structure/1459.pdb
REMARK  0 active torsions:
REMARK  status: ('A' for Active; 'I' for Inactive)
REMARK                            x       y       z     vdW  Elec       q    Type
REMARK                         _______ _______ _______ _____ _____    ______ ____
ROOT
ATOM      1  C1  UNL     1     -25.921   7.584 -39.073  0.00  0.00    +0.000 C 
ATOM      2  N1  UNL     1     -27.323   7.964 -38.786  0.00  0.00    +0.000 NA
ATOM      3  C2  UNL     1     -27.540   9.421 -38.914  0.00  0.00    +0.000 C 
ATOM      4  C3  UNL     1     -26.729  10.247 -37.883  0.00  0.00    +0.000 C 
ATOM      5  C4  UNL     1     -25.353   9.693 -37.810  0.00  0.00    +0.000 A 
ATOM      6  C5  UNL     1     -24.979   8.471 -38.328  0.00  0.00    +0.000 A 
ATOM      7  C6  UNL     1     -23.596   8.300 -38.034  0.00  0.00    +0.000 A 
ATOM      8  N2  UNL     1     -24.276  10.266 -37.201  0.00  0.00    +0.000 N 
ATOM      9  C7  UNL     1     -23.180   9.437 -37.331  0.00  0.00    +0.000 A 
ATOM     10  C8  UNL     1     -21.865   9.606 -36.881  0.00  0.00    +0.000 A 
ATOM     11  C9  UNL     1     -20.948   8.588 -37.157  0.00  0.00    +0.000 A 
ATOM     12  C10 UNL     1     -21.332   7.446 -37.856  0.00  0.00    +0.000 A 
ATOM     13  C11 UNL     1     -22.650   7.289 -38.300  0.00  0.00    +0.000 A 
ATOM     14  H3  UNL     1     -27.925   7.475 -39.444  0.00  0.00    +0.000 HD
ATOM     15  H8  UNL     1     -24.269  11.155 -36.723  0.00  0.00    +0.000 HD
ENDROOT
TORSDOF 0
ENDMDL
MODEL 8
REMARK VINA RESULT:    -4.406     17.144     18.910
REMARK INTER + INTRA:          -4.406
REMARK INTER:                  -4.406
REMARK INTRA:                   0.000
REMARK UNBOUND:                 0.000
REMARK  Name = /home/anacleto/Desktop/manuscript_Mpro/naturecomm/supplementary_file_S2/6-chemical-library/molecular_docking/3D_ligand_structure/1459.pdb
REMARK  0 active torsions:
REMARK  status: ('A' for Active; 'I' for Inactive)
REMARK                            x       y       z     vdW  Elec       q    Type
REMARK                         _______ _______ _______ _____ _____    ______ ____
ROOT
ATOM      1  C1  UNL     1     -27.893  -5.263 -26.385  0.00  0.00    +0.000 C 
ATOM      2  N1  UNL     1     -28.650  -4.408 -27.328  0.00  0.00    +0.000 NA
ATOM      3  C2  UNL     1     -27.867  -4.094 -28.542  0.00  0.00    +0.000 C 
ATOM      4  C3  UNL     1     -26.597  -3.257 -28.244  0.00  0.00    +0.000 C 
ATOM      5  C4  UNL     1     -25.930  -3.820 -27.042  0.00  0.00    +0.000 A 
ATOM      6  C5  UNL     1     -26.519  -4.717 -26.175  0.00  0.00    +0.000 A 
ATOM      7  C6  UNL     1     -25.569  -4.991 -25.151  0.00  0.00    +0.000 A 
ATOM      8  N2  UNL     1     -24.680  -3.522 -26.589  0.00  0.00    +0.000 N 
ATOM      9  C7  UNL     1     -24.427  -4.233 -25.434  0.00  0.00    +0.000 A 
ATOM     10  C8  UNL     1     -23.285  -4.259 -24.625  0.00  0.00    +0.000 A 
ATOM     11  C9  UNL     1     -23.307  -5.084 -23.496  0.00  0.00    +0.000 A 
ATOM     12  C10 UNL     1     -24.428  -5.852 -23.190  0.00  0.00    +0.000 A 
ATOM     13  C11 UNL     1     -25.564  -5.815 -24.007  0.00  0.00    +0.000 A 
ATOM     14  H3  UNL     1     -29.499  -4.903 -27.593  0.00  0.00    +0.000 HD
ATOM     15  H8  UNL     1     -24.031  -2.878 -27.020  0.00  0.00    +0.000 HD
ENDROOT
TORSDOF 0
ENDMDL
MODEL 9
REMARK VINA RESULT:    -4.396      3.763      6.868
REMARK INTER + INTRA:          -4.396
REMARK INTER:                  -4.396
REMARK INTRA:                   0.000
REMARK UNBOUND:                 0.000
REMARK  Name = /home/anacleto/Desktop/manuscript_Mpro/naturecomm/supplementary_file_S2/6-chemical-library/molecular_docking/3D_ligand_structure/1459.pdb
REMARK  0 active torsions:
REMARK  status: ('A' for Active; 'I' for Inactive)
REMARK                            x       y       z     vdW  Elec       q    Type
REMARK                         _______ _______ _______ _____ _____    ______ ____
ROOT
ATOM      1  C1  UNL     1     -27.441   5.543 -39.879  0.00  0.00    +0.000 C 
ATOM      2  N1  UNL     1     -28.195   4.289 -40.109  0.00  0.00    +0.000 NA
ATOM      3  C2  UNL     1     -28.266   3.453 -38.892  0.00  0.00    +0.000 C 
ATOM      4  C3  UNL     1     -26.877   2.951 -38.421  0.00  0.00    +0.000 C 
ATOM      5  C4  UNL     1     -25.912   4.077 -38.508  0.00  0.00    +0.000 A 
ATOM      6  C5  UNL     1     -26.149   5.253 -39.188  0.00  0.00    +0.000 A 
ATOM      7  C6  UNL     1     -24.981   6.056 -39.050  0.00  0.00    +0.000 A 
ATOM      8  N2  UNL     1     -24.656   4.115 -37.979  0.00  0.00    +0.000 N 
ATOM      9  C7  UNL     1     -24.064   5.323 -38.288  0.00  0.00    +0.000 A 
ATOM     10  C8  UNL     1     -22.796   5.814 -37.956  0.00  0.00    +0.000 A 
ATOM     11  C9  UNL     1     -22.454   7.091 -38.412  0.00  0.00    +0.000 A 
ATOM     12  C10 UNL     1     -23.347   7.846 -39.170  0.00  0.00    +0.000 A 
ATOM     13  C11 UNL     1     -24.611   7.341 -39.496  0.00  0.00    +0.000 A 
ATOM     14  H3  UNL     1     -29.137   4.537 -40.403  0.00  0.00    +0.000 HD
ATOM     15  H8  UNL     1     -24.215   3.380 -37.446  0.00  0.00    +0.000 HD
ENDROOT
TORSDOF 0
ENDMDL
