MODEL 1
REMARK VINA RESULT:    -4.515      0.000      0.000
REMARK INTER + INTRA:          -6.767
REMARK INTER:                  -6.470
REMARK INTRA:                  -0.298
REMARK UNBOUND:                -0.933
REMARK  Name = /home/anacleto/Desktop/manuscript_Mpro/naturecomm/supplementary_file_S2/6-chemical-library/molecular_docking/3D_ligand_structure/678.pdb
REMARK  5 active torsions:
REMARK  status: ('A' for Active; 'I' for Inactive)
REMARK    1  A    between atoms: N1_6  and  C6_7
REMARK    2  A    between atoms: C6_7  and  C7_8
REMARK    3  A    between atoms: C7_8  and  O1_9
REMARK    4  A    between atoms: O1_9  and  C8_10
REMARK    5  A    between atoms: C8_10  and  C9_11
REMARK                            x       y       z     vdW  Elec       q    Type
REMARK                         _______ _______ _______ _____ _____    ______ ____
ROOT
ATOM      1  C7  UNL     1     -24.280   6.000 -39.208  0.00  0.00    +0.000 C 
ENDROOT
BRANCH   1   2
ATOM      2  C6  UNL     1     -25.794   5.692 -39.159  0.00  0.00    +0.000 C 
BRANCH   2   8
ATOM      3  C1  UNL     1     -27.656   4.178 -39.742  0.00  0.00    +0.000 C 
ATOM      4  C2  UNL     1     -27.968   3.572 -38.372  0.00  0.00    +0.000 C 
ATOM      5  C3  UNL     1     -27.088   2.357 -38.096  0.00  0.00    +0.000 C 
ATOM      6  C4  UNL     1     -25.615   2.685 -38.318  0.00  0.00    +0.000 C 
ATOM      7  C5  UNL     1     -25.389   3.343 -39.682  0.00  0.00    +0.000 C 
ATOM      8  N1  UNL     1     -26.239   4.516 -39.930  0.00  0.00    +0.000 NA
ENDBRANCH   2   8
ENDBRANCH   1   2
BRANCH   1   9
ATOM      9  O1  UNL     1     -23.648   6.201 -37.941  0.00  0.00    +0.000 OA
BRANCH   9  10
ATOM     10  C8  UNL     1     -22.238   5.985 -37.923  0.00  0.00    +0.000 C 
BRANCH  10  11
ATOM     11  C9  UNL     1     -21.451   7.274 -37.950  0.00  0.00    +0.000 A 
ATOM     12  C10 UNL     1     -20.239   7.354 -38.650  0.00  0.00    +0.000 A 
ATOM     13  C11 UNL     1     -19.519   8.550 -38.682  0.00  0.00    +0.000 A 
ATOM     14  C12 UNL     1     -20.006   9.676 -38.020  0.00  0.00    +0.000 A 
ATOM     15  C13 UNL     1     -21.213   9.610 -37.327  0.00  0.00    +0.000 A 
ATOM     16  C14 UNL     1     -21.934   8.414 -37.294  0.00  0.00    +0.000 A 
ENDBRANCH  10  11
ENDBRANCH   9  10
ENDBRANCH   1   9
TORSDOF 5
ENDMDL
MODEL 2
REMARK VINA RESULT:    -4.367      1.787      7.346
REMARK INTER + INTRA:          -6.576
REMARK INTER:                  -6.298
REMARK INTRA:                  -0.278
REMARK UNBOUND:                -0.933
REMARK  Name = /home/anacleto/Desktop/manuscript_Mpro/naturecomm/supplementary_file_S2/6-chemical-library/molecular_docking/3D_ligand_structure/678.pdb
REMARK  5 active torsions:
REMARK  status: ('A' for Active; 'I' for Inactive)
REMARK    1  A    between atoms: N1_6  and  C6_7
REMARK    2  A    between atoms: C6_7  and  C7_8
REMARK    3  A    between atoms: C7_8  and  O1_9
REMARK    4  A    between atoms: O1_9  and  C8_10
REMARK    5  A    between atoms: C8_10  and  C9_11
REMARK                            x       y       z     vdW  Elec       q    Type
REMARK                         _______ _______ _______ _____ _____    ______ ____
ROOT
ATOM      1  C7  UNL     1     -23.707   7.281 -38.452  0.00  0.00    +0.000 C 
ENDROOT
BRANCH   1   2
ATOM      2  C6  UNL     1     -22.287   7.448 -39.041  0.00  0.00    +0.000 C 
BRANCH   2   8
ATOM      3  C1  UNL     1     -21.328   8.457 -37.001  0.00  0.00    +0.000 C 
ATOM      4  C2  UNL     1     -21.105   9.895 -37.474  0.00  0.00    +0.000 C 
ATOM      5  C3  UNL     1     -19.753  10.044 -38.165  0.00  0.00    +0.000 C 
ATOM      6  C4  UNL     1     -19.575   8.989 -39.252  0.00  0.00    +0.000 C 
ATOM      7  C5  UNL     1     -19.871   7.584 -38.722  0.00  0.00    +0.000 C 
ATOM      8  N1  UNL     1     -21.180   7.456 -38.066  0.00  0.00    +0.000 NA
ENDBRANCH   2   8
ENDBRANCH   1   2
BRANCH   1   9
ATOM      9  O1  UNL     1     -24.024   5.975 -37.964  0.00  0.00    +0.000 OA
BRANCH   9  10
ATOM     10  C8  UNL     1     -24.302   5.000 -38.968  0.00  0.00    +0.000 C 
BRANCH  10  11
ATOM     11  C9  UNL     1     -25.605   4.274 -38.730  0.00  0.00    +0.000 A 
ATOM     12  C10 UNL     1     -26.831   4.928 -38.918  0.00  0.00    +0.000 A 
ATOM     13  C11 UNL     1     -28.033   4.249 -38.708  0.00  0.00    +0.000 A 
ATOM     14  C12 UNL     1     -28.020   2.912 -38.313  0.00  0.00    +0.000 A 
ATOM     15  C13 UNL     1     -26.808   2.251 -38.130  0.00  0.00    +0.000 A 
ATOM     16  C14 UNL     1     -25.605   2.928 -38.340  0.00  0.00    +0.000 A 
ENDBRANCH  10  11
ENDBRANCH   9  10
ENDBRANCH   1   9
TORSDOF 5
ENDMDL
MODEL 3
REMARK VINA RESULT:    -4.266      5.363      7.028
REMARK INTER + INTRA:          -6.445
REMARK INTER:                  -5.313
REMARK INTRA:                  -1.133
REMARK UNBOUND:                -0.933
REMARK  Name = /home/anacleto/Desktop/manuscript_Mpro/naturecomm/supplementary_file_S2/6-chemical-library/molecular_docking/3D_ligand_structure/678.pdb
REMARK  5 active torsions:
REMARK  status: ('A' for Active; 'I' for Inactive)
REMARK    1  A    between atoms: N1_6  and  C6_7
REMARK    2  A    between atoms: C6_7  and  C7_8
REMARK    3  A    between atoms: C7_8  and  O1_9
REMARK    4  A    between atoms: O1_9  and  C8_10
REMARK    5  A    between atoms: C8_10  and  C9_11
REMARK                            x       y       z     vdW  Elec       q    Type
REMARK                         _______ _______ _______ _____ _____    ______ ____
ROOT
ATOM      1  C7  UNL     1     -30.667   3.689 -41.565  0.00  0.00    +0.000 C 
ENDROOT
BRANCH   1   2
ATOM      2  C6  UNL     1     -30.884   4.245 -40.139  0.00  0.00    +0.000 C 
BRANCH   2   8
ATOM      3  C1  UNL     1     -29.639   6.255 -40.852  0.00  0.00    +0.000 C 
ATOM      4  C2  UNL     1     -28.215   5.862 -40.452  0.00  0.00    +0.000 C 
ATOM      5  C3  UNL     1     -27.932   6.223 -38.998  0.00  0.00    +0.000 C 
ATOM      6  C4  UNL     1     -29.018   5.674 -38.077  0.00  0.00    +0.000 C 
ATOM      7  C5  UNL     1     -30.415   6.056 -38.571  0.00  0.00    +0.000 C 
ATOM      8  N1  UNL     1     -30.674   5.695 -39.972  0.00  0.00    +0.000 NA
ENDBRANCH   2   8
ENDBRANCH   1   2
BRANCH   1   9
ATOM      9  O1  UNL     1     -29.520   2.853 -41.735  0.00  0.00    +0.000 OA
BRANCH   9  10
ATOM     10  C8  UNL     1     -29.255   1.958 -40.656  0.00  0.00    +0.000 C 
BRANCH  10  11
ATOM     11  C9  UNL     1     -27.944   2.250 -39.965  0.00  0.00    +0.000 A 
ATOM     12  C10 UNL     1     -27.863   2.260 -38.565  0.00  0.00    +0.000 A 
ATOM     13  C11 UNL     1     -26.646   2.520 -37.931  0.00  0.00    +0.000 A 
ATOM     14  C12 UNL     1     -25.502   2.767 -38.688  0.00  0.00    +0.000 A 
ATOM     15  C13 UNL     1     -25.570   2.752 -40.079  0.00  0.00    +0.000 A 
ATOM     16  C14 UNL     1     -26.785   2.492 -40.716  0.00  0.00    +0.000 A 
ENDBRANCH  10  11
ENDBRANCH   9  10
ENDBRANCH   1   9
TORSDOF 5
ENDMDL
MODEL 4
REMARK VINA RESULT:    -4.120     25.573     27.870
REMARK INTER + INTRA:          -6.257
REMARK INTER:                  -6.047
REMARK INTRA:                  -0.210
REMARK UNBOUND:                -0.933
REMARK  Name = /home/anacleto/Desktop/manuscript_Mpro/naturecomm/supplementary_file_S2/6-chemical-library/molecular_docking/3D_ligand_structure/678.pdb
REMARK  5 active torsions:
REMARK  status: ('A' for Active; 'I' for Inactive)
REMARK    1  A    between atoms: N1_6  and  C6_7
REMARK    2  A    between atoms: C6_7  and  C7_8
REMARK    3  A    between atoms: C7_8  and  O1_9
REMARK    4  A    between atoms: O1_9  and  C8_10
REMARK    5  A    between atoms: C8_10  and  C9_11
REMARK                            x       y       z     vdW  Elec       q    Type
REMARK                         _______ _______ _______ _____ _____    ______ ____
ROOT
ATOM      1  C7  UNL     1     -37.280   5.035 -14.664  0.00  0.00    +0.000 C 
ENDROOT
BRANCH   1   2
ATOM      2  C6  UNL     1     -38.396   5.977 -14.155  0.00  0.00    +0.000 C 
BRANCH   2   8
ATOM      3  C1  UNL     1     -39.029   8.244 -13.407  0.00  0.00    +0.000 C 
ATOM      4  C2  UNL     1     -39.567   8.833 -14.713  0.00  0.00    +0.000 C 
ATOM      5  C3  UNL     1     -38.443   9.440 -15.546  0.00  0.00    +0.000 C 
ATOM      6  C4  UNL     1     -37.299   8.447 -15.728  0.00  0.00    +0.000 C 
ATOM      7  C5  UNL     1     -36.854   7.855 -14.388  0.00  0.00    +0.000 C 
ATOM      8  N1  UNL     1     -37.948   7.268 -13.601  0.00  0.00    +0.000 NA
ENDBRANCH   2   8
ENDBRANCH   1   2
BRANCH   1   9
ATOM      9  O1  UNL     1     -37.412   3.662 -14.289  0.00  0.00    +0.000 OA
BRANCH   9  10
ATOM     10  C8  UNL     1     -38.414   2.932 -14.993  0.00  0.00    +0.000 C 
BRANCH  10  11
ATOM     11  C9  UNL     1     -37.837   1.835 -15.857  0.00  0.00    +0.000 A 
ATOM     12  C10 UNL     1     -37.996   0.488 -15.499  0.00  0.00    +0.000 A 
ATOM     13  C11 UNL     1     -37.470  -0.523 -16.306  0.00  0.00    +0.000 A 
ATOM     14  C12 UNL     1     -36.787  -0.199 -17.477  0.00  0.00    +0.000 A 
ATOM     15  C13 UNL     1     -36.629   1.136 -17.845  0.00  0.00    +0.000 A 
ATOM     16  C14 UNL     1     -37.154   2.148 -17.040  0.00  0.00    +0.000 A 
ENDBRANCH  10  11
ENDBRANCH   9  10
ENDBRANCH   1   9
TORSDOF 5
ENDMDL
MODEL 5
REMARK VINA RESULT:    -4.055      1.323      2.165
REMARK INTER + INTRA:          -6.173
REMARK INTER:                  -5.774
REMARK INTRA:                  -0.399
REMARK UNBOUND:                -0.933
REMARK  Name = /home/anacleto/Desktop/manuscript_Mpro/naturecomm/supplementary_file_S2/6-chemical-library/molecular_docking/3D_ligand_structure/678.pdb
REMARK  5 active torsions:
REMARK  status: ('A' for Active; 'I' for Inactive)
REMARK    1  A    between atoms: N1_6  and  C6_7
REMARK    2  A    between atoms: C6_7  and  C7_8
REMARK    3  A    between atoms: C7_8  and  O1_9
REMARK    4  A    between atoms: O1_9  and  C8_10
REMARK    5  A    between atoms: C8_10  and  C9_11
REMARK                            x       y       z     vdW  Elec       q    Type
REMARK                         _______ _______ _______ _____ _____    ______ ____
ROOT
ATOM      1  C7  UNL     1     -25.734   5.635 -41.245  0.00  0.00    +0.000 C 
ENDROOT
BRANCH   1   2
ATOM      2  C6  UNL     1     -26.806   4.985 -40.341  0.00  0.00    +0.000 C 
BRANCH   2   8
ATOM      3  C1  UNL     1     -28.150   2.986 -39.795  0.00  0.00    +0.000 C 
ATOM      4  C2  UNL     1     -28.035   2.975 -38.270  0.00  0.00    +0.000 C 
ATOM      5  C3  UNL     1     -26.781   2.234 -37.819  0.00  0.00    +0.000 C 
ATOM      6  C4  UNL     1     -25.544   2.762 -38.539  0.00  0.00    +0.000 C 
ATOM      7  C5  UNL     1     -25.754   2.801 -40.055  0.00  0.00    +0.000 C 
ATOM      8  N1  UNL     1     -26.963   3.524 -40.473  0.00  0.00    +0.000 NA
ENDBRANCH   2   8
ENDBRANCH   1   2
BRANCH   1   9
ATOM      9  O1  UNL     1     -24.768   6.447 -40.573  0.00  0.00    +0.000 OA
BRANCH   9  10
ATOM     10  C8  UNL     1     -24.666   6.234 -39.167  0.00  0.00    +0.000 C 
BRANCH  10  11
ATOM     11  C9  UNL     1     -23.492   6.958 -38.551  0.00  0.00    +0.000 A 
ATOM     12  C10 UNL     1     -23.643   8.253 -38.035  0.00  0.00    +0.000 A 
ATOM     13  C11 UNL     1     -22.558   8.914 -37.457  0.00  0.00    +0.000 A 
ATOM     14  C12 UNL     1     -21.315   8.286 -37.385  0.00  0.00    +0.000 A 
ATOM     15  C13 UNL     1     -21.155   6.997 -37.888  0.00  0.00    +0.000 A 
ATOM     16  C14 UNL     1     -22.240   6.334 -38.466  0.00  0.00    +0.000 A 
ENDBRANCH  10  11
ENDBRANCH   9  10
ENDBRANCH   1   9
TORSDOF 5
ENDMDL
MODEL 6
REMARK VINA RESULT:    -4.045      2.077      6.882
REMARK INTER + INTRA:          -6.160
REMARK INTER:                  -5.810
REMARK INTRA:                  -0.349
REMARK UNBOUND:                -0.933
REMARK  Name = /home/anacleto/Desktop/manuscript_Mpro/naturecomm/supplementary_file_S2/6-chemical-library/molecular_docking/3D_ligand_structure/678.pdb
REMARK  5 active torsions:
REMARK  status: ('A' for Active; 'I' for Inactive)
REMARK    1  A    between atoms: N1_6  and  C6_7
REMARK    2  A    between atoms: C6_7  and  C7_8
REMARK    3  A    between atoms: C7_8  and  O1_9
REMARK    4  A    between atoms: O1_9  and  C8_10
REMARK    5  A    between atoms: C8_10  and  C9_11
REMARK                            x       y       z     vdW  Elec       q    Type
REMARK                         _______ _______ _______ _____ _____    ______ ____
ROOT
ATOM      1  C7  UNL     1     -25.520   8.428 -39.111  0.00  0.00    +0.000 C 
ENDROOT
BRANCH   1   2
ATOM      2  C6  UNL     1     -24.415   8.902 -38.140  0.00  0.00    +0.000 C 
BRANCH   2   8
ATOM      3  C1  UNL     1     -22.426   8.368 -39.503  0.00  0.00    +0.000 C 
ATOM      4  C2  UNL     1     -21.730   7.347 -38.601  0.00  0.00    +0.000 C 
ATOM      5  C3  UNL     1     -20.827   8.037 -37.583  0.00  0.00    +0.000 C 
ATOM      6  C4  UNL     1     -21.584   9.128 -36.832  0.00  0.00    +0.000 C 
ATOM      7  C5  UNL     1     -22.302  10.075 -37.796  0.00  0.00    +0.000 C 
ATOM      8  N1  UNL     1     -23.173   9.395 -38.765  0.00  0.00    +0.000 NA
ENDBRANCH   2   8
ENDBRANCH   1   2
BRANCH   1   9
ATOM      9  O1  UNL     1     -26.129   7.175 -38.791  0.00  0.00    +0.000 OA
BRANCH   9  10
ATOM     10  C8  UNL     1     -25.580   6.042 -39.461  0.00  0.00    +0.000 C 
BRANCH  10  11
ATOM     11  C9  UNL     1     -26.192   4.740 -39.002  0.00  0.00    +0.000 A 
ATOM     12  C10 UNL     1     -25.381   3.634 -38.710  0.00  0.00    +0.000 A 
ATOM     13  C11 UNL     1     -25.950   2.436 -38.275  0.00  0.00    +0.000 A 
ATOM     14  C12 UNL     1     -27.332   2.333 -38.124  0.00  0.00    +0.000 A 
ATOM     15  C13 UNL     1     -28.147   3.427 -38.406  0.00  0.00    +0.000 A 
ATOM     16  C14 UNL     1     -27.580   4.626 -38.840  0.00  0.00    +0.000 A 
ENDBRANCH  10  11
ENDBRANCH   9  10
ENDBRANCH   1   9
TORSDOF 5
ENDMDL
MODEL 7
REMARK VINA RESULT:    -3.861     14.930     17.584
REMARK INTER + INTRA:          -5.922
REMARK INTER:                  -5.549
REMARK INTRA:                  -0.373
REMARK UNBOUND:                -0.933
REMARK  Name = /home/anacleto/Desktop/manuscript_Mpro/naturecomm/supplementary_file_S2/6-chemical-library/molecular_docking/3D_ligand_structure/678.pdb
REMARK  5 active torsions:
REMARK  status: ('A' for Active; 'I' for Inactive)
REMARK    1  A    between atoms: N1_6  and  C6_7
REMARK    2  A    between atoms: C6_7  and  C7_8
REMARK    3  A    between atoms: C7_8  and  O1_9
REMARK    4  A    between atoms: O1_9  and  C8_10
REMARK    5  A    between atoms: C8_10  and  C9_11
REMARK                            x       y       z     vdW  Elec       q    Type
REMARK                         _______ _______ _______ _____ _____    ______ ____
ROOT
ATOM      1  C7  UNL     1     -38.734  -3.178 -33.498  0.00  0.00    +0.000 C 
ENDROOT
BRANCH   1   2
ATOM      2  C6  UNL     1     -38.794  -1.916 -34.388  0.00  0.00    +0.000 C 
BRANCH   2   8
ATOM      3  C1  UNL     1     -37.198  -2.847 -36.027  0.00  0.00    +0.000 C 
ATOM      4  C2  UNL     1     -35.944  -2.038 -35.692  0.00  0.00    +0.000 C 
ATOM      5  C3  UNL     1     -35.924  -0.715 -36.450  0.00  0.00    +0.000 C 
ATOM      6  C4  UNL     1     -37.233   0.045 -36.258  0.00  0.00    +0.000 C 
ATOM      7  C5  UNL     1     -38.444  -0.843 -36.553  0.00  0.00    +0.000 C 
ATOM      8  N1  UNL     1     -38.451  -2.111 -35.809  0.00  0.00    +0.000 NA
ENDBRANCH   2   8
ENDBRANCH   1   2
BRANCH   1   9
ATOM      9  O1  UNL     1     -38.086  -3.012 -32.234  0.00  0.00    +0.000 OA
BRANCH   9  10
ATOM     10  C8  UNL     1     -38.955  -2.753 -31.133  0.00  0.00    +0.000 C 
BRANCH  10  11
ATOM     11  C9  UNL     1     -38.560  -1.521 -30.355  0.00  0.00    +0.000 A 
ATOM     12  C10 UNL     1     -39.342  -0.359 -30.412  0.00  0.00    +0.000 A 
ATOM     13  C11 UNL     1     -38.978   0.774 -29.682  0.00  0.00    +0.000 A 
ATOM     14  C12 UNL     1     -37.834   0.755 -28.886  0.00  0.00    +0.000 A 
ATOM     15  C13 UNL     1     -37.052  -0.397 -28.816  0.00  0.00    +0.000 A 
ATOM     16  C14 UNL     1     -37.415  -1.531 -29.545  0.00  0.00    +0.000 A 
ENDBRANCH  10  11
ENDBRANCH   9  10
ENDBRANCH   1   9
TORSDOF 5
ENDMDL
MODEL 8
REMARK VINA RESULT:    -3.607     15.137     16.647
REMARK INTER + INTRA:          -5.594
REMARK INTER:                  -4.662
REMARK INTRA:                  -0.933
REMARK UNBOUND:                -0.933
REMARK  Name = /home/anacleto/Desktop/manuscript_Mpro/naturecomm/supplementary_file_S2/6-chemical-library/molecular_docking/3D_ligand_structure/678.pdb
REMARK  5 active torsions:
REMARK  status: ('A' for Active; 'I' for Inactive)
REMARK    1  A    between atoms: N1_6  and  C6_7
REMARK    2  A    between atoms: C6_7  and  C7_8
REMARK    3  A    between atoms: C7_8  and  O1_9
REMARK    4  A    between atoms: O1_9  and  C8_10
REMARK    5  A    between atoms: C8_10  and  C9_11
REMARK                            x       y       z     vdW  Elec       q    Type
REMARK                         _______ _______ _______ _____ _____    ______ ____
ROOT
ATOM      1  C7  UNL     1     -22.504  -4.635 -26.659  0.00  0.00    +0.000 C 
ENDROOT
BRANCH   1   2
ATOM      2  C6  UNL     1     -22.900  -4.931 -28.124  0.00  0.00    +0.000 C 
BRANCH   2   8
ATOM      3  C1  UNL     1     -22.811  -6.553 -29.984  0.00  0.00    +0.000 C 
ATOM      4  C2  UNL     1     -24.133  -6.248 -30.691  0.00  0.00    +0.000 C 
ATOM      5  C3  UNL     1     -25.281  -7.041 -30.076  0.00  0.00    +0.000 C 
ATOM      6  C4  UNL     1     -25.321  -6.862 -28.561  0.00  0.00    +0.000 C 
ATOM      7  C5  UNL     1     -23.951  -7.126 -27.931  0.00  0.00    +0.000 C 
ATOM      8  N1  UNL     1     -22.857  -6.349 -28.530  0.00  0.00    +0.000 NA
ENDBRANCH   2   8
ENDBRANCH   1   2
BRANCH   1   9
ATOM      9  O1  UNL     1     -23.404  -3.795 -25.933  0.00  0.00    +0.000 OA
BRANCH   9  10
ATOM     10  C8  UNL     1     -24.324  -4.478 -25.083  0.00  0.00    +0.000 C 
BRANCH  10  11
ATOM     11  C9  UNL     1     -25.693  -4.625 -25.703  0.00  0.00    +0.000 A 
ATOM     12  C10 UNL     1     -26.558  -5.647 -25.288  0.00  0.00    +0.000 A 
ATOM     13  C11 UNL     1     -27.827  -5.773 -25.857  0.00  0.00    +0.000 A 
ATOM     14  C12 UNL     1     -28.244  -4.877 -26.840  0.00  0.00    +0.000 A 
ATOM     15  C13 UNL     1     -27.395  -3.853 -27.255  0.00  0.00    +0.000 A 
ATOM     16  C14 UNL     1     -26.126  -3.726 -26.688  0.00  0.00    +0.000 A 
ENDBRANCH  10  11
ENDBRANCH   9  10
ENDBRANCH   1   9
TORSDOF 5
ENDMDL
MODEL 9
REMARK VINA RESULT:    -3.597     25.859     27.464
REMARK INTER + INTRA:          -5.581
REMARK INTER:                  -5.314
REMARK INTRA:                  -0.266
REMARK UNBOUND:                -0.933
REMARK  Name = /home/anacleto/Desktop/manuscript_Mpro/naturecomm/supplementary_file_S2/6-chemical-library/molecular_docking/3D_ligand_structure/678.pdb
REMARK  5 active torsions:
REMARK  status: ('A' for Active; 'I' for Inactive)
REMARK    1  A    between atoms: N1_6  and  C6_7
REMARK    2  A    between atoms: C6_7  and  C7_8
REMARK    3  A    between atoms: C7_8  and  O1_9
REMARK    4  A    between atoms: O1_9  and  C8_10
REMARK    5  A    between atoms: C8_10  and  C9_11
REMARK                            x       y       z     vdW  Elec       q    Type
REMARK                         _______ _______ _______ _____ _____    ______ ____
ROOT
ATOM      1  C7  UNL     1     -37.660   3.569 -14.702  0.00  0.00    +0.000 C 
ENDROOT
BRANCH   1   2
ATOM      2  C6  UNL     1     -38.107   2.108 -14.939  0.00  0.00    +0.000 C 
BRANCH   2   8
ATOM      3  C1  UNL     1     -39.225   0.477 -16.418  0.00  0.00    +0.000 C 
ATOM      4  C2  UNL     1     -38.256  -0.703 -16.323  0.00  0.00    +0.000 C 
ATOM      5  C3  UNL     1     -37.130  -0.574 -17.343  0.00  0.00    +0.000 C 
ATOM      6  C4  UNL     1     -36.464   0.796 -17.253  0.00  0.00    +0.000 C 
ATOM      7  C5  UNL     1     -37.498   1.924 -17.295  0.00  0.00    +0.000 C 
ATOM      8  N1  UNL     1     -38.572   1.788 -16.301  0.00  0.00    +0.000 NA
ENDBRANCH   2   8
ENDBRANCH   1   2
BRANCH   1   9
ATOM      9  O1  UNL     1     -38.715   4.527 -14.584  0.00  0.00    +0.000 OA
BRANCH   9  10
ATOM     10  C8  UNL     1     -38.465   5.599 -13.677  0.00  0.00    +0.000 C 
BRANCH  10  11
ATOM     11  C9  UNL     1     -38.545   6.954 -14.339  0.00  0.00    +0.000 A 
ATOM     12  C10 UNL     1     -39.680   7.761 -14.177  0.00  0.00    +0.000 A 
ATOM     13  C11 UNL     1     -39.745   9.018 -14.783  0.00  0.00    +0.000 A 
ATOM     14  C12 UNL     1     -38.678   9.480 -15.551  0.00  0.00    +0.000 A 
ATOM     15  C13 UNL     1     -37.542   8.689 -15.713  0.00  0.00    +0.000 A 
ATOM     16  C14 UNL     1     -37.475   7.432 -15.108  0.00  0.00    +0.000 A 
ENDBRANCH  10  11
ENDBRANCH   9  10
ENDBRANCH   1   9
TORSDOF 5
ENDMDL
