MODEL 1
REMARK VINA RESULT:    -3.897      0.000      0.000
REMARK INTER + INTRA:          -3.897
REMARK INTER:                  -3.897
REMARK INTRA:                   0.000
REMARK UNBOUND:                 0.000
REMARK  Name = /home/anacleto/Desktop/manuscript_Mpro/naturecomm/supplementary_file_S2/6-chemical-library/molecular_docking/3D_ligand_structure/324.pdb
REMARK  0 active torsions:
REMARK  status: ('A' for Active; 'I' for Inactive)
REMARK                            x       y       z     vdW  Elec       q    Type
REMARK                         _______ _______ _______ _____ _____    ______ ____
ROOT
ATOM      1  N1  UNL     1     -40.158   9.592 -15.050  0.00  0.00    +0.000 NA
ATOM      2  C1  UNL     1     -39.601  10.180 -16.084  0.00  0.00    +0.000 A 
ATOM      3  N2  UNL     1     -38.288   9.826 -16.221  0.00  0.00    +0.000 N 
ATOM      4  C2  UNL     1     -37.977   8.955 -15.209  0.00  0.00    +0.000 A 
ATOM      5  C3  UNL     1     -39.163   8.823 -14.490  0.00  0.00    +0.000 A 
ATOM      6  C4  UNL     1     -36.809   8.286 -14.862  0.00  0.00    +0.000 A 
ATOM      7  C5  UNL     1     -36.924   7.477 -13.739  0.00  0.00    +0.000 A 
ATOM      8  N3  UNL     1     -38.050   7.314 -13.004  0.00  0.00    +0.000 NA
ATOM      9  C6  UNL     1     -39.177   7.984 -13.372  0.00  0.00    +0.000 A 
ATOM     10  H2  UNL     1     -37.660  10.152 -16.941  0.00  0.00    +0.000 HD
ENDROOT
TORSDOF 0
ENDMDL
MODEL 2
REMARK VINA RESULT:    -3.687     20.716     21.566
REMARK INTER + INTRA:          -3.687
REMARK INTER:                  -3.687
REMARK INTRA:                   0.000
REMARK UNBOUND:                 0.000
REMARK  Name = /home/anacleto/Desktop/manuscript_Mpro/naturecomm/supplementary_file_S2/6-chemical-library/molecular_docking/3D_ligand_structure/324.pdb
REMARK  0 active torsions:
REMARK  status: ('A' for Active; 'I' for Inactive)
REMARK                            x       y       z     vdW  Elec       q    Type
REMARK                         _______ _______ _______ _____ _____    ______ ____
ROOT
ATOM      1  N1  UNL     1     -27.393  -5.918 -25.444  0.00  0.00    +0.000 NA
ATOM      2  C1  UNL     1     -28.699  -5.913 -25.584  0.00  0.00    +0.000 A 
ATOM      3  N2  UNL     1     -29.096  -5.113 -26.618  0.00  0.00    +0.000 N 
ATOM      4  C2  UNL     1     -27.973  -4.566 -27.183  0.00  0.00    +0.000 A 
ATOM      5  C3  UNL     1     -26.920  -5.084 -26.433  0.00  0.00    +0.000 A 
ATOM      6  C4  UNL     1     -27.779  -3.693 -28.248  0.00  0.00    +0.000 A 
ATOM      7  C5  UNL     1     -26.448  -3.382 -28.499  0.00  0.00    +0.000 A 
ATOM      8  N3  UNL     1     -25.389  -3.856 -27.801  0.00  0.00    +0.000 NA
ATOM      9  C6  UNL     1     -25.614  -4.709 -26.764  0.00  0.00    +0.000 A 
ATOM     10  H2  UNL     1     -30.049  -4.955 -26.912  0.00  0.00    +0.000 HD
ENDROOT
TORSDOF 0
ENDMDL
MODEL 3
REMARK VINA RESULT:    -3.578     20.900     21.255
REMARK INTER + INTRA:          -3.578
REMARK INTER:                  -3.578
REMARK INTRA:                   0.000
REMARK UNBOUND:                 0.000
REMARK  Name = /home/anacleto/Desktop/manuscript_Mpro/naturecomm/supplementary_file_S2/6-chemical-library/molecular_docking/3D_ligand_structure/324.pdb
REMARK  0 active torsions:
REMARK  status: ('A' for Active; 'I' for Inactive)
REMARK                            x       y       z     vdW  Elec       q    Type
REMARK                         _______ _______ _______ _____ _____    ______ ____
ROOT
ATOM      1  N1  UNL     1     -26.241  -3.606 -27.726  0.00  0.00    +0.000 NA
ATOM      2  C1  UNL     1     -27.222  -3.309 -28.548  0.00  0.00    +0.000 A 
ATOM      3  N2  UNL     1     -28.381  -3.946 -28.206  0.00  0.00    +0.000 N 
ATOM      4  C2  UNL     1     -28.134  -4.703 -27.090  0.00  0.00    +0.000 A 
ATOM      5  C3  UNL     1     -26.789  -4.474 -26.807  0.00  0.00    +0.000 A 
ATOM      6  C4  UNL     1     -28.931  -5.542 -26.320  0.00  0.00    +0.000 A 
ATOM      7  C5  UNL     1     -28.274  -6.131 -25.247  0.00  0.00    +0.000 A 
ATOM      8  N3  UNL     1     -26.971  -5.944 -24.929  0.00  0.00    +0.000 NA
ATOM      9  C6  UNL     1     -26.218  -5.116 -25.704  0.00  0.00    +0.000 A 
ATOM     10  H2  UNL     1     -29.263  -3.871 -28.692  0.00  0.00    +0.000 HD
ENDROOT
TORSDOF 0
ENDMDL
MODEL 4
REMARK VINA RESULT:    -3.541     26.658     27.534
REMARK INTER + INTRA:          -3.541
REMARK INTER:                  -3.541
REMARK INTRA:                   0.000
REMARK UNBOUND:                 0.000
REMARK  Name = /home/anacleto/Desktop/manuscript_Mpro/naturecomm/supplementary_file_S2/6-chemical-library/molecular_docking/3D_ligand_structure/324.pdb
REMARK  0 active torsions:
REMARK  status: ('A' for Active; 'I' for Inactive)
REMARK                            x       y       z     vdW  Elec       q    Type
REMARK                         _______ _______ _______ _____ _____    ______ ____
ROOT
ATOM      1  N1  UNL     1     -24.904   8.215 -38.306  0.00  0.00    +0.000 NA
ATOM      2  C1  UNL     1     -25.558   9.298 -37.952  0.00  0.00    +0.000 A 
ATOM      3  N2  UNL     1     -24.742  10.204 -37.335  0.00  0.00    +0.000 N 
ATOM      4  C2  UNL     1     -23.480   9.671 -37.287  0.00  0.00    +0.000 A 
ATOM      5  C3  UNL     1     -23.605   8.427 -37.901  0.00  0.00    +0.000 A 
ATOM      6  C4  UNL     1     -22.273  10.142 -36.782  0.00  0.00    +0.000 A 
ATOM      7  C5  UNL     1     -21.205   9.268 -36.942  0.00  0.00    +0.000 A 
ATOM      8  N3  UNL     1     -21.273   8.049 -37.529  0.00  0.00    +0.000 NA
ATOM      9  C6  UNL     1     -22.470   7.618 -38.013  0.00  0.00    +0.000 A 
ATOM     10  H2  UNL     1     -25.023  11.105 -36.978  0.00  0.00    +0.000 HD
ENDROOT
TORSDOF 0
ENDMDL
MODEL 5
REMARK VINA RESULT:    -3.523     28.703     29.937
REMARK INTER + INTRA:          -3.523
REMARK INTER:                  -3.523
REMARK INTRA:                   0.000
REMARK UNBOUND:                 0.000
REMARK  Name = /home/anacleto/Desktop/manuscript_Mpro/naturecomm/supplementary_file_S2/6-chemical-library/molecular_docking/3D_ligand_structure/324.pdb
REMARK  0 active torsions:
REMARK  status: ('A' for Active; 'I' for Inactive)
REMARK                            x       y       z     vdW  Elec       q    Type
REMARK                         _______ _______ _______ _____ _____    ______ ____
ROOT
ATOM      1  N1  UNL     1     -22.065   7.950 -37.659  0.00  0.00    +0.000 NA
ATOM      2  C1  UNL     1     -21.984   6.697 -38.045  0.00  0.00    +0.000 A 
ATOM      3  N2  UNL     1     -20.769   6.418 -38.606  0.00  0.00    +0.000 N 
ATOM      4  C2  UNL     1     -20.018   7.565 -38.580  0.00  0.00    +0.000 A 
ATOM      5  C3  UNL     1     -20.849   8.510 -37.982  0.00  0.00    +0.000 A 
ATOM      6  C4  UNL     1     -18.729   7.861 -39.008  0.00  0.00    +0.000 A 
ATOM      7  C5  UNL     1     -18.341   9.178 -38.788  0.00  0.00    +0.000 A 
ATOM      8  N3  UNL     1     -19.109  10.134 -38.214  0.00  0.00    +0.000 NA
ATOM      9  C6  UNL     1     -20.367   9.810 -37.806  0.00  0.00    +0.000 A 
ATOM     10  H2  UNL     1     -20.479   5.524 -38.974  0.00  0.00    +0.000 HD
ENDROOT
TORSDOF 0
ENDMDL
MODEL 6
REMARK VINA RESULT:    -3.505     28.210     29.415
REMARK INTER + INTRA:          -3.505
REMARK INTER:                  -3.505
REMARK INTRA:                   0.000
REMARK UNBOUND:                 0.000
REMARK  Name = /home/anacleto/Desktop/manuscript_Mpro/naturecomm/supplementary_file_S2/6-chemical-library/molecular_docking/3D_ligand_structure/324.pdb
REMARK  0 active torsions:
REMARK  status: ('A' for Active; 'I' for Inactive)
REMARK                            x       y       z     vdW  Elec       q    Type
REMARK                         _______ _______ _______ _____ _____    ______ ____
ROOT
ATOM      1  N1  UNL     1     -22.424   8.547 -37.480  0.00  0.00    +0.000 NA
ATOM      2  C1  UNL     1     -22.676   9.758 -37.038  0.00  0.00    +0.000 A 
ATOM      3  N2  UNL     1     -21.601  10.588 -37.193  0.00  0.00    +0.000 N 
ATOM      4  C2  UNL     1     -20.590   9.866 -37.772  0.00  0.00    +0.000 A 
ATOM      5  C3  UNL     1     -21.128   8.592 -37.943  0.00  0.00    +0.000 A 
ATOM      6  C4  UNL     1     -19.294  10.192 -38.154  0.00  0.00    +0.000 A 
ATOM      7  C5  UNL     1     -18.582   9.141 -38.720  0.00  0.00    +0.000 A 
ATOM      8  N3  UNL     1     -19.056   7.886 -38.908  0.00  0.00    +0.000 NA
ATOM      9  C6  UNL     1     -20.330   7.601 -38.522  0.00  0.00    +0.000 A 
ATOM     10  H2  UNL     1     -21.562  11.561 -36.926  0.00  0.00    +0.000 HD
ENDROOT
TORSDOF 0
ENDMDL
MODEL 7
REMARK VINA RESULT:    -3.497     21.260     21.287
REMARK INTER + INTRA:          -3.497
REMARK INTER:                  -3.497
REMARK INTRA:                   0.000
REMARK UNBOUND:                 0.000
REMARK  Name = /home/anacleto/Desktop/manuscript_Mpro/naturecomm/supplementary_file_S2/6-chemical-library/molecular_docking/3D_ligand_structure/324.pdb
REMARK  0 active torsions:
REMARK  status: ('A' for Active; 'I' for Inactive)
REMARK                            x       y       z     vdW  Elec       q    Type
REMARK                         _______ _______ _______ _____ _____    ______ ____
ROOT
ATOM      1  N1  UNL     1     -28.171  -4.438 -27.779  0.00  0.00    +0.000 NA
ATOM      2  C1  UNL     1     -27.735  -3.385 -28.432  0.00  0.00    +0.000 A 
ATOM      3  N2  UNL     1     -26.564  -2.914 -27.910  0.00  0.00    +0.000 N 
ATOM      4  C2  UNL     1     -26.221  -3.715 -26.851  0.00  0.00    +0.000 A 
ATOM      5  C3  UNL     1     -27.240  -4.662 -26.789  0.00  0.00    +0.000 A 
ATOM      6  C4  UNL     1     -25.148  -3.705 -25.966  0.00  0.00    +0.000 A 
ATOM      7  C5  UNL     1     -25.180  -4.719 -25.017  0.00  0.00    +0.000 A 
ATOM      8  N3  UNL     1     -26.146  -5.662 -24.911  0.00  0.00    +0.000 NA
ATOM      9  C6  UNL     1     -27.183  -5.643 -25.794  0.00  0.00    +0.000 A 
ATOM     10  H2  UNL     1     -26.045  -2.116 -28.246  0.00  0.00    +0.000 HD
ENDROOT
TORSDOF 0
ENDMDL
MODEL 8
REMARK VINA RESULT:    -3.376     28.464     29.726
REMARK INTER + INTRA:          -3.376
REMARK INTER:                  -3.376
REMARK INTRA:                   0.000
REMARK UNBOUND:                 0.000
REMARK  Name = /home/anacleto/Desktop/manuscript_Mpro/naturecomm/supplementary_file_S2/6-chemical-library/molecular_docking/3D_ligand_structure/324.pdb
REMARK  0 active torsions:
REMARK  status: ('A' for Active; 'I' for Inactive)
REMARK                            x       y       z     vdW  Elec       q    Type
REMARK                         _______ _______ _______ _____ _____    ______ ____
ROOT
ATOM      1  N1  UNL     1     -19.019   7.765 -39.112  0.00  0.00    +0.000 NA
ATOM      2  C1  UNL     1     -18.208   8.714 -38.703  0.00  0.00    +0.000 A 
ATOM      3  N2  UNL     1     -18.856   9.639 -37.935  0.00  0.00    +0.000 N 
ATOM      4  C2  UNL     1     -20.171   9.263 -37.841  0.00  0.00    +0.000 A 
ATOM      5  C3  UNL     1     -20.250   8.088 -38.584  0.00  0.00    +0.000 A 
ATOM      6  C4  UNL     1     -21.271   9.820 -37.197  0.00  0.00    +0.000 A 
ATOM      7  C5  UNL     1     -22.451   9.104 -37.357  0.00  0.00    +0.000 A 
ATOM      8  N3  UNL     1     -22.582   7.959 -38.069  0.00  0.00    +0.000 NA
ATOM      9  C6  UNL     1     -21.485   7.442 -38.687  0.00  0.00    +0.000 A 
ATOM     10  H2  UNL     1     -18.438  10.455 -37.513  0.00  0.00    +0.000 HD
ENDROOT
TORSDOF 0
ENDMDL
MODEL 9
REMARK VINA RESULT:    -3.308     21.345     22.352
REMARK INTER + INTRA:          -3.308
REMARK INTER:                  -3.308
REMARK INTRA:                   0.000
REMARK UNBOUND:                 0.000
REMARK  Name = /home/anacleto/Desktop/manuscript_Mpro/naturecomm/supplementary_file_S2/6-chemical-library/molecular_docking/3D_ligand_structure/324.pdb
REMARK  0 active torsions:
REMARK  status: ('A' for Active; 'I' for Inactive)
REMARK                            x       y       z     vdW  Elec       q    Type
REMARK                         _______ _______ _______ _____ _____    ______ ____
ROOT
ATOM      1  N1  UNL     1     -23.860  -4.317 -27.223  0.00  0.00    +0.000 NA
ATOM      2  C1  UNL     1     -23.541  -3.586 -28.266  0.00  0.00    +0.000 A 
ATOM      3  N2  UNL     1     -24.649  -3.135 -28.926  0.00  0.00    +0.000 N 
ATOM      4  C2  UNL     1     -25.755  -3.605 -28.266  0.00  0.00    +0.000 A 
ATOM      5  C3  UNL     1     -25.237  -4.341 -27.203  0.00  0.00    +0.000 A 
ATOM      6  C4  UNL     1     -27.120  -3.462 -28.487  0.00  0.00    +0.000 A 
ATOM      7  C5  UNL     1     -27.922  -4.115 -27.559  0.00  0.00    +0.000 A 
ATOM      8  N3  UNL     1     -27.471  -4.843 -26.510  0.00  0.00    +0.000 NA
ATOM      9  C6  UNL     1     -26.127  -4.963 -26.323  0.00  0.00    +0.000 A 
ATOM     10  H2  UNL     1     -24.650  -2.557 -29.755  0.00  0.00    +0.000 HD
ENDROOT
TORSDOF 0
ENDMDL
