MODEL 1
REMARK VINA RESULT:    -3.061      0.000      0.000
REMARK INTER + INTRA:          -3.061
REMARK INTER:                  -3.061
REMARK INTRA:                   0.000
REMARK UNBOUND:                 0.000
REMARK  Name = /home/anacleto/Desktop/manuscript_Mpro/naturecomm/supplementary_file_S2/6-chemical-library/molecular_docking/3D_ligand_structure/360.pdb
REMARK  0 active torsions:
REMARK  status: ('A' for Active; 'I' for Inactive)
REMARK                            x       y       z     vdW  Elec       q    Type
REMARK                         _______ _______ _______ _____ _____    ______ ____
ROOT
ATOM      1  S1  UNL     1      14.727  11.714  -6.995  0.00  0.00    +0.000 S 
ATOM      2  C1  UNL     1      13.323  10.893  -6.288  0.00  0.00    +0.000 A 
ATOM      3  C2  UNL     1      13.498  10.581  -4.993  0.00  0.00    +0.000 A 
ATOM      4  N1  UNL     1      14.733  10.982  -4.541  0.00  0.00    +0.000 N 
ATOM      5  C3  UNL     1      15.525  11.601  -5.461  0.00  0.00    +0.000 A 
ATOM      6  C4  UNL     1      15.435  10.937  -3.373  0.00  0.00    +0.000 A 
ATOM      7  N2  UNL     1      16.626  11.496  -3.512  0.00  0.00    +0.000 NA
ATOM      8  C5  UNL     1      16.690  11.919  -4.831  0.00  0.00    +0.000 A 
ENDROOT
TORSDOF 0
ENDMDL
MODEL 2
REMARK VINA RESULT:    -3.010      1.921      3.443
REMARK INTER + INTRA:          -3.010
REMARK INTER:                  -3.010
REMARK INTRA:                   0.000
REMARK UNBOUND:                 0.000
REMARK  Name = /home/anacleto/Desktop/manuscript_Mpro/naturecomm/supplementary_file_S2/6-chemical-library/molecular_docking/3D_ligand_structure/360.pdb
REMARK  0 active torsions:
REMARK  status: ('A' for Active; 'I' for Inactive)
REMARK                            x       y       z     vdW  Elec       q    Type
REMARK                         _______ _______ _______ _____ _____    ______ ____
ROOT
ATOM      1  S1  UNL     1      15.638  11.084  -3.366  0.00  0.00    +0.000 S 
ATOM      2  C1  UNL     1      16.882  11.868  -4.356  0.00  0.00    +0.000 A 
ATOM      3  C2  UNL     1      16.502  12.042  -5.632  0.00  0.00    +0.000 A 
ATOM      4  N1  UNL     1      15.231  11.563  -5.849  0.00  0.00    +0.000 N 
ATOM      5  C3  UNL     1      14.614  11.018  -4.763  0.00  0.00    +0.000 A 
ATOM      6  C4  UNL     1      14.361  11.470  -6.894  0.00  0.00    +0.000 A 
ATOM      7  N2  UNL     1      13.230  10.895  -6.520  0.00  0.00    +0.000 NA
ATOM      8  C5  UNL     1      13.382  10.606  -5.173  0.00  0.00    +0.000 A 
ENDROOT
TORSDOF 0
ENDMDL
MODEL 3
REMARK VINA RESULT:    -3.007      1.451      2.920
REMARK INTER + INTRA:          -3.007
REMARK INTER:                  -3.007
REMARK INTRA:                   0.000
REMARK UNBOUND:                 0.000
REMARK  Name = /home/anacleto/Desktop/manuscript_Mpro/naturecomm/supplementary_file_S2/6-chemical-library/molecular_docking/3D_ligand_structure/360.pdb
REMARK  0 active torsions:
REMARK  status: ('A' for Active; 'I' for Inactive)
REMARK                            x       y       z     vdW  Elec       q    Type
REMARK                         _______ _______ _______ _____ _____    ______ ____
ROOT
ATOM      1  S1  UNL     1      16.902  12.007  -5.394  0.00  0.00    +0.000 S 
ATOM      2  C1  UNL     1      16.588  11.494  -3.726  0.00  0.00    +0.000 A 
ATOM      3  C2  UNL     1      15.355  10.987  -3.559  0.00  0.00    +0.000 A 
ATOM      4  N1  UNL     1      14.643  10.994  -4.736  0.00  0.00    +0.000 N 
ATOM      5  C3  UNL     1      15.300  11.500  -5.817  0.00  0.00    +0.000 A 
ATOM      6  C4  UNL     1      13.401  10.623  -5.157  0.00  0.00    +0.000 A 
ATOM      7  N2  UNL     1      13.244  10.868  -6.447  0.00  0.00    +0.000 NA
ATOM      8  C5  UNL     1      14.441  11.422  -6.873  0.00  0.00    +0.000 A 
ENDROOT
TORSDOF 0
ENDMDL
MODEL 4
REMARK VINA RESULT:    -2.864      2.265      3.431
REMARK INTER + INTRA:          -2.864
REMARK INTER:                  -2.864
REMARK INTRA:                   0.000
REMARK UNBOUND:                 0.000
REMARK  Name = /home/anacleto/Desktop/manuscript_Mpro/naturecomm/supplementary_file_S2/6-chemical-library/molecular_docking/3D_ligand_structure/360.pdb
REMARK  0 active torsions:
REMARK  status: ('A' for Active; 'I' for Inactive)
REMARK                            x       y       z     vdW  Elec       q    Type
REMARK                         _______ _______ _______ _____ _____    ______ ____
ROOT
ATOM      1  S1  UNL     1      16.015  12.425  -3.054  0.00  0.00    +0.000 S 
ATOM      2  C1  UNL     1      15.825  14.005  -3.836  0.00  0.00    +0.000 A 
ATOM      3  C2  UNL     1      14.914  13.993  -4.824  0.00  0.00    +0.000 A 
ATOM      4  N1  UNL     1      14.355  12.745  -4.978  0.00  0.00    +0.000 N 
ATOM      5  C3  UNL     1      14.815  11.785  -4.129  0.00  0.00    +0.000 A 
ATOM      6  C4  UNL     1      13.423  12.159  -5.782  0.00  0.00    +0.000 A 
ATOM      7  N2  UNL     1      13.273  10.880  -5.479  0.00  0.00    +0.000 NA
ATOM      8  C5  UNL     1      14.150  10.635  -4.434  0.00  0.00    +0.000 A 
ENDROOT
TORSDOF 0
ENDMDL
MODEL 5
REMARK VINA RESULT:    -2.818      1.898      2.369
REMARK INTER + INTRA:          -2.818
REMARK INTER:                  -2.818
REMARK INTRA:                   0.000
REMARK UNBOUND:                 0.000
REMARK  Name = /home/anacleto/Desktop/manuscript_Mpro/naturecomm/supplementary_file_S2/6-chemical-library/molecular_docking/3D_ligand_structure/360.pdb
REMARK  0 active torsions:
REMARK  status: ('A' for Active; 'I' for Inactive)
REMARK                            x       y       z     vdW  Elec       q    Type
REMARK                         _______ _______ _______ _____ _____    ______ ____
ROOT
ATOM      1  S1  UNL     1      14.150  10.937  -4.658  0.00  0.00    +0.000 S 
ATOM      2  C1  UNL     1      13.454  11.182  -6.270  0.00  0.00    +0.000 A 
ATOM      3  C2  UNL     1      14.386  11.370  -7.219  0.00  0.00    +0.000 A 
ATOM      4  N1  UNL     1      15.656  11.324  -6.693  0.00  0.00    +0.000 N 
ATOM      5  C3  UNL     1      15.730  11.104  -5.351  0.00  0.00    +0.000 A 
ATOM      6  C4  UNL     1      16.935  11.442  -7.152  0.00  0.00    +0.000 A 
ATOM      7  N2  UNL     1      17.807  11.307  -6.167  0.00  0.00    +0.000 NA
ATOM      8  C5  UNL     1      17.053  11.092  -5.024  0.00  0.00    +0.000 A 
ENDROOT
TORSDOF 0
ENDMDL
MODEL 6
REMARK VINA RESULT:    -2.796     15.528     16.698
REMARK INTER + INTRA:          -2.796
REMARK INTER:                  -2.796
REMARK INTRA:                   0.000
REMARK UNBOUND:                 0.000
REMARK  Name = /home/anacleto/Desktop/manuscript_Mpro/naturecomm/supplementary_file_S2/6-chemical-library/molecular_docking/3D_ligand_structure/360.pdb
REMARK  0 active torsions:
REMARK  status: ('A' for Active; 'I' for Inactive)
REMARK                            x       y       z     vdW  Elec       q    Type
REMARK                         _______ _______ _______ _____ _____    ______ ____
ROOT
ATOM      1  S1  UNL     1      19.880   7.647   8.928  0.00  0.00    +0.000 S 
ATOM      2  C1  UNL     1      19.367   6.142   8.144  0.00  0.00    +0.000 A 
ATOM      3  C2  UNL     1      18.885   5.238   9.014  0.00  0.00    +0.000 A 
ATOM      4  N1  UNL     1      18.912   5.716  10.304  0.00  0.00    +0.000 N 
ATOM      5  C3  UNL     1      19.408   6.976  10.454  0.00  0.00    +0.000 A 
ATOM      6  C4  UNL     1      18.568   5.268  11.545  0.00  0.00    +0.000 A 
ATOM      7  N2  UNL     1      18.822   6.183  12.466  0.00  0.00    +0.000 NA
ATOM      8  C5  UNL     1      19.353   7.267  11.784  0.00  0.00    +0.000 A 
ENDROOT
TORSDOF 0
ENDMDL
MODEL 7
REMARK VINA RESULT:    -2.794     15.491     16.697
REMARK INTER + INTRA:          -2.794
REMARK INTER:                  -2.794
REMARK INTRA:                   0.000
REMARK UNBOUND:                 0.000
REMARK  Name = /home/anacleto/Desktop/manuscript_Mpro/naturecomm/supplementary_file_S2/6-chemical-library/molecular_docking/3D_ligand_structure/360.pdb
REMARK  0 active torsions:
REMARK  status: ('A' for Active; 'I' for Inactive)
REMARK                            x       y       z     vdW  Elec       q    Type
REMARK                         _______ _______ _______ _____ _____    ______ ____
ROOT
ATOM      1  S1  UNL     1      19.091   7.389  11.831  0.00  0.00    +0.000 S 
ATOM      2  C1  UNL     1      18.643   5.734  12.286  0.00  0.00    +0.000 A 
ATOM      3  C2  UNL     1      18.580   4.902  11.233  0.00  0.00    +0.000 A 
ATOM      4  N1  UNL     1      18.882   5.552  10.059  0.00  0.00    +0.000 N 
ATOM      5  C3  UNL     1      19.178   6.876  10.178  0.00  0.00    +0.000 A 
ATOM      6  C4  UNL     1      18.975   5.236   8.736  0.00  0.00    +0.000 A 
ATOM      7  N2  UNL     1      19.314   6.295   8.019  0.00  0.00    +0.000 NA
ATOM      8  C5  UNL     1      19.446   7.336   8.924  0.00  0.00    +0.000 A 
ENDROOT
TORSDOF 0
ENDMDL
MODEL 8
REMARK VINA RESULT:    -2.748     15.494     16.738
REMARK INTER + INTRA:          -2.748
REMARK INTER:                  -2.748
REMARK INTRA:                   0.000
REMARK UNBOUND:                 0.000
REMARK  Name = /home/anacleto/Desktop/manuscript_Mpro/naturecomm/supplementary_file_S2/6-chemical-library/molecular_docking/3D_ligand_structure/360.pdb
REMARK  0 active torsions:
REMARK  status: ('A' for Active; 'I' for Inactive)
REMARK                            x       y       z     vdW  Elec       q    Type
REMARK                         _______ _______ _______ _____ _____    ______ ____
ROOT
ATOM      1  S1  UNL     1      18.863   4.845  11.647  0.00  0.00    +0.000 S 
ATOM      2  C1  UNL     1      18.980   6.478  12.329  0.00  0.00    +0.000 A 
ATOM      3  C2  UNL     1      19.144   7.426  11.391  0.00  0.00    +0.000 A 
ATOM      4  N1  UNL     1      19.180   6.883  10.128  0.00  0.00    +0.000 N 
ATOM      5  C3  UNL     1      19.048   5.529  10.065  0.00  0.00    +0.000 A 
ATOM      6  C4  UNL     1      19.318   7.334   8.849  0.00  0.00    +0.000 A 
ATOM      7  N2  UNL     1      19.279   6.332   7.986  0.00  0.00    +0.000 NA
ATOM      8  C5  UNL     1      19.107   5.186   8.747  0.00  0.00    +0.000 A 
ENDROOT
TORSDOF 0
ENDMDL
MODEL 9
REMARK VINA RESULT:    -2.596     15.501     16.373
REMARK INTER + INTRA:          -2.596
REMARK INTER:                  -2.596
REMARK INTRA:                   0.000
REMARK UNBOUND:                 0.000
REMARK  Name = /home/anacleto/Desktop/manuscript_Mpro/naturecomm/supplementary_file_S2/6-chemical-library/molecular_docking/3D_ligand_structure/360.pdb
REMARK  0 active torsions:
REMARK  status: ('A' for Active; 'I' for Inactive)
REMARK                            x       y       z     vdW  Elec       q    Type
REMARK                         _______ _______ _______ _____ _____    ______ ____
ROOT
ATOM      1  S1  UNL     1      19.946   4.162  10.888  0.00  0.00    +0.000 S 
ATOM      2  C1  UNL     1      18.682   3.639   9.761  0.00  0.00    +0.000 A 
ATOM      3  C2  UNL     1      18.333   4.596   8.885  0.00  0.00    +0.000 A 
ATOM      4  N1  UNL     1      19.053   5.750   9.087  0.00  0.00    +0.000 N 
ATOM      5  C3  UNL     1      19.956   5.709  10.107  0.00  0.00    +0.000 A 
ATOM      6  C4  UNL     1      19.128   6.993   8.533  0.00  0.00    +0.000 A 
ATOM      7  N2  UNL     1      20.033   7.735   9.151  0.00  0.00    +0.000 NA
ATOM      8  C5  UNL     1      20.562   6.929  10.148  0.00  0.00    +0.000 A 
ENDROOT
TORSDOF 0
ENDMDL
