MODEL 1
REMARK VINA RESULT:    -5.150      0.000      0.000
REMARK INTER + INTRA:          -5.673
REMARK INTER:                  -5.500
REMARK INTRA:                  -0.173
REMARK UNBOUND:                -0.223
REMARK  Name = /home/anacleto/Desktop/manuscript_Mpro/naturecomm/supplementary_file_S2/6-chemical-library/molecular_docking/3D_ligand_structure/973.pdb
REMARK  1 active torsions:
REMARK  status: ('A' for Active; 'I' for Inactive)
REMARK    1  A    between atoms: N1_5  and  C5_9
REMARK                            x       y       z     vdW  Elec       q    Type
REMARK                         _______ _______ _______ _____ _____    ______ ____
ROOT
ATOM      1  C1  UNL     1     -28.733   4.199 -38.680  0.00  0.00    +0.000 C 
ATOM      2  C2  UNL     1     -27.399   4.182 -38.588  0.00  0.00    +0.000 C 
ATOM      3  C3  UNL     1     -26.488   5.274 -39.013  0.00  0.00    +0.000 C 
ATOM      4  O1  UNL     1     -26.855   6.324 -39.509  0.00  0.00    +0.000 OA
ATOM      5  N1  UNL     1     -25.208   4.788 -38.702  0.00  0.00    +0.000 N 
ATOM      6  N2  UNL     1     -25.297   3.524 -38.082  0.00  0.00    +0.000 N 
ATOM      7  C4  UNL     1     -26.596   3.058 -38.078  0.00  0.00    +0.000 C 
ATOM      8  O2  UNL     1     -26.983   1.948 -37.774  0.00  0.00    +0.000 OA
ATOM      9  H3  UNL     1     -24.545   2.851 -38.149  0.00  0.00    +0.000 HD
ENDROOT
BRANCH   5  10
ATOM     10  C5  UNL     1     -23.971   5.460 -38.872  0.00  0.00    +0.000 A 
ATOM     11  C6  UNL     1     -23.104   5.651 -37.782  0.00  0.00    +0.000 A 
ATOM     12  C7  UNL     1     -21.877   6.306 -37.939  0.00  0.00    +0.000 A 
ATOM     13  C8  UNL     1     -21.496   6.783 -39.187  0.00  0.00    +0.000 A 
ATOM     14  C9  UNL     1     -22.341   6.608 -40.277  0.00  0.00    +0.000 A 
ATOM     15  C10 UNL     1     -23.567   5.953 -40.120  0.00  0.00    +0.000 A 
ENDBRANCH   5  10
TORSDOF 1
ENDMDL
MODEL 2
REMARK VINA RESULT:    -4.921      1.909      5.047
REMARK INTER + INTRA:          -5.431
REMARK INTER:                  -5.221
REMARK INTRA:                  -0.210
REMARK UNBOUND:                -0.223
REMARK  Name = /home/anacleto/Desktop/manuscript_Mpro/naturecomm/supplementary_file_S2/6-chemical-library/molecular_docking/3D_ligand_structure/973.pdb
REMARK  1 active torsions:
REMARK  status: ('A' for Active; 'I' for Inactive)
REMARK    1  A    between atoms: N1_5  and  C5_9
REMARK                            x       y       z     vdW  Elec       q    Type
REMARK                         _______ _______ _______ _____ _____    ______ ____
ROOT
ATOM      1  C1  UNL     1     -22.081   7.003 -40.511  0.00  0.00    +0.000 C 
ATOM      2  C2  UNL     1     -22.877   6.325 -39.678  0.00  0.00    +0.000 C 
ATOM      3  C3  UNL     1     -24.143   5.648 -40.049  0.00  0.00    +0.000 C 
ATOM      4  O1  UNL     1     -24.617   5.638 -41.172  0.00  0.00    +0.000 OA
ATOM      5  N1  UNL     1     -24.589   5.077 -38.846  0.00  0.00    +0.000 N 
ATOM      6  N2  UNL     1     -23.660   5.319 -37.812  0.00  0.00    +0.000 N 
ATOM      7  C4  UNL     1     -22.650   6.160 -38.232  0.00  0.00    +0.000 C 
ATOM      8  O2  UNL     1     -21.796   6.690 -37.550  0.00  0.00    +0.000 OA
ATOM      9  H3  UNL     1     -23.951   5.362 -36.844  0.00  0.00    +0.000 HD
ENDROOT
BRANCH   5  10
ATOM     10  C5  UNL     1     -25.745   4.279 -38.651  0.00  0.00    +0.000 A 
ATOM     11  C6  UNL     1     -25.629   2.933 -38.265  0.00  0.00    +0.000 A 
ATOM     12  C7  UNL     1     -26.763   2.138 -38.062  0.00  0.00    +0.000 A 
ATOM     13  C8  UNL     1     -28.032   2.673 -38.245  0.00  0.00    +0.000 A 
ATOM     14  C9  UNL     1     -28.168   4.003 -38.631  0.00  0.00    +0.000 A 
ATOM     15  C10 UNL     1     -27.034   4.797 -38.833  0.00  0.00    +0.000 A 
ENDBRANCH   5  10
TORSDOF 1
ENDMDL
MODEL 3
REMARK VINA RESULT:    -4.873      1.126      2.356
REMARK INTER + INTRA:          -5.380
REMARK INTER:                  -5.169
REMARK INTRA:                  -0.212
REMARK UNBOUND:                -0.223
REMARK  Name = /home/anacleto/Desktop/manuscript_Mpro/naturecomm/supplementary_file_S2/6-chemical-library/molecular_docking/3D_ligand_structure/973.pdb
REMARK  1 active torsions:
REMARK  status: ('A' for Active; 'I' for Inactive)
REMARK    1  A    between atoms: N1_5  and  C5_9
REMARK                            x       y       z     vdW  Elec       q    Type
REMARK                         _______ _______ _______ _____ _____    ______ ____
ROOT
ATOM      1  C1  UNL     1     -27.905   2.453 -38.412  0.00  0.00    +0.000 C 
ATOM      2  C2  UNL     1     -27.153   3.543 -38.595  0.00  0.00    +0.000 C 
ATOM      3  C3  UNL     1     -25.672   3.596 -38.521  0.00  0.00    +0.000 C 
ATOM      4  O1  UNL     1     -24.960   2.640 -38.272  0.00  0.00    +0.000 OA
ATOM      5  N1  UNL     1     -25.367   4.939 -38.796  0.00  0.00    +0.000 N 
ATOM      6  N2  UNL     1     -26.543   5.665 -39.079  0.00  0.00    +0.000 N 
ATOM      7  C4  UNL     1     -27.669   4.895 -38.871  0.00  0.00    +0.000 C 
ATOM      8  O2  UNL     1     -28.826   5.263 -38.864  0.00  0.00    +0.000 OA
ATOM      9  H3  UNL     1     -26.601   6.659 -38.904  0.00  0.00    +0.000 HD
ENDROOT
BRANCH   5  10
ATOM     10  C5  UNL     1     -24.078   5.523 -38.889  0.00  0.00    +0.000 A 
ATOM     11  C6  UNL     1     -23.614   6.045 -40.109  0.00  0.00    +0.000 A 
ATOM     12  C7  UNL     1     -22.347   6.631 -40.211  0.00  0.00    +0.000 A 
ATOM     13  C8  UNL     1     -21.521   6.704 -39.097  0.00  0.00    +0.000 A 
ATOM     14  C9  UNL     1     -21.959   6.190 -37.881  0.00  0.00    +0.000 A 
ATOM     15  C10 UNL     1     -23.226   5.604 -37.780  0.00  0.00    +0.000 A 
ENDBRANCH   5  10
TORSDOF 1
ENDMDL
MODEL 4
REMARK VINA RESULT:    -4.566      6.710      9.268
REMARK INTER + INTRA:          -5.055
REMARK INTER:                  -4.822
REMARK INTRA:                  -0.234
REMARK UNBOUND:                -0.223
REMARK  Name = /home/anacleto/Desktop/manuscript_Mpro/naturecomm/supplementary_file_S2/6-chemical-library/molecular_docking/3D_ligand_structure/973.pdb
REMARK  1 active torsions:
REMARK  status: ('A' for Active; 'I' for Inactive)
REMARK    1  A    between atoms: N1_5  and  C5_9
REMARK                            x       y       z     vdW  Elec       q    Type
REMARK                         _______ _______ _______ _____ _____    ______ ____
ROOT
ATOM      1  C1  UNL     1     -16.050  10.929 -41.844  0.00  0.00    +0.000 C 
ATOM      2  C2  UNL     1     -16.603  10.270 -40.821  0.00  0.00    +0.000 C 
ATOM      3  C3  UNL     1     -18.058  10.101 -40.584  0.00  0.00    +0.000 C 
ATOM      4  O1  UNL     1     -18.930  10.557 -41.301  0.00  0.00    +0.000 OA
ATOM      5  N1  UNL     1     -18.123   9.335 -39.409  0.00  0.00    +0.000 N 
ATOM      6  N2  UNL     1     -16.827   8.997 -38.967  0.00  0.00    +0.000 N 
ATOM      7  C4  UNL     1     -15.860   9.623 -39.726  0.00  0.00    +0.000 C 
ATOM      8  O2  UNL     1     -14.666   9.674 -39.508  0.00  0.00    +0.000 OA
ATOM      9  H3  UNL     1     -16.634   8.822 -37.990  0.00  0.00    +0.000 HD
ENDROOT
BRANCH   5  10
ATOM     10  C5  UNL     1     -19.291   8.855 -38.762  0.00  0.00    +0.000 A 
ATOM     11  C6  UNL     1     -20.041   9.695 -37.921  0.00  0.00    +0.000 A 
ATOM     12  C7  UNL     1     -21.198   9.235 -37.283  0.00  0.00    +0.000 A 
ATOM     13  C8  UNL     1     -21.627   7.927 -37.474  0.00  0.00    +0.000 A 
ATOM     14  C9  UNL     1     -20.897   7.078 -38.300  0.00  0.00    +0.000 A 
ATOM     15  C10 UNL     1     -19.739   7.539 -38.937  0.00  0.00    +0.000 A 
ENDBRANCH   5  10
TORSDOF 1
ENDMDL
MODEL 5
REMARK VINA RESULT:    -4.509      3.115      5.296
REMARK INTER + INTRA:          -4.995
REMARK INTER:                  -4.761
REMARK INTRA:                  -0.234
REMARK UNBOUND:                -0.223
REMARK  Name = /home/anacleto/Desktop/manuscript_Mpro/naturecomm/supplementary_file_S2/6-chemical-library/molecular_docking/3D_ligand_structure/973.pdb
REMARK  1 active torsions:
REMARK  status: ('A' for Active; 'I' for Inactive)
REMARK    1  A    between atoms: N1_5  and  C5_9
REMARK                            x       y       z     vdW  Elec       q    Type
REMARK                         _______ _______ _______ _____ _____    ______ ____
ROOT
ATOM      1  C1  UNL     1     -21.159   9.049 -37.144  0.00  0.00    +0.000 C 
ATOM      2  C2  UNL     1     -22.227   8.408 -37.632  0.00  0.00    +0.000 C 
ATOM      3  C3  UNL     1     -22.215   7.074 -38.280  0.00  0.00    +0.000 C 
ATOM      4  O1  UNL     1     -21.215   6.401 -38.454  0.00  0.00    +0.000 OA
ATOM      5  N1  UNL     1     -23.562   6.840 -38.599  0.00  0.00    +0.000 N 
ATOM      6  N2  UNL     1     -24.369   7.903 -38.143  0.00  0.00    +0.000 N 
ATOM      7  C4  UNL     1     -23.603   8.933 -37.639  0.00  0.00    +0.000 C 
ATOM      8  O2  UNL     1     -23.974  10.046 -37.323  0.00  0.00    +0.000 OA
ATOM      9  H3  UNL     1     -25.244   8.131 -38.597  0.00  0.00    +0.000 HD
ENDROOT
BRANCH   5  10
ATOM     10  C5  UNL     1     -24.112   5.681 -39.204  0.00  0.00    +0.000 A 
ATOM     11  C6  UNL     1     -24.749   4.700 -38.425  0.00  0.00    +0.000 A 
ATOM     12  C7  UNL     1     -25.301   3.556 -39.011  0.00  0.00    +0.000 A 
ATOM     13  C8  UNL     1     -25.225   3.370 -40.386  0.00  0.00    +0.000 A 
ATOM     14  C9  UNL     1     -24.595   4.327 -41.175  0.00  0.00    +0.000 A 
ATOM     15  C10 UNL     1     -24.042   5.470 -40.588  0.00  0.00    +0.000 A 
ENDBRANCH   5  10
TORSDOF 1
ENDMDL
MODEL 6
REMARK VINA RESULT:    -4.458      2.821      4.902
REMARK INTER + INTRA:          -4.941
REMARK INTER:                  -4.706
REMARK INTRA:                  -0.235
REMARK UNBOUND:                -0.223
REMARK  Name = /home/anacleto/Desktop/manuscript_Mpro/naturecomm/supplementary_file_S2/6-chemical-library/molecular_docking/3D_ligand_structure/973.pdb
REMARK  1 active torsions:
REMARK  status: ('A' for Active; 'I' for Inactive)
REMARK    1  A    between atoms: N1_5  and  C5_9
REMARK                            x       y       z     vdW  Elec       q    Type
REMARK                         _______ _______ _______ _____ _____    ______ ____
ROOT
ATOM      1  C1  UNL     1     -23.172   9.707 -37.511  0.00  0.00    +0.000 C 
ATOM      2  C2  UNL     1     -23.093   8.428 -37.895  0.00  0.00    +0.000 C 
ATOM      3  C3  UNL     1     -24.226   7.594 -38.365  0.00  0.00    +0.000 C 
ATOM      4  O1  UNL     1     -25.378   7.979 -38.449  0.00  0.00    +0.000 OA
ATOM      5  N1  UNL     1     -23.635   6.354 -38.657  0.00  0.00    +0.000 N 
ATOM      6  N2  UNL     1     -22.241   6.410 -38.447  0.00  0.00    +0.000 N 
ATOM      7  C4  UNL     1     -21.867   7.613 -37.886  0.00  0.00    +0.000 C 
ATOM      8  O2  UNL     1     -20.780   7.913 -37.434  0.00  0.00    +0.000 OA
ATOM      9  H3  UNL     1     -21.713   5.581 -38.208  0.00  0.00    +0.000 HD
ENDROOT
BRANCH   5  10
ATOM     10  C5  UNL     1     -24.274   5.202 -39.182  0.00  0.00    +0.000 A 
ATOM     11  C6  UNL     1     -24.936   4.299 -38.332  0.00  0.00    +0.000 A 
ATOM     12  C7  UNL     1     -25.576   3.163 -38.839  0.00  0.00    +0.000 A 
ATOM     13  C8  UNL     1     -25.566   2.908 -40.206  0.00  0.00    +0.000 A 
ATOM     14  C9  UNL     1     -24.913   3.787 -41.064  0.00  0.00    +0.000 A 
ATOM     15  C10 UNL     1     -24.273   4.922 -40.555  0.00  0.00    +0.000 A 
ENDBRANCH   5  10
TORSDOF 1
ENDMDL
MODEL 7
REMARK VINA RESULT:    -4.382      1.851      2.444
REMARK INTER + INTRA:          -4.861
REMARK INTER:                  -4.703
REMARK INTRA:                  -0.158
REMARK UNBOUND:                -0.223
REMARK  Name = /home/anacleto/Desktop/manuscript_Mpro/naturecomm/supplementary_file_S2/6-chemical-library/molecular_docking/3D_ligand_structure/973.pdb
REMARK  1 active torsions:
REMARK  status: ('A' for Active; 'I' for Inactive)
REMARK    1  A    between atoms: N1_5  and  C5_9
REMARK                            x       y       z     vdW  Elec       q    Type
REMARK                         _______ _______ _______ _____ _____    ______ ____
ROOT
ATOM      1  C1  UNL     1     -27.178   5.507 -39.754  0.00  0.00    +0.000 C 
ATOM      2  C2  UNL     1     -25.957   5.596 -39.217  0.00  0.00    +0.000 C 
ATOM      3  C3  UNL     1     -25.083   6.794 -39.247  0.00  0.00    +0.000 C 
ATOM      4  O1  UNL     1     -25.377   7.849 -39.780  0.00  0.00    +0.000 OA
ATOM      5  N1  UNL     1     -23.933   6.393 -38.548  0.00  0.00    +0.000 N 
ATOM      6  N2  UNL     1     -24.084   5.076 -38.065  0.00  0.00    +0.000 N 
ATOM      7  C4  UNL     1     -25.250   4.503 -38.527  0.00  0.00    +0.000 C 
ATOM      8  O2  UNL     1     -25.593   3.341 -38.434  0.00  0.00    +0.000 OA
ATOM      9  H3  UNL     1     -23.282   4.478 -37.910  0.00  0.00    +0.000 HD
ENDROOT
BRANCH   5  10
ATOM     10  C5  UNL     1     -22.791   7.180 -38.251  0.00  0.00    +0.000 A 
ATOM     11  C6  UNL     1     -21.503   6.728 -38.585  0.00  0.00    +0.000 A 
ATOM     12  C7  UNL     1     -20.370   7.499 -38.304  0.00  0.00    +0.000 A 
ATOM     13  C8  UNL     1     -20.503   8.735 -37.683  0.00  0.00    +0.000 A 
ATOM     14  C9  UNL     1     -21.769   9.199 -37.341  0.00  0.00    +0.000 A 
ATOM     15  C10 UNL     1     -22.902   8.427 -37.622  0.00  0.00    +0.000 A 
ENDBRANCH   5  10
TORSDOF 1
ENDMDL
MODEL 8
REMARK VINA RESULT:    -4.298      5.652      7.652
REMARK INTER + INTRA:          -4.772
REMARK INTER:                  -4.867
REMARK INTRA:                   0.095
REMARK UNBOUND:                -0.223
REMARK  Name = /home/anacleto/Desktop/manuscript_Mpro/naturecomm/supplementary_file_S2/6-chemical-library/molecular_docking/3D_ligand_structure/973.pdb
REMARK  1 active torsions:
REMARK  status: ('A' for Active; 'I' for Inactive)
REMARK    1  A    between atoms: N1_5  and  C5_9
REMARK                            x       y       z     vdW  Elec       q    Type
REMARK                         _______ _______ _______ _____ _____    ______ ____
ROOT
ATOM      1  C1  UNL     1     -21.893   6.881 -37.915  0.00  0.00    +0.000 C 
ATOM      2  C2  UNL     1     -21.097   7.955 -37.921  0.00  0.00    +0.000 C 
ATOM      3  C3  UNL     1     -19.780   8.053 -38.596  0.00  0.00    +0.000 C 
ATOM      4  O1  UNL     1     -19.260   7.150 -39.227  0.00  0.00    +0.000 OA
ATOM      5  N1  UNL     1     -19.356   9.364 -38.324  0.00  0.00    +0.000 N 
ATOM      6  N2  UNL     1     -20.340  10.058 -37.590  0.00  0.00    +0.000 N 
ATOM      7  C4  UNL     1     -21.376   9.224 -37.226  0.00  0.00    +0.000 C 
ATOM      8  O2  UNL     1     -22.286   9.465 -36.459  0.00  0.00    +0.000 OA
ATOM      9  H3  UNL     1     -20.093  10.818 -36.969  0.00  0.00    +0.000 HD
ENDROOT
BRANCH   5  10
ATOM     10  C5  UNL     1     -18.166   9.991 -38.775  0.00  0.00    +0.000 A 
ATOM     11  C6  UNL     1     -17.972  11.371 -38.595  0.00  0.00    +0.000 A 
ATOM     12  C7  UNL     1     -16.799  12.000 -39.028  0.00  0.00    +0.000 A 
ATOM     13  C8  UNL     1     -15.801  11.261 -39.651  0.00  0.00    +0.000 A 
ATOM     14  C9  UNL     1     -15.975   9.894 -39.843  0.00  0.00    +0.000 A 
ATOM     15  C10 UNL     1     -17.148   9.266 -39.409  0.00  0.00    +0.000 A 
ENDBRANCH   5  10
TORSDOF 1
ENDMDL
MODEL 9
REMARK VINA RESULT:    -4.241     18.254     19.915
REMARK INTER + INTRA:          -4.711
REMARK INTER:                  -4.489
REMARK INTRA:                  -0.223
REMARK UNBOUND:                -0.223
REMARK  Name = /home/anacleto/Desktop/manuscript_Mpro/naturecomm/supplementary_file_S2/6-chemical-library/molecular_docking/3D_ligand_structure/973.pdb
REMARK  1 active torsions:
REMARK  status: ('A' for Active; 'I' for Inactive)
REMARK    1  A    between atoms: N1_5  and  C5_9
REMARK                            x       y       z     vdW  Elec       q    Type
REMARK                         _______ _______ _______ _____ _____    ______ ____
ROOT
ATOM      1  C1  UNL     1     -24.307  -6.568 -18.513  0.00  0.00    +0.000 C 
ATOM      2  C2  UNL     1     -24.856  -6.045 -19.614  0.00  0.00    +0.000 C 
ATOM      3  C3  UNL     1     -24.139  -5.733 -20.874  0.00  0.00    +0.000 C 
ATOM      4  O1  UNL     1     -22.947  -5.912 -21.053  0.00  0.00    +0.000 OA
ATOM      5  N1  UNL     1     -25.140  -5.224 -21.717  0.00  0.00    +0.000 N 
ATOM      6  N2  UNL     1     -26.394  -5.262 -21.072  0.00  0.00    +0.000 N 
ATOM      7  C4  UNL     1     -26.269  -5.654 -19.756  0.00  0.00    +0.000 C 
ATOM      8  O2  UNL     1     -27.122  -5.631 -18.892  0.00  0.00    +0.000 OA
ATOM      9  H3  UNL     1     -27.128  -4.609 -21.312  0.00  0.00    +0.000 HD
ENDROOT
BRANCH   5  10
ATOM     10  C5  UNL     1     -24.997  -4.806 -23.065  0.00  0.00    +0.000 A 
ATOM     11  C6  UNL     1     -25.581  -5.544 -24.110  0.00  0.00    +0.000 A 
ATOM     12  C7  UNL     1     -25.452  -5.138 -25.442  0.00  0.00    +0.000 A 
ATOM     13  C8  UNL     1     -24.736  -3.989 -25.756  0.00  0.00    +0.000 A 
ATOM     14  C9  UNL     1     -24.147  -3.247 -24.737  0.00  0.00    +0.000 A 
ATOM     15  C10 UNL     1     -24.276  -3.654 -23.405  0.00  0.00    +0.000 A 
ENDBRANCH   5  10
TORSDOF 1
ENDMDL
