MODEL 1
REMARK VINA RESULT:    -3.714      0.000      0.000
REMARK INTER + INTRA:          -3.983
REMARK INTER:                  -3.936
REMARK INTRA:                  -0.047
REMARK UNBOUND:                -0.052
REMARK  Name = /home/anacleto/Desktop/manuscript_Mpro/naturecomm/supplementary_file_S2/6-chemical-library/molecular_docking/3D_ligand_structure/1352.pdb
REMARK  1 active torsions:
REMARK  status: ('A' for Active; 'I' for Inactive)
REMARK    1  A    between atoms: C3_5  and  C4_6
REMARK                            x       y       z     vdW  Elec       q    Type
REMARK                         _______ _______ _______ _____ _____    ______ ____
ROOT
ATOM      1  S1  UNL     1      15.530  11.710  -6.221  0.00  0.00    +0.000 S 
ATOM      2  C1  UNL     1      14.105  11.310  -7.084  0.00  0.00    +0.000 A 
ATOM      3  N1  UNL     1      13.142  10.747  -6.386  0.00  0.00    +0.000 NA
ATOM      4  C2  UNL     1      13.555  10.620  -5.072  0.00  0.00    +0.000 A 
ATOM      5  C3  UNL     1      14.824  11.087  -4.788  0.00  0.00    +0.000 A 
ENDROOT
BRANCH   5   6
ATOM      6  C4  UNL     1      15.492  11.079  -3.525  0.00  0.00    +0.000 A 
ATOM      7  N2  UNL     1      16.627  10.453  -3.265  0.00  0.00    +0.000 NA
ATOM      8  N3  UNL     1      16.931  10.692  -1.941  0.00  0.00    +0.000 NA
ATOM      9  C5  UNL     1      15.964  11.446  -1.482  0.00  0.00    +0.000 A 
ATOM     10  O1  UNL     1      15.015  11.738  -2.411  0.00  0.00    +0.000 OA
ENDBRANCH   5   6
TORSDOF 1
ENDMDL
MODEL 2
REMARK VINA RESULT:    -3.556      2.070      4.488
REMARK INTER + INTRA:          -3.816
REMARK INTER:                  -3.764
REMARK INTRA:                  -0.052
REMARK UNBOUND:                -0.052
REMARK  Name = /home/anacleto/Desktop/manuscript_Mpro/naturecomm/supplementary_file_S2/6-chemical-library/molecular_docking/3D_ligand_structure/1352.pdb
REMARK  1 active torsions:
REMARK  status: ('A' for Active; 'I' for Inactive)
REMARK    1  A    between atoms: C3_5  and  C4_6
REMARK                            x       y       z     vdW  Elec       q    Type
REMARK                         _______ _______ _______ _____ _____    ______ ____
ROOT
ATOM      1  S1  UNL     1      16.358  13.597  -2.592  0.00  0.00    +0.000 S 
ATOM      2  C1  UNL     1      16.990  12.968  -1.129  0.00  0.00    +0.000 A 
ATOM      3  N1  UNL     1      16.609  11.751  -0.807  0.00  0.00    +0.000 NA
ATOM      4  C2  UNL     1      15.755  11.274  -1.785  0.00  0.00    +0.000 A 
ATOM      5  C3  UNL     1      15.497  12.134  -2.835  0.00  0.00    +0.000 A 
ENDROOT
BRANCH   5   6
ATOM      6  C4  UNL     1      14.659  11.897  -3.968  0.00  0.00    +0.000 A 
ATOM      7  N2  UNL     1      14.213  12.826  -4.796  0.00  0.00    +0.000 NA
ATOM      8  N3  UNL     1      13.444  12.189  -5.747  0.00  0.00    +0.000 NA
ATOM      9  C5  UNL     1      13.470  10.917  -5.437  0.00  0.00    +0.000 A 
ATOM     10  O1  UNL     1      14.212  10.643  -4.331  0.00  0.00    +0.000 OA
ENDBRANCH   5   6
TORSDOF 1
ENDMDL
MODEL 3
REMARK VINA RESULT:    -3.240     14.936     17.064
REMARK INTER + INTRA:          -3.481
REMARK INTER:                  -3.436
REMARK INTRA:                  -0.046
REMARK UNBOUND:                -0.052
REMARK  Name = /home/anacleto/Desktop/manuscript_Mpro/naturecomm/supplementary_file_S2/6-chemical-library/molecular_docking/3D_ligand_structure/1352.pdb
REMARK  1 active torsions:
REMARK  status: ('A' for Active; 'I' for Inactive)
REMARK    1  A    between atoms: C3_5  and  C4_6
REMARK                            x       y       z     vdW  Elec       q    Type
REMARK                         _______ _______ _______ _____ _____    ______ ____
ROOT
ATOM      1  S1  UNL     1      20.678   7.194  12.843  0.00  0.00    +0.000 S 
ATOM      2  C1  UNL     1      19.785   7.758  14.193  0.00  0.00    +0.000 A 
ATOM      3  N1  UNL     1      18.495   7.933  14.003  0.00  0.00    +0.000 NA
ATOM      4  C2  UNL     1      18.182   7.598  12.698  0.00  0.00    +0.000 A 
ATOM      5  C3  UNL     1      19.237   7.175  11.913  0.00  0.00    +0.000 A 
ENDROOT
BRANCH   5   6
ATOM      6  C4  UNL     1      19.194   6.772  10.543  0.00  0.00    +0.000 A 
ATOM      7  N2  UNL     1      18.900   5.557  10.113  0.00  0.00    +0.000 NA
ATOM      8  N3  UNL     1      18.968   5.585   8.735  0.00  0.00    +0.000 NA
ATOM      9  C5  UNL     1      19.299   6.811   8.417  0.00  0.00    +0.000 A 
ATOM     10  O1  UNL     1      19.461   7.626   9.493  0.00  0.00    +0.000 OA
ENDBRANCH   5   6
TORSDOF 1
ENDMDL
MODEL 4
REMARK VINA RESULT:    -3.197     15.035     16.592
REMARK INTER + INTRA:          -3.436
REMARK INTER:                  -3.390
REMARK INTRA:                  -0.046
REMARK UNBOUND:                -0.052
REMARK  Name = /home/anacleto/Desktop/manuscript_Mpro/naturecomm/supplementary_file_S2/6-chemical-library/molecular_docking/3D_ligand_structure/1352.pdb
REMARK  1 active torsions:
REMARK  status: ('A' for Active; 'I' for Inactive)
REMARK    1  A    between atoms: C3_5  and  C4_6
REMARK                            x       y       z     vdW  Elec       q    Type
REMARK                         _______ _______ _______ _____ _____    ______ ____
ROOT
ATOM      1  S1  UNL     1      18.880   5.068  10.193  0.00  0.00    +0.000 S 
ATOM      2  C1  UNL     1      19.123   5.436   8.537  0.00  0.00    +0.000 A 
ATOM      3  N1  UNL     1      19.411   6.688   8.256  0.00  0.00    +0.000 NA
ATOM      4  C2  UNL     1      19.445   7.416   9.432  0.00  0.00    +0.000 A 
ATOM      5  C3  UNL     1      19.182   6.708  10.589  0.00  0.00    +0.000 A 
ENDROOT
BRANCH   5   6
ATOM      6  C4  UNL     1      19.153   7.210  11.927  0.00  0.00    +0.000 A 
ATOM      7  N2  UNL     1      18.058   7.470  12.621  0.00  0.00    +0.000 NA
ATOM      8  N3  UNL     1      18.460   7.933  13.857  0.00  0.00    +0.000 NA
ATOM      9  C5  UNL     1      19.769   7.925  13.835  0.00  0.00    +0.000 A 
ATOM     10  O1  UNL     1      20.289   7.484  12.659  0.00  0.00    +0.000 OA
ENDBRANCH   5   6
TORSDOF 1
ENDMDL
MODEL 5
REMARK VINA RESULT:    -3.144      2.728      4.351
REMARK INTER + INTRA:          -3.380
REMARK INTER:                  -3.334
REMARK INTRA:                  -0.046
REMARK UNBOUND:                -0.052
REMARK  Name = /home/anacleto/Desktop/manuscript_Mpro/naturecomm/supplementary_file_S2/6-chemical-library/molecular_docking/3D_ligand_structure/1352.pdb
REMARK  1 active torsions:
REMARK  status: ('A' for Active; 'I' for Inactive)
REMARK    1  A    between atoms: C3_5  and  C4_6
REMARK                            x       y       z     vdW  Elec       q    Type
REMARK                         _______ _______ _______ _____ _____    ______ ____
ROOT
ATOM      1  S1  UNL     1      15.706  13.645  -2.370  0.00  0.00    +0.000 S 
ATOM      2  C1  UNL     1      17.326  14.183  -2.525  0.00  0.00    +0.000 A 
ATOM      3  N1  UNL     1      17.955  13.823  -3.623  0.00  0.00    +0.000 NA
ATOM      4  C2  UNL     1      17.100  13.066  -4.404  0.00  0.00    +0.000 A 
ATOM      5  C3  UNL     1      15.834  12.861  -3.890  0.00  0.00    +0.000 A 
ENDROOT
BRANCH   5   6
ATOM      6  C4  UNL     1      14.764  12.124  -4.483  0.00  0.00    +0.000 A 
ATOM      7  N2  UNL     1      14.499  10.848  -4.259  0.00  0.00    +0.000 NA
ATOM      8  N3  UNL     1      13.395  10.522  -5.019  0.00  0.00    +0.000 NA
ATOM      9  C5  UNL     1      13.060  11.616  -5.655  0.00  0.00    +0.000 A 
ATOM     10  O1  UNL     1      13.868  12.673  -5.377  0.00  0.00    +0.000 OA
ENDBRANCH   5   6
TORSDOF 1
ENDMDL
MODEL 6
REMARK VINA RESULT:    -3.111     15.494     17.065
REMARK INTER + INTRA:          -3.345
REMARK INTER:                  -3.299
REMARK INTRA:                  -0.046
REMARK UNBOUND:                -0.052
REMARK  Name = /home/anacleto/Desktop/manuscript_Mpro/naturecomm/supplementary_file_S2/6-chemical-library/molecular_docking/3D_ligand_structure/1352.pdb
REMARK  1 active torsions:
REMARK  status: ('A' for Active; 'I' for Inactive)
REMARK    1  A    between atoms: C3_5  and  C4_6
REMARK                            x       y       z     vdW  Elec       q    Type
REMARK                         _______ _______ _______ _____ _____    ______ ____
ROOT
ATOM      1  S1  UNL     1      18.090   5.093  12.325  0.00  0.00    +0.000 S 
ATOM      2  C1  UNL     1      17.150   5.780  13.583  0.00  0.00    +0.000 A 
ATOM      3  N1  UNL     1      17.207   7.089  13.703  0.00  0.00    +0.000 NA
ATOM      4  C2  UNL     1      18.053   7.593  12.732  0.00  0.00    +0.000 A 
ATOM      5  C3  UNL     1      18.629   6.661  11.888  0.00  0.00    +0.000 A 
ENDROOT
BRANCH   5   6
ATOM      6  C4  UNL     1      19.532   6.907  10.809  0.00  0.00    +0.000 A 
ATOM      7  N2  UNL     1      20.847   6.790  10.873  0.00  0.00    +0.000 NA
ATOM      8  N3  UNL     1      21.346   7.114   9.628  0.00  0.00    +0.000 NA
ATOM      9  C5  UNL     1      20.306   7.407   8.889  0.00  0.00    +0.000 A 
ATOM     10  O1  UNL     1      19.123   7.302   9.552  0.00  0.00    +0.000 OA
ENDBRANCH   5   6
TORSDOF 1
ENDMDL
MODEL 7
REMARK VINA RESULT:    -3.018      3.159      3.164
REMARK INTER + INTRA:          -3.247
REMARK INTER:                  -3.197
REMARK INTRA:                  -0.050
REMARK UNBOUND:                -0.052
REMARK  Name = /home/anacleto/Desktop/manuscript_Mpro/naturecomm/supplementary_file_S2/6-chemical-library/molecular_docking/3D_ligand_structure/1352.pdb
REMARK  1 active torsions:
REMARK  status: ('A' for Active; 'I' for Inactive)
REMARK    1  A    between atoms: C3_5  and  C4_6
REMARK                            x       y       z     vdW  Elec       q    Type
REMARK                         _______ _______ _______ _____ _____    ______ ____
ROOT
ATOM      1  S1  UNL     1      15.877  13.529  -6.051  0.00  0.00    +0.000 S 
ATOM      2  C1  UNL     1      14.935  12.426  -6.964  0.00  0.00    +0.000 A 
ATOM      3  N1  UNL     1      13.843  11.977  -6.386  0.00  0.00    +0.000 NA
ATOM      4  C2  UNL     1      13.736  12.541  -5.127  0.00  0.00    +0.000 A 
ATOM      5  C3  UNL     1      14.747  13.411  -4.767  0.00  0.00    +0.000 A 
ENDROOT
BRANCH   5   6
ATOM      6  C4  UNL     1      14.882  14.126  -3.537  0.00  0.00    +0.000 A 
ATOM      7  N2  UNL     1      13.899  14.737  -2.897  0.00  0.00    +0.000 NA
ATOM      8  N3  UNL     1      14.441  15.301  -1.761  0.00  0.00    +0.000 NA
ATOM      9  C5  UNL     1      15.715  15.000  -1.783  0.00  0.00    +0.000 A 
ATOM     10  O1  UNL     1      16.079  14.261  -2.865  0.00  0.00    +0.000 OA
ENDBRANCH   5   6
TORSDOF 1
ENDMDL
MODEL 8
REMARK VINA RESULT:    -2.914      5.498      7.456
REMARK INTER + INTRA:          -3.136
REMARK INTER:                  -3.087
REMARK INTRA:                  -0.049
REMARK UNBOUND:                -0.052
REMARK  Name = /home/anacleto/Desktop/manuscript_Mpro/naturecomm/supplementary_file_S2/6-chemical-library/molecular_docking/3D_ligand_structure/1352.pdb
REMARK  1 active torsions:
REMARK  status: ('A' for Active; 'I' for Inactive)
REMARK    1  A    between atoms: C3_5  and  C4_6
REMARK                            x       y       z     vdW  Elec       q    Type
REMARK                         _______ _______ _______ _____ _____    ______ ____
ROOT
ATOM      1  S1  UNL     1      19.520  15.812   0.842  0.00  0.00    +0.000 S 
ATOM      2  C1  UNL     1      20.925  16.605   0.264  0.00  0.00    +0.000 A 
ATOM      3  N1  UNL     1      21.510  16.062  -0.782  0.00  0.00    +0.000 NA
ATOM      4  C2  UNL     1      20.801  14.936  -1.160  0.00  0.00    +0.000 A 
ATOM      5  C3  UNL     1      19.687  14.638  -0.397  0.00  0.00    +0.000 A 
ENDROOT
BRANCH   5   6
ATOM      6  C4  UNL     1      18.785  13.544  -0.567  0.00  0.00    +0.000 A 
ATOM      7  N2  UNL     1      17.467  13.626  -0.514  0.00  0.00    +0.000 NA
ATOM      8  N3  UNL     1      16.970  12.357  -0.727  0.00  0.00    +0.000 NA
ATOM      9  C5  UNL     1      18.015  11.586  -0.895  0.00  0.00    +0.000 A 
ATOM     10  O1  UNL     1      19.198  12.250  -0.811  0.00  0.00    +0.000 OA
ENDBRANCH   5   6
TORSDOF 1
ENDMDL
MODEL 9
REMARK VINA RESULT:    -2.873     16.412     17.386
REMARK INTER + INTRA:          -3.093
REMARK INTER:                  -3.041
REMARK INTRA:                  -0.052
REMARK UNBOUND:                -0.052
REMARK  Name = /home/anacleto/Desktop/manuscript_Mpro/naturecomm/supplementary_file_S2/6-chemical-library/molecular_docking/3D_ligand_structure/1352.pdb
REMARK  1 active torsions:
REMARK  status: ('A' for Active; 'I' for Inactive)
REMARK    1  A    between atoms: C3_5  and  C4_6
REMARK                            x       y       z     vdW  Elec       q    Type
REMARK                         _______ _______ _______ _____ _____    ______ ____
ROOT
ATOM      1  S1  UNL     1      16.370   3.420  11.675  0.00  0.00    +0.000 S 
ATOM      2  C1  UNL     1      15.669   4.394  12.899  0.00  0.00    +0.000 A 
ATOM      3  N1  UNL     1      14.360   4.522  12.860  0.00  0.00    +0.000 NA
ATOM      4  C2  UNL     1      13.869   3.801  11.787  0.00  0.00    +0.000 A 
ATOM      5  C3  UNL     1      14.810   3.134  11.025  0.00  0.00    +0.000 A 
ENDROOT
BRANCH   5   6
ATOM      6  C4  UNL     1      14.578   2.323   9.872  0.00  0.00    +0.000 A 
ATOM      7  N2  UNL     1      15.491   1.993   8.975  0.00  0.00    +0.000 NA
ATOM      8  N3  UNL     1      14.867   1.207   8.028  0.00  0.00    +0.000 NA
ATOM      9  C5  UNL     1      13.618   1.110   8.409  0.00  0.00    +0.000 A 
ATOM     10  O1  UNL     1      13.348   1.782   9.560  0.00  0.00    +0.000 OA
ENDBRANCH   5   6
TORSDOF 1
ENDMDL
