MODEL 1
REMARK VINA RESULT:    -5.126      0.000      0.000
REMARK INTER + INTRA:          -5.499
REMARK INTER:                  -5.267
REMARK INTRA:                  -0.232
REMARK UNBOUND:                -0.073
REMARK  Name = /home/anacleto/Desktop/manuscript_Mpro/naturecomm/supplementary_file_S2/6-chemical-library/molecular_docking/3D_ligand_structure/973.pdb
REMARK  1 active torsions:
REMARK  status: ('A' for Active; 'I' for Inactive)
REMARK    1  A    between atoms: N1_5  and  C5_9
REMARK                            x       y       z     vdW  Elec       q    Type
REMARK                         _______ _______ _______ _____ _____    ______ ____
ROOT
ATOM      1  C1  UNL     1      16.012  15.150  -0.857  0.00  0.00    +0.000 C 
ATOM      2  C2  UNL     1      15.346  14.822  -1.969  0.00  0.00    +0.000 C 
ATOM      3  C3  UNL     1      15.724  13.746  -2.918  0.00  0.00    +0.000 C 
ATOM      4  O1  UNL     1      16.703  13.032  -2.798  0.00  0.00    +0.000 OA
ATOM      5  N1  UNL     1      14.718  13.790  -3.897  0.00  0.00    +0.000 N 
ATOM      6  N2  UNL     1      13.753  14.767  -3.571  0.00  0.00    +0.000 N 
ATOM      7  C4  UNL     1      14.135  15.497  -2.465  0.00  0.00    +0.000 C 
ATOM      8  O2  UNL     1      13.617  16.506  -2.029  0.00  0.00    +0.000 OA
ATOM      9  H3  UNL     1      13.209  15.228  -4.288  0.00  0.00    +0.000 HD
ENDROOT
BRANCH   5  10
ATOM     10  C5  UNL     1      14.579  12.939  -5.023  0.00  0.00    +0.000 A 
ATOM     11  C6  UNL     1      13.619  11.912  -5.032  0.00  0.00    +0.000 A 
ATOM     12  C7  UNL     1      13.468  11.072  -6.140  0.00  0.00    +0.000 A 
ATOM     13  C8  UNL     1      14.275  11.240  -7.259  0.00  0.00    +0.000 A 
ATOM     14  C9  UNL     1      15.234  12.247  -7.269  0.00  0.00    +0.000 A 
ATOM     15  C10 UNL     1      15.385  13.088  -6.161  0.00  0.00    +0.000 A 
ENDBRANCH   5  10
TORSDOF 1
ENDMDL
MODEL 2
REMARK VINA RESULT:    -4.900     15.536     16.779
REMARK INTER + INTRA:          -5.260
REMARK INTER:                  -5.099
REMARK INTRA:                  -0.161
REMARK UNBOUND:                -0.073
REMARK  Name = /home/anacleto/Desktop/manuscript_Mpro/naturecomm/supplementary_file_S2/6-chemical-library/molecular_docking/3D_ligand_structure/973.pdb
REMARK  1 active torsions:
REMARK  status: ('A' for Active; 'I' for Inactive)
REMARK    1  A    between atoms: N1_5  and  C5_9
REMARK                            x       y       z     vdW  Elec       q    Type
REMARK                         _______ _______ _______ _____ _____    ______ ____
ROOT
ATOM      1  C1  UNL     1      19.529   7.185  11.407  0.00  0.00    +0.000 C 
ATOM      2  C2  UNL     1      19.112   6.374  10.429  0.00  0.00    +0.000 C 
ATOM      3  C3  UNL     1      18.579   5.002  10.611  0.00  0.00    +0.000 C 
ATOM      4  O1  UNL     1      18.465   4.443  11.687  0.00  0.00    +0.000 OA
ATOM      5  N1  UNL     1      18.272   4.582   9.306  0.00  0.00    +0.000 N 
ATOM      6  N2  UNL     1      18.532   5.615   8.381  0.00  0.00    +0.000 N 
ATOM      7  C4  UNL     1      19.141   6.692   8.991  0.00  0.00    +0.000 C 
ATOM      8  O2  UNL     1      19.639   7.662   8.456  0.00  0.00    +0.000 OA
ATOM      9  H3  UNL     1      18.767   5.411   7.419  0.00  0.00    +0.000 HD
ENDROOT
BRANCH   5  10
ATOM     10  C5  UNL     1      17.692   3.348   8.917  0.00  0.00    +0.000 A 
ATOM     11  C6  UNL     1      16.532   3.320   8.123  0.00  0.00    +0.000 A 
ATOM     12  C7  UNL     1      15.955   2.109   7.726  0.00  0.00    +0.000 A 
ATOM     13  C8  UNL     1      16.526   0.903   8.117  0.00  0.00    +0.000 A 
ATOM     14  C9  UNL     1      17.671   0.908   8.906  0.00  0.00    +0.000 A 
ATOM     15  C10 UNL     1      18.247   2.120   9.303  0.00  0.00    +0.000 A 
ENDBRANCH   5  10
TORSDOF 1
ENDMDL
MODEL 3
REMARK VINA RESULT:    -4.850     17.697     18.609
REMARK INTER + INTRA:          -5.207
REMARK INTER:                  -4.991
REMARK INTRA:                  -0.216
REMARK UNBOUND:                -0.073
REMARK  Name = /home/anacleto/Desktop/manuscript_Mpro/naturecomm/supplementary_file_S2/6-chemical-library/molecular_docking/3D_ligand_structure/973.pdb
REMARK  1 active torsions:
REMARK  status: ('A' for Active; 'I' for Inactive)
REMARK    1  A    between atoms: N1_5  and  C5_9
REMARK                            x       y       z     vdW  Elec       q    Type
REMARK                         _______ _______ _______ _____ _____    ______ ____
ROOT
ATOM      1  C1  UNL     1      28.082  16.240   7.507  0.00  0.00    +0.000 C 
ATOM      2  C2  UNL     1      27.288  15.625   8.390  0.00  0.00    +0.000 C 
ATOM      3  C3  UNL     1      26.346  16.294   9.321  0.00  0.00    +0.000 C 
ATOM      4  O1  UNL     1      26.190  17.499   9.396  0.00  0.00    +0.000 OA
ATOM      5  N1  UNL     1      25.747  15.231  10.017  0.00  0.00    +0.000 N 
ATOM      6  N2  UNL     1      26.222  13.994   9.534  0.00  0.00    +0.000 N 
ATOM      7  C4  UNL     1      27.236  14.171   8.616  0.00  0.00    +0.000 C 
ATOM      8  O2  UNL     1      27.961  13.320   8.142  0.00  0.00    +0.000 OA
ATOM      9  H3  UNL     1      26.244  13.173  10.125  0.00  0.00    +0.000 HD
ENDROOT
BRANCH   5  10
ATOM     10  C5  UNL     1      24.734  15.318  11.006  0.00  0.00    +0.000 A 
ATOM     11  C6  UNL     1      24.994  14.937  12.334  0.00  0.00    +0.000 A 
ATOM     12  C7  UNL     1      24.005  15.024  13.319  0.00  0.00    +0.000 A 
ATOM     13  C8  UNL     1      22.737  15.493  12.996  0.00  0.00    +0.000 A 
ATOM     14  C9  UNL     1      22.458  15.871  11.687  0.00  0.00    +0.000 A 
ATOM     15  C10 UNL     1      23.447  15.783  10.702  0.00  0.00    +0.000 A 
ENDBRANCH   5  10
TORSDOF 1
ENDMDL
MODEL 4
REMARK VINA RESULT:    -4.834     15.530     17.170
REMARK INTER + INTRA:          -5.190
REMARK INTER:                  -4.995
REMARK INTRA:                  -0.194
REMARK UNBOUND:                -0.073
REMARK  Name = /home/anacleto/Desktop/manuscript_Mpro/naturecomm/supplementary_file_S2/6-chemical-library/molecular_docking/3D_ligand_structure/973.pdb
REMARK  1 active torsions:
REMARK  status: ('A' for Active; 'I' for Inactive)
REMARK    1  A    between atoms: N1_5  and  C5_9
REMARK                            x       y       z     vdW  Elec       q    Type
REMARK                         _______ _______ _______ _____ _____    ______ ____
ROOT
ATOM      1  C1  UNL     1      17.509   0.450   9.102  0.00  0.00    +0.000 C 
ATOM      2  C2  UNL     1      17.483   1.778   8.950  0.00  0.00    +0.000 C 
ATOM      3  C3  UNL     1      18.512   2.727   9.443  0.00  0.00    +0.000 C 
ATOM      4  O1  UNL     1      19.511   2.402  10.059  0.00  0.00    +0.000 OA
ATOM      5  N1  UNL     1      18.041   3.983   9.027  0.00  0.00    +0.000 N 
ATOM      6  N2  UNL     1      16.849   3.843   8.286  0.00  0.00    +0.000 N 
ATOM      7  C4  UNL     1      16.405   2.537   8.293  0.00  0.00    +0.000 C 
ATOM      8  O2  UNL     1      15.338   2.115   7.895  0.00  0.00    +0.000 OA
ATOM      9  H3  UNL     1      16.162   4.584   8.250  0.00  0.00    +0.000 HD
ENDROOT
BRANCH   5  10
ATOM     10  C5  UNL     1      18.674   5.239   9.208  0.00  0.00    +0.000 A 
ATOM     11  C6  UNL     1      18.916   5.740  10.499  0.00  0.00    +0.000 A 
ATOM     12  C7  UNL     1      19.546   6.974  10.691  0.00  0.00    +0.000 A 
ATOM     13  C8  UNL     1      19.945   7.731   9.596  0.00  0.00    +0.000 A 
ATOM     14  C9  UNL     1      19.711   7.256   8.310  0.00  0.00    +0.000 A 
ATOM     15  C10 UNL     1      19.080   6.022   8.119  0.00  0.00    +0.000 A 
ENDBRANCH   5  10
TORSDOF 1
ENDMDL
MODEL 5
REMARK VINA RESULT:    -4.815     16.483     18.308
REMARK INTER + INTRA:          -5.170
REMARK INTER:                  -4.934
REMARK INTRA:                  -0.236
REMARK UNBOUND:                -0.073
REMARK  Name = /home/anacleto/Desktop/manuscript_Mpro/naturecomm/supplementary_file_S2/6-chemical-library/molecular_docking/3D_ligand_structure/973.pdb
REMARK  1 active torsions:
REMARK  status: ('A' for Active; 'I' for Inactive)
REMARK    1  A    between atoms: N1_5  and  C5_9
REMARK                            x       y       z     vdW  Elec       q    Type
REMARK                         _______ _______ _______ _____ _____    ______ ____
ROOT
ATOM      1  C1  UNL     1      22.206   6.865  15.219  0.00  0.00    +0.000 C 
ATOM      2  C2  UNL     1      22.105   7.085  13.904  0.00  0.00    +0.000 C 
ATOM      3  C3  UNL     1      21.180   6.385  12.979  0.00  0.00    +0.000 C 
ATOM      4  O1  UNL     1      20.399   5.512  13.313  0.00  0.00    +0.000 OA
ATOM      5  N1  UNL     1      21.442   6.972  11.730  0.00  0.00    +0.000 N 
ATOM      6  N2  UNL     1      22.406   7.994  11.858  0.00  0.00    +0.000 N 
ATOM      7  C4  UNL     1      22.921   8.040  13.136  0.00  0.00    +0.000 C 
ATOM      8  O2  UNL     1      23.873   8.684  13.528  0.00  0.00    +0.000 OA
ATOM      9  H3  UNL     1      23.009   8.246  11.086  0.00  0.00    +0.000 HD
ENDROOT
BRANCH   5  10
ATOM     10  C5  UNL     1      20.796   6.692  10.499  0.00  0.00    +0.000 A 
ATOM     11  C6  UNL     1      19.637   7.392  10.121  0.00  0.00    +0.000 A 
ATOM     12  C7  UNL     1      18.996   7.129   8.906  0.00  0.00    +0.000 A 
ATOM     13  C8  UNL     1      19.501   6.162   8.046  0.00  0.00    +0.000 A 
ATOM     14  C9  UNL     1      20.645   5.455   8.402  0.00  0.00    +0.000 A 
ATOM     15  C10 UNL     1      21.285   5.718   9.618  0.00  0.00    +0.000 A 
ENDBRANCH   5  10
TORSDOF 1
ENDMDL
MODEL 6
REMARK VINA RESULT:    -4.788      2.836      5.434
REMARK INTER + INTRA:          -5.141
REMARK INTER:                  -4.918
REMARK INTRA:                  -0.223
REMARK UNBOUND:                -0.073
REMARK  Name = /home/anacleto/Desktop/manuscript_Mpro/naturecomm/supplementary_file_S2/6-chemical-library/molecular_docking/3D_ligand_structure/973.pdb
REMARK  1 active torsions:
REMARK  status: ('A' for Active; 'I' for Inactive)
REMARK    1  A    between atoms: N1_5  and  C5_9
REMARK                            x       y       z     vdW  Elec       q    Type
REMARK                         _______ _______ _______ _____ _____    ______ ____
ROOT
ATOM      1  C1  UNL     1      14.619  11.552  -6.908  0.00  0.00    +0.000 C 
ATOM      2  C2  UNL     1      14.953  11.485  -5.616  0.00  0.00    +0.000 C 
ATOM      3  C3  UNL     1      16.203  12.013  -5.016  0.00  0.00    +0.000 C 
ATOM      4  O1  UNL     1      17.087  12.571  -5.642  0.00  0.00    +0.000 OA
ATOM      5  N1  UNL     1      16.077  11.714  -3.650  0.00  0.00    +0.000 N 
ATOM      6  N2  UNL     1      14.833  11.101  -3.392  0.00  0.00    +0.000 N 
ATOM      7  C4  UNL     1      14.150  10.842  -4.562  0.00  0.00    +0.000 C 
ATOM      8  O2  UNL     1      13.139  10.183  -4.699  0.00  0.00    +0.000 OA
ATOM      9  H3  UNL     1      14.711  10.468  -2.613  0.00  0.00    +0.000 HD
ENDROOT
BRANCH   5  10
ATOM     10  C5  UNL     1      16.988  12.040  -2.613  0.00  0.00    +0.000 A 
ATOM     11  C6  UNL     1      17.711  11.032  -1.951  0.00  0.00    +0.000 A 
ATOM     12  C7  UNL     1      18.617  11.342  -0.932  0.00  0.00    +0.000 A 
ATOM     13  C8  UNL     1      18.817  12.664  -0.554  0.00  0.00    +0.000 A 
ATOM     14  C9  UNL     1      18.108  13.676  -1.193  0.00  0.00    +0.000 A 
ATOM     15  C10 UNL     1      17.202  13.365  -2.212  0.00  0.00    +0.000 A 
ENDBRANCH   5  10
TORSDOF 1
ENDMDL
MODEL 7
REMARK VINA RESULT:    -4.764     16.218     17.932
REMARK INTER + INTRA:          -5.115
REMARK INTER:                  -4.880
REMARK INTRA:                  -0.236
REMARK UNBOUND:                -0.073
REMARK  Name = /home/anacleto/Desktop/manuscript_Mpro/naturecomm/supplementary_file_S2/6-chemical-library/molecular_docking/3D_ligand_structure/973.pdb
REMARK  1 active torsions:
REMARK  status: ('A' for Active; 'I' for Inactive)
REMARK    1  A    between atoms: N1_5  and  C5_9
REMARK                            x       y       z     vdW  Elec       q    Type
REMARK                         _______ _______ _______ _____ _____    ______ ____
ROOT
ATOM      1  C1  UNL     1      19.712   7.283  15.597  0.00  0.00    +0.000 C 
ATOM      2  C2  UNL     1      19.180   7.218  14.372  0.00  0.00    +0.000 C 
ATOM      3  C3  UNL     1      19.900   6.833  13.134  0.00  0.00    +0.000 C 
ATOM      4  O1  UNL     1      21.080   6.535  13.087  0.00  0.00    +0.000 OA
ATOM      5  N1  UNL     1      18.917   6.904  12.134  0.00  0.00    +0.000 N 
ATOM      6  N2  UNL     1      17.668   7.247  12.693  0.00  0.00    +0.000 N 
ATOM      7  C4  UNL     1      17.786   7.552  14.033  0.00  0.00    +0.000 C 
ATOM      8  O2  UNL     1      16.942   8.038  14.759  0.00  0.00    +0.000 OA
ATOM      9  H3  UNL     1      16.965   7.730  12.149  0.00  0.00    +0.000 HD
ENDROOT
BRANCH   5  10
ATOM     10  C5  UNL     1      19.070   6.594  10.758  0.00  0.00    +0.000 A 
ATOM     11  C6  UNL     1      19.487   7.576   9.844  0.00  0.00    +0.000 A 
ATOM     12  C7  UNL     1      19.648   7.280   8.486  0.00  0.00    +0.000 A 
ATOM     13  C8  UNL     1      19.393   5.997   8.017  0.00  0.00    +0.000 A 
ATOM     14  C9  UNL     1      18.975   5.011   8.905  0.00  0.00    +0.000 A 
ATOM     15  C10 UNL     1      18.814   5.308  10.262  0.00  0.00    +0.000 A 
ENDBRANCH   5  10
TORSDOF 1
ENDMDL
MODEL 8
REMARK VINA RESULT:    -4.529      2.149      2.534
REMARK INTER + INTRA:          -4.867
REMARK INTER:                  -4.632
REMARK INTRA:                  -0.235
REMARK UNBOUND:                -0.073
REMARK  Name = /home/anacleto/Desktop/manuscript_Mpro/naturecomm/supplementary_file_S2/6-chemical-library/molecular_docking/3D_ligand_structure/973.pdb
REMARK  1 active torsions:
REMARK  status: ('A' for Active; 'I' for Inactive)
REMARK    1  A    between atoms: N1_5  and  C5_9
REMARK                            x       y       z     vdW  Elec       q    Type
REMARK                         _______ _______ _______ _____ _____    ______ ____
ROOT
ATOM      1  C1  UNL     1      19.007  12.668  -0.721  0.00  0.00    +0.000 C 
ATOM      2  C2  UNL     1      17.868  12.802  -1.409  0.00  0.00    +0.000 C 
ATOM      3  C3  UNL     1      17.527  12.090  -2.665  0.00  0.00    +0.000 C 
ATOM      4  O1  UNL     1      18.257  11.295  -3.228  0.00  0.00    +0.000 OA
ATOM      5  N1  UNL     1      16.239  12.556  -2.979  0.00  0.00    +0.000 N 
ATOM      6  N2  UNL     1      15.778  13.441  -1.982  0.00  0.00    +0.000 N 
ATOM      7  C4  UNL     1      16.764  13.710  -1.056  0.00  0.00    +0.000 C 
ATOM      8  O2  UNL     1      16.746  14.549  -0.177  0.00  0.00    +0.000 OA
ATOM      9  H3  UNL     1      15.106  14.166  -2.194  0.00  0.00    +0.000 HD
ENDROOT
BRANCH   5  10
ATOM     10  C5  UNL     1      15.427  12.159  -4.072  0.00  0.00    +0.000 A 
ATOM     11  C6  UNL     1      14.616  11.014  -3.984  0.00  0.00    +0.000 A 
ATOM     12  C7  UNL     1      13.805  10.618  -5.052  0.00  0.00    +0.000 A 
ATOM     13  C8  UNL     1      13.790  11.357  -6.229  0.00  0.00    +0.000 A 
ATOM     14  C9  UNL     1      14.588  12.491  -6.338  0.00  0.00    +0.000 A 
ATOM     15  C10 UNL     1      15.399  12.887  -5.269  0.00  0.00    +0.000 A 
ENDBRANCH   5  10
TORSDOF 1
ENDMDL
MODEL 9
REMARK VINA RESULT:    -4.459      1.876      5.088
REMARK INTER + INTRA:          -4.793
REMARK INTER:                  -4.720
REMARK INTRA:                  -0.073
REMARK UNBOUND:                -0.073
REMARK  Name = /home/anacleto/Desktop/manuscript_Mpro/naturecomm/supplementary_file_S2/6-chemical-library/molecular_docking/3D_ligand_structure/973.pdb
REMARK  1 active torsions:
REMARK  status: ('A' for Active; 'I' for Inactive)
REMARK    1  A    between atoms: N1_5  and  C5_9
REMARK                            x       y       z     vdW  Elec       q    Type
REMARK                         _______ _______ _______ _____ _____    ______ ____
ROOT
ATOM      1  C1  UNL     1      15.546  11.666  -7.294  0.00  0.00    +0.000 C 
ATOM      2  C2  UNL     1      14.999  12.196  -6.195  0.00  0.00    +0.000 C 
ATOM      3  C3  UNL     1      15.706  13.030  -5.192  0.00  0.00    +0.000 C 
ATOM      4  O1  UNL     1      16.886  13.326  -5.250  0.00  0.00    +0.000 OA
ATOM      5  N1  UNL     1      14.711  13.347  -4.253  0.00  0.00    +0.000 N 
ATOM      6  N2  UNL     1      13.468  12.812  -4.652  0.00  0.00    +0.000 N 
ATOM      7  C4  UNL     1      13.601  12.015  -5.770  0.00  0.00    +0.000 C 
ATOM      8  O2  UNL     1      12.765  11.285  -6.263  0.00  0.00    +0.000 OA
ATOM      9  H3  UNL     1      12.757  12.574  -3.973  0.00  0.00    +0.000 HD
ENDROOT
BRANCH   5  10
ATOM     10  C5  UNL     1      14.847  14.163  -3.102  0.00  0.00    +0.000 A 
ATOM     11  C6  UNL     1      15.978  14.052  -2.274  0.00  0.00    +0.000 A 
ATOM     12  C7  UNL     1      16.128  14.857  -1.140  0.00  0.00    +0.000 A 
ATOM     13  C8  UNL     1      15.148  15.787  -0.810  0.00  0.00    +0.000 A 
ATOM     14  C9  UNL     1      14.019  15.910  -1.614  0.00  0.00    +0.000 A 
ATOM     15  C10 UNL     1      13.871  15.104  -2.748  0.00  0.00    +0.000 A 
ENDBRANCH   5  10
TORSDOF 1
ENDMDL
