MODEL 1
REMARK VINA RESULT:    -4.255      0.000      0.000
REMARK INTER + INTRA:          -4.255
REMARK INTER:                  -4.255
REMARK INTRA:                   0.000
REMARK UNBOUND:                 0.000
REMARK  Name = /home/anacleto/Desktop/manuscript_Mpro/naturecomm/supplementary_file_S2/6-chemical-library/molecular_docking/3D_ligand_structure/231.pdb
REMARK  0 active torsions:
REMARK  status: ('A' for Active; 'I' for Inactive)
REMARK                            x       y       z     vdW  Elec       q    Type
REMARK                         _______ _______ _______ _____ _____    ______ ____
ROOT
ATOM      1  N1  UNL     1     -39.062   5.662 -13.908  0.00  0.00    +0.000 N 
ATOM      2  C1  UNL     1     -37.942   4.944 -14.352  0.00  0.00    +0.000 A 
ATOM      3  O1  UNL     1     -37.686   3.777 -14.118  0.00  0.00    +0.000 OA
ATOM      4  N2  UNL     1     -37.172   5.833 -15.118  0.00  0.00    +0.000 N 
ATOM      5  C2  UNL     1     -37.809   7.069 -15.141  0.00  0.00    +0.000 A 
ATOM      6  C3  UNL     1     -38.979   6.963 -14.392  0.00  0.00    +0.000 A 
ATOM      7  C4  UNL     1     -37.436   8.239 -15.758  0.00  0.00    +0.000 A 
ATOM      8  C5  UNL     1     -38.295   9.333 -15.600  0.00  0.00    +0.000 A 
ATOM      9  C6  UNL     1     -39.482   9.225 -14.840  0.00  0.00    +0.000 A 
ATOM     10  C7  UNL     1     -39.839   8.021 -14.221  0.00  0.00    +0.000 A 
ATOM     11  H1  UNL     1     -39.788   5.268 -13.333  0.00  0.00    +0.000 HD
ATOM     12  H2  UNL     1     -36.305   5.582 -15.563  0.00  0.00    +0.000 HD
ENDROOT
TORSDOF 0
ENDMDL
MODEL 2
REMARK VINA RESULT:    -4.173     28.461     29.622
REMARK INTER + INTRA:          -4.173
REMARK INTER:                  -4.173
REMARK INTRA:                   0.000
REMARK UNBOUND:                 0.000
REMARK  Name = /home/anacleto/Desktop/manuscript_Mpro/naturecomm/supplementary_file_S2/6-chemical-library/molecular_docking/3D_ligand_structure/231.pdb
REMARK  0 active torsions:
REMARK  status: ('A' for Active; 'I' for Inactive)
REMARK                            x       y       z     vdW  Elec       q    Type
REMARK                         _______ _______ _______ _____ _____    ______ ____
ROOT
ATOM      1  N1  UNL     1     -21.996   7.903 -37.624  0.00  0.00    +0.000 N 
ATOM      2  C1  UNL     1     -21.878   6.554 -37.989  0.00  0.00    +0.000 A 
ATOM      3  O1  UNL     1     -22.714   5.683 -37.835  0.00  0.00    +0.000 OA
ATOM      4  N2  UNL     1     -20.608   6.404 -38.567  0.00  0.00    +0.000 N 
ATOM      5  C2  UNL     1     -19.963   7.636 -38.555  0.00  0.00    +0.000 A 
ATOM      6  C3  UNL     1     -20.823   8.564 -37.972  0.00  0.00    +0.000 A 
ATOM      7  C4  UNL     1     -18.713   7.979 -39.010  0.00  0.00    +0.000 A 
ATOM      8  C5  UNL     1     -18.336   9.318 -38.859  0.00  0.00    +0.000 A 
ATOM      9  C6  UNL     1     -19.208  10.260 -38.266  0.00  0.00    +0.000 A 
ATOM     10  C7  UNL     1     -20.478   9.885 -37.811  0.00  0.00    +0.000 A 
ATOM     11  H1  UNL     1     -22.812   8.294 -37.183  0.00  0.00    +0.000 HD
ATOM     12  H2  UNL     1     -20.254   5.531 -38.922  0.00  0.00    +0.000 HD
ENDROOT
TORSDOF 0
ENDMDL
MODEL 3
REMARK VINA RESULT:    -4.156     29.643     30.847
REMARK INTER + INTRA:          -4.156
REMARK INTER:                  -4.156
REMARK INTRA:                   0.000
REMARK UNBOUND:                 0.000
REMARK  Name = /home/anacleto/Desktop/manuscript_Mpro/naturecomm/supplementary_file_S2/6-chemical-library/molecular_docking/3D_ligand_structure/231.pdb
REMARK  0 active torsions:
REMARK  status: ('A' for Active; 'I' for Inactive)
REMARK                            x       y       z     vdW  Elec       q    Type
REMARK                         _______ _______ _______ _____ _____    ______ ____
ROOT
ATOM      1  N1  UNL     1     -18.131   7.958 -39.852  0.00  0.00    +0.000 N 
ATOM      2  C1  UNL     1     -17.582   9.057 -39.177  0.00  0.00    +0.000 A 
ATOM      3  O1  UNL     1     -16.511   9.589 -39.405  0.00  0.00    +0.000 OA
ATOM      4  N2  UNL     1     -18.507   9.425 -38.189  0.00  0.00    +0.000 N 
ATOM      5  C2  UNL     1     -19.600   8.567 -38.258  0.00  0.00    +0.000 A 
ATOM      6  C3  UNL     1     -19.366   7.659 -39.288  0.00  0.00    +0.000 A 
ATOM      7  C4  UNL     1     -20.744   8.538 -37.498  0.00  0.00    +0.000 A 
ATOM      8  C5  UNL     1     -21.677   7.542 -37.809  0.00  0.00    +0.000 A 
ATOM      9  C6  UNL     1     -21.441   6.621 -38.854  0.00  0.00    +0.000 A 
ATOM     10  C7  UNL     1     -20.266   6.672 -39.613  0.00  0.00    +0.000 A 
ATOM     11  H1  UNL     1     -17.677   7.485 -40.616  0.00  0.00    +0.000 HD
ATOM     12  H2  UNL     1     -18.369  10.191 -37.550  0.00  0.00    +0.000 HD
ENDROOT
TORSDOF 0
ENDMDL
MODEL 4
REMARK VINA RESULT:    -4.066      2.194      3.821
REMARK INTER + INTRA:          -4.066
REMARK INTER:                  -4.066
REMARK INTRA:                   0.000
REMARK UNBOUND:                 0.000
REMARK  Name = /home/anacleto/Desktop/manuscript_Mpro/naturecomm/supplementary_file_S2/6-chemical-library/molecular_docking/3D_ligand_structure/231.pdb
REMARK  0 active torsions:
REMARK  status: ('A' for Active; 'I' for Inactive)
REMARK                            x       y       z     vdW  Elec       q    Type
REMARK                         _______ _______ _______ _____ _____    ______ ____
ROOT
ATOM      1  N1  UNL     1     -38.500   7.461 -13.889  0.00  0.00    +0.000 N 
ATOM      2  C1  UNL     1     -37.891   7.734 -15.122  0.00  0.00    +0.000 A 
ATOM      3  O1  UNL     1     -37.818   8.816 -15.674  0.00  0.00    +0.000 OA
ATOM      4  N2  UNL     1     -37.379   6.516 -15.595  0.00  0.00    +0.000 N 
ATOM      5  C2  UNL     1     -37.671   5.519 -14.670  0.00  0.00    +0.000 A 
ATOM      6  C3  UNL     1     -38.365   6.105 -13.614  0.00  0.00    +0.000 A 
ATOM      7  C4  UNL     1     -37.375   4.178 -14.700  0.00  0.00    +0.000 A 
ATOM      8  C5  UNL     1     -37.807   3.416 -13.608  0.00  0.00    +0.000 A 
ATOM      9  C6  UNL     1     -38.511   4.011 -12.536  0.00  0.00    +0.000 A 
ATOM     10  C7  UNL     1     -38.800   5.380 -12.530  0.00  0.00    +0.000 A 
ATOM     11  H1  UNL     1     -38.954   8.159 -13.322  0.00  0.00    +0.000 HD
ATOM     12  H2  UNL     1     -36.887   6.417 -16.467  0.00  0.00    +0.000 HD
ENDROOT
TORSDOF 0
ENDMDL
MODEL 5
REMARK VINA RESULT:    -4.013     26.624     27.484
REMARK INTER + INTRA:          -4.013
REMARK INTER:                  -4.013
REMARK INTRA:                   0.000
REMARK UNBOUND:                 0.000
REMARK  Name = /home/anacleto/Desktop/manuscript_Mpro/naturecomm/supplementary_file_S2/6-chemical-library/molecular_docking/3D_ligand_structure/231.pdb
REMARK  0 active torsions:
REMARK  status: ('A' for Active; 'I' for Inactive)
REMARK                            x       y       z     vdW  Elec       q    Type
REMARK                         _______ _______ _______ _____ _____    ______ ____
ROOT
ATOM      1  N1  UNL     1     -24.734  10.178 -37.323  0.00  0.00    +0.000 N 
ATOM      2  C1  UNL     1     -25.650   9.318 -37.945  0.00  0.00    +0.000 A 
ATOM      3  O1  UNL     1     -26.835   9.528 -38.131  0.00  0.00    +0.000 OA
ATOM      4  N2  UNL     1     -24.936   8.167 -38.312  0.00  0.00    +0.000 N 
ATOM      5  C2  UNL     1     -23.610   8.321 -37.922  0.00  0.00    +0.000 A 
ATOM      6  C3  UNL     1     -23.485   9.566 -37.309  0.00  0.00    +0.000 A 
ATOM      7  C4  UNL     1     -22.546   7.464 -38.067  0.00  0.00    +0.000 A 
ATOM      8  C5  UNL     1     -21.315   7.903 -37.566  0.00  0.00    +0.000 A 
ATOM      9  C6  UNL     1     -21.188   9.167 -36.944  0.00  0.00    +0.000 A 
ATOM     10  C7  UNL     1     -22.289  10.021 -36.809  0.00  0.00    +0.000 A 
ATOM     11  H1  UNL     1     -24.976  11.084 -36.956  0.00  0.00    +0.000 HD
ATOM     12  H2  UNL     1     -25.349   7.378 -38.781  0.00  0.00    +0.000 HD
ENDROOT
TORSDOF 0
ENDMDL
MODEL 6
REMARK VINA RESULT:    -3.954     19.459     20.223
REMARK INTER + INTRA:          -3.954
REMARK INTER:                  -3.954
REMARK INTRA:                   0.000
REMARK UNBOUND:                 0.000
REMARK  Name = /home/anacleto/Desktop/manuscript_Mpro/naturecomm/supplementary_file_S2/6-chemical-library/molecular_docking/3D_ligand_structure/231.pdb
REMARK  0 active torsions:
REMARK  status: ('A' for Active; 'I' for Inactive)
REMARK                            x       y       z     vdW  Elec       q    Type
REMARK                         _______ _______ _______ _____ _____    ______ ____
ROOT
ATOM      1  N1  UNL     1     -27.256  -5.936 -25.487  0.00  0.00    +0.000 N 
ATOM      2  C1  UNL     1     -28.657  -5.967 -25.536  0.00  0.00    +0.000 A 
ATOM      3  O1  UNL     1     -29.396  -6.610 -24.812  0.00  0.00    +0.000 OA
ATOM      4  N2  UNL     1     -29.043  -5.113 -26.580  0.00  0.00    +0.000 N 
ATOM      5  C2  UNL     1     -27.899  -4.571 -27.158  0.00  0.00    +0.000 A 
ATOM      6  C3  UNL     1     -26.794  -5.080 -26.481  0.00  0.00    +0.000 A 
ATOM      7  C4  UNL     1     -27.777  -3.689 -28.205  0.00  0.00    +0.000 A 
ATOM      8  C5  UNL     1     -26.476  -3.321 -28.566  0.00  0.00    +0.000 A 
ATOM      9  C6  UNL     1     -25.354  -3.838 -27.879  0.00  0.00    +0.000 A 
ATOM     10  C7  UNL     1     -25.506  -4.736 -26.816  0.00  0.00    +0.000 A 
ATOM     11  H1  UNL     1     -26.706  -6.461 -24.827  0.00  0.00    +0.000 HD
ATOM     12  H2  UNL     1     -30.000  -4.944 -26.841  0.00  0.00    +0.000 HD
ENDROOT
TORSDOF 0
ENDMDL
MODEL 7
REMARK VINA RESULT:    -3.953     26.732     27.671
REMARK INTER + INTRA:          -3.953
REMARK INTER:                  -3.953
REMARK INTRA:                   0.000
REMARK UNBOUND:                 0.000
REMARK  Name = /home/anacleto/Desktop/manuscript_Mpro/naturecomm/supplementary_file_S2/6-chemical-library/molecular_docking/3D_ligand_structure/231.pdb
REMARK  0 active torsions:
REMARK  status: ('A' for Active; 'I' for Inactive)
REMARK                            x       y       z     vdW  Elec       q    Type
REMARK                         _______ _______ _______ _____ _____    ______ ____
ROOT
ATOM      1  N1  UNL     1     -24.971   8.496 -38.252  0.00  0.00    +0.000 N 
ATOM      2  C1  UNL     1     -25.263   9.777 -37.762  0.00  0.00    +0.000 A 
ATOM      3  O1  UNL     1     -26.342  10.341 -37.796  0.00  0.00    +0.000 OA
ATOM      4  N2  UNL     1     -24.071  10.283 -37.222  0.00  0.00    +0.000 N 
ATOM      5  C2  UNL     1     -23.070   9.330 -37.380  0.00  0.00    +0.000 A 
ATOM      6  C3  UNL     1     -23.628   8.224 -38.018  0.00  0.00    +0.000 A 
ATOM      7  C4  UNL     1     -21.748   9.374 -37.011  0.00  0.00    +0.000 A 
ATOM      8  C5  UNL     1     -20.975   8.245 -37.308  0.00  0.00    +0.000 A 
ATOM      9  C6  UNL     1     -21.541   7.123 -37.955  0.00  0.00    +0.000 A 
ATOM     10  C7  UNL     1     -22.892   7.103 -38.321  0.00  0.00    +0.000 A 
ATOM     11  H1  UNL     1     -25.649   7.899 -38.697  0.00  0.00    +0.000 HD
ATOM     12  H2  UNL     1     -23.989  11.191 -36.797  0.00  0.00    +0.000 HD
ENDROOT
TORSDOF 0
ENDMDL
MODEL 8
REMARK VINA RESULT:    -3.951     19.340     19.961
REMARK INTER + INTRA:          -3.951
REMARK INTER:                  -3.951
REMARK INTRA:                   0.000
REMARK UNBOUND:                 0.000
REMARK  Name = /home/anacleto/Desktop/manuscript_Mpro/naturecomm/supplementary_file_S2/6-chemical-library/molecular_docking/3D_ligand_structure/231.pdb
REMARK  0 active torsions:
REMARK  status: ('A' for Active; 'I' for Inactive)
REMARK                            x       y       z     vdW  Elec       q    Type
REMARK                         _______ _______ _______ _____ _____    ______ ____
ROOT
ATOM      1  N1  UNL     1     -29.105  -4.923 -26.915  0.00  0.00    +0.000 N 
ATOM      2  C1  UNL     1     -29.588  -5.918 -26.052  0.00  0.00    +0.000 A 
ATOM      3  O1  UNL     1     -30.725  -6.348 -26.001  0.00  0.00    +0.000 OA
ATOM      4  N2  UNL     1     -28.503  -6.323 -25.259  0.00  0.00    +0.000 N 
ATOM      5  C2  UNL     1     -27.381  -5.590 -25.630  0.00  0.00    +0.000 A 
ATOM      6  C3  UNL     1     -27.754  -4.723 -26.655  0.00  0.00    +0.000 A 
ATOM      7  C4  UNL     1     -26.099  -5.636 -25.138  0.00  0.00    +0.000 A 
ATOM      8  C5  UNL     1     -25.172  -4.763 -25.721  0.00  0.00    +0.000 A 
ATOM      9  C6  UNL     1     -25.551  -3.884 -26.761  0.00  0.00    +0.000 A 
ATOM     10  C7  UNL     1     -26.865  -3.856 -27.243  0.00  0.00    +0.000 A 
ATOM     11  H1  UNL     1     -29.674  -4.451 -27.598  0.00  0.00    +0.000 HD
ATOM     12  H2  UNL     1     -28.564  -7.032 -24.547  0.00  0.00    +0.000 HD
ENDROOT
TORSDOF 0
ENDMDL
MODEL 9
REMARK VINA RESULT:    -3.920     25.546     26.578
REMARK INTER + INTRA:          -3.920
REMARK INTER:                  -3.920
REMARK INTRA:                   0.000
REMARK UNBOUND:                 0.000
REMARK  Name = /home/anacleto/Desktop/manuscript_Mpro/naturecomm/supplementary_file_S2/6-chemical-library/molecular_docking/3D_ligand_structure/231.pdb
REMARK  0 active torsions:
REMARK  status: ('A' for Active; 'I' for Inactive)
REMARK                            x       y       z     vdW  Elec       q    Type
REMARK                         _______ _______ _______ _____ _____    ______ ____
ROOT
ATOM      1  N1  UNL     1     -28.431   5.703 -38.915  0.00  0.00    +0.000 N 
ATOM      2  C1  UNL     1     -29.624   5.023 -38.628  0.00  0.00    +0.000 A 
ATOM      3  O1  UNL     1     -30.743   5.500 -38.594  0.00  0.00    +0.000 OA
ATOM      4  N2  UNL     1     -29.276   3.685 -38.389  0.00  0.00    +0.000 N 
ATOM      5  C2  UNL     1     -27.898   3.551 -38.527  0.00  0.00    +0.000 A 
ATOM      6  C3  UNL     1     -27.376   4.800 -38.853  0.00  0.00    +0.000 A 
ATOM      7  C4  UNL     1     -27.105   2.437 -38.388  0.00  0.00    +0.000 A 
ATOM      8  C5  UNL     1     -25.732   2.616 -38.592  0.00  0.00    +0.000 A 
ATOM      9  C6  UNL     1     -25.202   3.884 -38.922  0.00  0.00    +0.000 A 
ATOM     10  C7  UNL     1     -26.032   5.003 -39.057  0.00  0.00    +0.000 A 
ATOM     11  H1  UNL     1     -28.384   6.686 -39.127  0.00  0.00    +0.000 HD
ATOM     12  H2  UNL     1     -29.941   2.966 -38.158  0.00  0.00    +0.000 HD
ENDROOT
TORSDOF 0
ENDMDL
