MODEL 1
REMARK VINA RESULT:    -5.283      0.000      0.000
REMARK INTER + INTRA:          -6.512
REMARK INTER:                  -5.975
REMARK INTRA:                  -0.537
REMARK UNBOUND:                -0.303
REMARK  Name = /home/anacleto/Desktop/manuscript_Mpro/naturecomm/supplementary_file_S2/6-chemical-library/molecular_docking/3D_ligand_structure/849.pdb
REMARK  3 active torsions:
REMARK  status: ('A' for Active; 'I' for Inactive)
REMARK    1  A    between atoms: C3_5  and  N3_6
REMARK    2  A    between atoms: C4_7  and  C5_9
REMARK    3  A    between atoms: C5_9  and  C6_10
REMARK                            x       y       z     vdW  Elec       q    Type
REMARK                         _______ _______ _______ _____ _____    ______ ____
ROOT
ATOM      1  N3  UNL     1      14.056  14.363  -2.491  0.00  0.00    +0.000 N 
ATOM      2  C4  UNL     1      15.239  14.443  -3.208  0.00  0.00    +0.000 C 
ATOM      3  O1  UNL     1      15.744  15.500  -3.593  0.00  0.00    +0.000 OA
ATOM      4  H4  UNL     1      13.714  13.459  -2.182  0.00  0.00    +0.000 HD
ENDROOT
BRANCH   1   9
ATOM      5  N1  UNL     1      13.057  16.534  -2.945  0.00  0.00    +0.000 N 
ATOM      6  C1  UNL     1      12.347  17.450  -2.228  0.00  0.00    +0.000 A 
ATOM      7  N2  UNL     1      12.162  17.052  -0.988  0.00  0.00    +0.000 NA
ATOM      8  C2  UNL     1      12.781  15.829  -0.906  0.00  0.00    +0.000 A 
ATOM      9  C3  UNL     1      13.347  15.483  -2.114  0.00  0.00    +0.000 A 
ATOM     10  H1  UNL     1      13.338  16.594  -3.918  0.00  0.00    +0.000 HD
ENDBRANCH   1   9
BRANCH   2  11
ATOM     11  C5  UNL     1      15.857  13.102  -3.576  0.00  0.00    +0.000 C 
BRANCH  11  12
ATOM     12  C6  UNL     1      15.130  12.336  -4.657  0.00  0.00    +0.000 A 
ATOM     13  C7  UNL     1      14.351  11.218  -4.331  0.00  0.00    +0.000 A 
ATOM     14  C8  UNL     1      13.659  10.525  -5.325  0.00  0.00    +0.000 A 
ATOM     15  C9  UNL     1      13.742  10.941  -6.653  0.00  0.00    +0.000 A 
ATOM     16  C10 UNL     1      14.518  12.048  -6.988  0.00  0.00    +0.000 A 
ATOM     17  C11 UNL     1      15.211  12.744  -5.996  0.00  0.00    +0.000 A 
ENDBRANCH  11  12
ENDBRANCH   2  11
TORSDOF 3
ENDMDL
MODEL 2
REMARK VINA RESULT:    -5.136      3.729      6.162
REMARK INTER + INTRA:          -6.339
REMARK INTER:                  -5.870
REMARK INTRA:                  -0.469
REMARK UNBOUND:                -0.303
REMARK  Name = /home/anacleto/Desktop/manuscript_Mpro/naturecomm/supplementary_file_S2/6-chemical-library/molecular_docking/3D_ligand_structure/849.pdb
REMARK  3 active torsions:
REMARK  status: ('A' for Active; 'I' for Inactive)
REMARK    1  A    between atoms: C3_5  and  N3_6
REMARK    2  A    between atoms: C4_7  and  C5_9
REMARK    3  A    between atoms: C5_9  and  C6_10
REMARK                            x       y       z     vdW  Elec       q    Type
REMARK                         _______ _______ _______ _____ _____    ______ ____
ROOT
ATOM      1  N3  UNL     1      14.805  11.463  -3.090  0.00  0.00    +0.000 N 
ATOM      2  C4  UNL     1      16.028  10.917  -2.732  0.00  0.00    +0.000 C 
ATOM      3  O1  UNL     1      16.777  10.328  -3.514  0.00  0.00    +0.000 OA
ATOM      4  H4  UNL     1      14.254  11.961  -2.399  0.00  0.00    +0.000 HD
ENDROOT
BRANCH   1   9
ATOM      5  N1  UNL     1      13.866  10.288  -5.001  0.00  0.00    +0.000 N 
ATOM      6  C1  UNL     1      13.483  10.629  -6.264  0.00  0.00    +0.000 A 
ATOM      7  N2  UNL     1      13.671  11.910  -6.494  0.00  0.00    +0.000 NA
ATOM      8  C2  UNL     1      14.200  12.412  -5.330  0.00  0.00    +0.000 A 
ATOM      9  C3  UNL     1      14.330  11.420  -4.384  0.00  0.00    +0.000 A 
ATOM     10  H1  UNL     1      13.830   9.371  -4.571  0.00  0.00    +0.000 HD
ENDBRANCH   1   9
BRANCH   2  11
ATOM     11  C5  UNL     1      16.366  11.018  -1.252  0.00  0.00    +0.000 C 
BRANCH  11  12
ATOM     12  C6  UNL     1      17.278  12.163  -0.879  0.00  0.00    +0.000 A 
ATOM     13  C7  UNL     1      18.663  11.966  -0.795  0.00  0.00    +0.000 A 
ATOM     14  C8  UNL     1      19.510  13.029  -0.475  0.00  0.00    +0.000 A 
ATOM     15  C9  UNL     1      18.979  14.295  -0.234  0.00  0.00    +0.000 A 
ATOM     16  C10 UNL     1      17.604  14.499  -0.309  0.00  0.00    +0.000 A 
ATOM     17  C11 UNL     1      16.754  13.439  -0.629  0.00  0.00    +0.000 A 
ENDBRANCH  11  12
ENDBRANCH   2  11
TORSDOF 3
ENDMDL
MODEL 3
REMARK VINA RESULT:    -5.040      2.208      5.876
REMARK INTER + INTRA:          -6.227
REMARK INTER:                  -5.706
REMARK INTRA:                  -0.521
REMARK UNBOUND:                -0.303
REMARK  Name = /home/anacleto/Desktop/manuscript_Mpro/naturecomm/supplementary_file_S2/6-chemical-library/molecular_docking/3D_ligand_structure/849.pdb
REMARK  3 active torsions:
REMARK  status: ('A' for Active; 'I' for Inactive)
REMARK    1  A    between atoms: C3_5  and  N3_6
REMARK    2  A    between atoms: C4_7  and  C5_9
REMARK    3  A    between atoms: C5_9  and  C6_10
REMARK                            x       y       z     vdW  Elec       q    Type
REMARK                         _______ _______ _______ _____ _____    ______ ____
ROOT
ATOM      1  N3  UNL     1      14.771  13.808  -4.444  0.00  0.00    +0.000 N 
ATOM      2  C4  UNL     1      15.037  13.496  -3.120  0.00  0.00    +0.000 C 
ATOM      3  O1  UNL     1      14.913  12.368  -2.638  0.00  0.00    +0.000 OA
ATOM      4  H4  UNL     1      14.923  14.754  -4.780  0.00  0.00    +0.000 HD
ENDROOT
BRANCH   1   9
ATOM      5  N1  UNL     1      13.166  12.199  -5.312  0.00  0.00    +0.000 N 
ATOM      6  C1  UNL     1      13.120  11.343  -6.371  0.00  0.00    +0.000 A 
ATOM      7  N2  UNL     1      14.215  11.412  -7.095  0.00  0.00    +0.000 NA
ATOM      8  C2  UNL     1      14.999  12.352  -6.472  0.00  0.00    +0.000 A 
ATOM      9  C3  UNL     1      14.367  12.858  -5.358  0.00  0.00    +0.000 A 
ATOM     10  H1  UNL     1      12.458  12.341  -4.600  0.00  0.00    +0.000 HD
ENDBRANCH   1   9
BRANCH   2  11
ATOM     11  C5  UNL     1      15.425  14.681  -2.248  0.00  0.00    +0.000 C 
BRANCH  11  12
ATOM     12  C6  UNL     1      14.366  15.750  -2.112  0.00  0.00    +0.000 A 
ATOM     13  C7  UNL     1      14.685  17.095  -2.346  0.00  0.00    +0.000 A 
ATOM     14  C8  UNL     1      13.702  18.082  -2.245  0.00  0.00    +0.000 A 
ATOM     15  C9  UNL     1      12.396  17.732  -1.907  0.00  0.00    +0.000 A 
ATOM     16  C10 UNL     1      12.071  16.400  -1.667  0.00  0.00    +0.000 A 
ATOM     17  C11 UNL     1      13.050  15.411  -1.768  0.00  0.00    +0.000 A 
ENDBRANCH  11  12
ENDBRANCH   2  11
TORSDOF 3
ENDMDL
MODEL 4
REMARK VINA RESULT:    -4.899     16.450     17.551
REMARK INTER + INTRA:          -6.061
REMARK INTER:                  -5.608
REMARK INTRA:                  -0.453
REMARK UNBOUND:                -0.303
REMARK  Name = /home/anacleto/Desktop/manuscript_Mpro/naturecomm/supplementary_file_S2/6-chemical-library/molecular_docking/3D_ligand_structure/849.pdb
REMARK  3 active torsions:
REMARK  status: ('A' for Active; 'I' for Inactive)
REMARK    1  A    between atoms: C3_5  and  N3_6
REMARK    2  A    between atoms: C4_7  and  C5_9
REMARK    3  A    between atoms: C5_9  and  C6_10
REMARK                            x       y       z     vdW  Elec       q    Type
REMARK                         _______ _______ _______ _____ _____    ______ ____
ROOT
ATOM      1  N3  UNL     1      17.761   4.309   8.467  0.00  0.00    +0.000 N 
ATOM      2  C4  UNL     1      17.058   3.137   8.702  0.00  0.00    +0.000 C 
ATOM      3  O1  UNL     1      17.238   2.408   9.680  0.00  0.00    +0.000 OA
ATOM      4  H4  UNL     1      17.539   4.875   7.654  0.00  0.00    +0.000 HD
ENDROOT
BRANCH   1   9
ATOM      5  N1  UNL     1      18.544   4.884  10.697  0.00  0.00    +0.000 N 
ATOM      6  C1  UNL     1      19.694   5.388  11.226  0.00  0.00    +0.000 A 
ATOM      7  N2  UNL     1      20.593   5.616  10.295  0.00  0.00    +0.000 NA
ATOM      8  C2  UNL     1      19.994   5.243   9.117  0.00  0.00    +0.000 A 
ATOM      9  C3  UNL     1      18.716   4.782   9.341  0.00  0.00    +0.000 A 
ATOM     10  H1  UNL     1      17.697   4.625  11.191  0.00  0.00    +0.000 HD
ENDBRANCH   1   9
BRANCH   2  11
ATOM     11  C5  UNL     1      16.078   2.747   7.605  0.00  0.00    +0.000 C 
BRANCH  11  12
ATOM     12  C6  UNL     1      15.236   1.528   7.902  0.00  0.00    +0.000 A 
ATOM     13  C7  UNL     1      15.672   0.255   7.513  0.00  0.00    +0.000 A 
ATOM     14  C8  UNL     1      14.908  -0.875   7.809  0.00  0.00    +0.000 A 
ATOM     15  C9  UNL     1      13.700  -0.741   8.492  0.00  0.00    +0.000 A 
ATOM     16  C10 UNL     1      13.255   0.521   8.878  0.00  0.00    +0.000 A 
ATOM     17  C11 UNL     1      14.017   1.653   8.585  0.00  0.00    +0.000 A 
ENDBRANCH  11  12
ENDBRANCH   2  11
TORSDOF 3
ENDMDL
MODEL 5
REMARK VINA RESULT:    -4.842     17.355     18.355
REMARK INTER + INTRA:          -5.994
REMARK INTER:                  -5.785
REMARK INTRA:                  -0.208
REMARK UNBOUND:                -0.303
REMARK  Name = /home/anacleto/Desktop/manuscript_Mpro/naturecomm/supplementary_file_S2/6-chemical-library/molecular_docking/3D_ligand_structure/849.pdb
REMARK  3 active torsions:
REMARK  status: ('A' for Active; 'I' for Inactive)
REMARK    1  A    between atoms: C3_5  and  N3_6
REMARK    2  A    between atoms: C4_7  and  C5_9
REMARK    3  A    between atoms: C5_9  and  C6_10
REMARK                            x       y       z     vdW  Elec       q    Type
REMARK                         _______ _______ _______ _____ _____    ______ ____
ROOT
ATOM      1  N3  UNL     1      17.802   8.062  13.940  0.00  0.00    +0.000 N 
ATOM      2  C4  UNL     1      18.132   7.254  12.863  0.00  0.00    +0.000 C 
ATOM      3  O1  UNL     1      17.596   6.170  12.623  0.00  0.00    +0.000 OA
ATOM      4  H4  UNL     1      18.266   8.956  14.060  0.00  0.00    +0.000 HD
ENDROOT
BRANCH   1   9
ATOM      5  N1  UNL     1      15.572   8.330  14.874  0.00  0.00    +0.000 N 
ATOM      6  C1  UNL     1      14.857   7.743  15.875  0.00  0.00    +0.000 A 
ATOM      7  N2  UNL     1      15.553   6.802  16.476  0.00  0.00    +0.000 NA
ATOM      8  C2  UNL     1      16.767   6.787  15.834  0.00  0.00    +0.000 A 
ATOM      9  C3  UNL     1      16.803   7.729  14.831  0.00  0.00    +0.000 A 
ATOM     10  H1  UNL     1      15.274   9.079  14.259  0.00  0.00    +0.000 HD
ENDBRANCH   1   9
BRANCH   2  11
ATOM     11  C5  UNL     1      19.291   7.759  12.015  0.00  0.00    +0.000 C 
BRANCH  11  12
ATOM     12  C6  UNL     1      19.620   6.910  10.810  0.00  0.00    +0.000 A 
ATOM     13  C7  UNL     1      19.053   7.202   9.562  0.00  0.00    +0.000 A 
ATOM     14  C8  UNL     1      19.375   6.433   8.442  0.00  0.00    +0.000 A 
ATOM     15  C9  UNL     1      20.264   5.366   8.561  0.00  0.00    +0.000 A 
ATOM     16  C10 UNL     1      20.829   5.065   9.798  0.00  0.00    +0.000 A 
ATOM     17  C11 UNL     1      20.509   5.831  10.920  0.00  0.00    +0.000 A 
ENDBRANCH  11  12
ENDBRANCH   2  11
TORSDOF 3
ENDMDL
MODEL 6
REMARK VINA RESULT:    -4.771     17.510     19.232
REMARK INTER + INTRA:          -5.910
REMARK INTER:                  -5.414
REMARK INTRA:                  -0.496
REMARK UNBOUND:                -0.303
REMARK  Name = /home/anacleto/Desktop/manuscript_Mpro/naturecomm/supplementary_file_S2/6-chemical-library/molecular_docking/3D_ligand_structure/849.pdb
REMARK  3 active torsions:
REMARK  status: ('A' for Active; 'I' for Inactive)
REMARK    1  A    between atoms: C3_5  and  N3_6
REMARK    2  A    between atoms: C4_7  and  C5_9
REMARK    3  A    between atoms: C5_9  and  C6_10
REMARK                            x       y       z     vdW  Elec       q    Type
REMARK                         _______ _______ _______ _____ _____    ______ ____
ROOT
ATOM      1  N3  UNL     1      19.554   7.713  11.283  0.00  0.00    +0.000 N 
ATOM      2  C4  UNL     1      19.792   7.105  12.505  0.00  0.00    +0.000 C 
ATOM      3  O1  UNL     1      20.121   5.924  12.637  0.00  0.00    +0.000 OA
ATOM      4  H4  UNL     1      19.315   8.699  11.249  0.00  0.00    +0.000 HD
ENDROOT
BRANCH   1   9
ATOM      5  N1  UNL     1      20.732   6.194   9.794  0.00  0.00    +0.000 N 
ATOM      6  C1  UNL     1      20.539   5.722   8.530  0.00  0.00    +0.000 A 
ATOM      7  N2  UNL     1      19.444   6.215   7.994  0.00  0.00    +0.000 NA
ATOM      8  C2  UNL     1      18.913   7.040   8.955  0.00  0.00    +0.000 A 
ATOM      9  C3  UNL     1      19.697   7.044  10.087  0.00  0.00    +0.000 A 
ATOM     10  H1  UNL     1      21.496   5.977  10.425  0.00  0.00    +0.000 HD
ENDBRANCH   1   9
BRANCH   2  11
ATOM     11  C5  UNL     1      19.537   7.986  13.720  0.00  0.00    +0.000 C 
BRANCH  11  12
ATOM     12  C6  UNL     1      18.418   7.524  14.623  0.00  0.00    +0.000 A 
ATOM     13  C7  UNL     1      17.091   7.882  14.346  0.00  0.00    +0.000 A 
ATOM     14  C8  UNL     1      16.053   7.435  15.164  0.00  0.00    +0.000 A 
ATOM     15  C9  UNL     1      16.332   6.630  16.268  0.00  0.00    +0.000 A 
ATOM     16  C10 UNL     1      17.647   6.274  16.555  0.00  0.00    +0.000 A 
ATOM     17  C11 UNL     1      18.688   6.718  15.738  0.00  0.00    +0.000 A 
ENDBRANCH  11  12
ENDBRANCH   2  11
TORSDOF 3
ENDMDL
MODEL 7
REMARK VINA RESULT:    -4.742      3.473      6.106
REMARK INTER + INTRA:          -5.877
REMARK INTER:                  -5.377
REMARK INTRA:                  -0.500
REMARK UNBOUND:                -0.303
REMARK  Name = /home/anacleto/Desktop/manuscript_Mpro/naturecomm/supplementary_file_S2/6-chemical-library/molecular_docking/3D_ligand_structure/849.pdb
REMARK  3 active torsions:
REMARK  status: ('A' for Active; 'I' for Inactive)
REMARK    1  A    between atoms: C3_5  and  N3_6
REMARK    2  A    between atoms: C4_7  and  C5_9
REMARK    3  A    between atoms: C5_9  and  C6_10
REMARK                            x       y       z     vdW  Elec       q    Type
REMARK                         _______ _______ _______ _____ _____    ______ ____
ROOT
ATOM      1  N3  UNL     1      14.979  13.354  -2.417  0.00  0.00    +0.000 N 
ATOM      2  C4  UNL     1      15.792  14.474  -2.346  0.00  0.00    +0.000 C 
ATOM      3  O1  UNL     1      16.344  14.990  -3.320  0.00  0.00    +0.000 OA
ATOM      4  H4  UNL     1      14.533  13.000  -1.576  0.00  0.00    +0.000 HD
ENDROOT
BRANCH   1   9
ATOM      5  N1  UNL     1      14.056  13.331  -4.667  0.00  0.00    +0.000 N 
ATOM      6  C1  UNL     1      13.944  12.411  -5.666  0.00  0.00    +0.000 A 
ATOM      7  N2  UNL     1      14.467  11.256  -5.317  0.00  0.00    +0.000 NA
ATOM      8  C2  UNL     1      14.932  11.443  -4.038  0.00  0.00    +0.000 A 
ATOM      9  C3  UNL     1      14.689  12.729  -3.611  0.00  0.00    +0.000 A 
ATOM     10  H1  UNL     1      13.735  14.293  -4.674  0.00  0.00    +0.000 HD
ENDBRANCH   1   9
BRANCH   2  11
ATOM     11  C5  UNL     1      16.037  14.999  -0.939  0.00  0.00    +0.000 C 
BRANCH  11  12
ATOM     12  C6  UNL     1      17.443  14.809  -0.420  0.00  0.00    +0.000 A 
ATOM     13  C7  UNL     1      18.112  13.593  -0.618  0.00  0.00    +0.000 A 
ATOM     14  C8  UNL     1      19.421  13.424  -0.161  0.00  0.00    +0.000 A 
ATOM     15  C9  UNL     1      20.069  14.467   0.499  0.00  0.00    +0.000 A 
ATOM     16  C10 UNL     1      19.411  15.676   0.706  0.00  0.00    +0.000 A 
ATOM     17  C11 UNL     1      18.103  15.849   0.249  0.00  0.00    +0.000 A 
ENDBRANCH  11  12
ENDBRANCH   2  11
TORSDOF 3
ENDMDL
MODEL 8
REMARK VINA RESULT:    -4.655     17.575     19.067
REMARK INTER + INTRA:          -5.774
REMARK INTER:                  -5.288
REMARK INTRA:                  -0.486
REMARK UNBOUND:                -0.303
REMARK  Name = /home/anacleto/Desktop/manuscript_Mpro/naturecomm/supplementary_file_S2/6-chemical-library/molecular_docking/3D_ligand_structure/849.pdb
REMARK  3 active torsions:
REMARK  status: ('A' for Active; 'I' for Inactive)
REMARK    1  A    between atoms: C3_5  and  N3_6
REMARK    2  A    between atoms: C4_7  and  C5_9
REMARK    3  A    between atoms: C5_9  and  C6_10
REMARK                            x       y       z     vdW  Elec       q    Type
REMARK                         _______ _______ _______ _____ _____    ______ ____
ROOT
ATOM      1  N3  UNL     1      25.113  15.567   9.107  0.00  0.00    +0.000 N 
ATOM      2  C4  UNL     1      24.724  15.407  10.428  0.00  0.00    +0.000 C 
ATOM      3  O1  UNL     1      25.432  14.896  11.299  0.00  0.00    +0.000 OA
ATOM      4  H4  UNL     1      24.488  16.023   8.450  0.00  0.00    +0.000 HD
ENDROOT
BRANCH   1   9
ATOM      5  N1  UNL     1      26.808  13.896   8.607  0.00  0.00    +0.000 N 
ATOM      6  C1  UNL     1      28.076  13.913   8.108  0.00  0.00    +0.000 A 
ATOM      7  N2  UNL     1      28.469  15.138   7.832  0.00  0.00    +0.000 NA
ATOM      8  C2  UNL     1      27.407  15.941   8.171  0.00  0.00    +0.000 A 
ATOM      9  C3  UNL     1      26.359  15.191   8.656  0.00  0.00    +0.000 A 
ATOM     10  H1  UNL     1      26.270  13.089   8.901  0.00  0.00    +0.000 HD
ENDBRANCH   1   9
BRANCH   2  11
ATOM     11  C5  UNL     1      23.296  15.836  10.733  0.00  0.00    +0.000 C 
BRANCH  11  12
ATOM     12  C6  UNL     1      23.167  17.017  11.666  0.00  0.00    +0.000 A 
ATOM     13  C7  UNL     1      22.174  17.032  12.655  0.00  0.00    +0.000 A 
ATOM     14  C8  UNL     1      22.069  18.111  13.535  0.00  0.00    +0.000 A 
ATOM     15  C9  UNL     1      22.954  19.184  13.431  0.00  0.00    +0.000 A 
ATOM     16  C10 UNL     1      23.940  19.181  12.448  0.00  0.00    +0.000 A 
ATOM     17  C11 UNL     1      24.048  18.103  11.568  0.00  0.00    +0.000 A 
ENDBRANCH  11  12
ENDBRANCH   2  11
TORSDOF 3
ENDMDL
MODEL 9
REMARK VINA RESULT:    -4.465      5.742      7.931
REMARK INTER + INTRA:          -5.551
REMARK INTER:                  -5.248
REMARK INTRA:                  -0.303
REMARK UNBOUND:                -0.303
REMARK  Name = /home/anacleto/Desktop/manuscript_Mpro/naturecomm/supplementary_file_S2/6-chemical-library/molecular_docking/3D_ligand_structure/849.pdb
REMARK  3 active torsions:
REMARK  status: ('A' for Active; 'I' for Inactive)
REMARK    1  A    between atoms: C3_5  and  N3_6
REMARK    2  A    between atoms: C4_7  and  C5_9
REMARK    3  A    between atoms: C5_9  and  C6_10
REMARK                            x       y       z     vdW  Elec       q    Type
REMARK                         _______ _______ _______ _____ _____    ______ ____
ROOT
ATOM      1  N3  UNL     1      19.718  10.537  -5.064  0.00  0.00    +0.000 N 
ATOM      2  C4  UNL     1      18.518  10.571  -5.758  0.00  0.00    +0.000 C 
ATOM      3  O1  UNL     1      18.240   9.817  -6.693  0.00  0.00    +0.000 OA
ATOM      4  H4  UNL     1      19.867  11.170  -4.284  0.00  0.00    +0.000 HD
ENDROOT
BRANCH   1   9
ATOM      5  N1  UNL     1      20.519   8.261  -5.368  0.00  0.00    +0.000 N 
ATOM      6  C1  UNL     1      21.711   7.681  -5.683  0.00  0.00    +0.000 A 
ATOM      7  N2  UNL     1      22.651   8.582  -5.866  0.00  0.00    +0.000 NA
ATOM      8  C2  UNL     1      22.036   9.792  -5.657  0.00  0.00    +0.000 A 
ATOM      9  C3  UNL     1      20.706   9.619  -5.346  0.00  0.00    +0.000 A 
ATOM     10  H1  UNL     1      19.637   7.798  -5.175  0.00  0.00    +0.000 HD
ENDBRANCH   1   9
BRANCH   2  11
ATOM     11  C5  UNL     1      17.567  11.683  -5.340  0.00  0.00    +0.000 C 
BRANCH  11  12
ATOM     12  C6  UNL     1      16.111  11.433  -5.655  0.00  0.00    +0.000 A 
ATOM     13  C7  UNL     1      15.637  11.571  -6.967  0.00  0.00    +0.000 A 
ATOM     14  C8  UNL     1      14.297  11.316  -7.264  0.00  0.00    +0.000 A 
ATOM     15  C9  UNL     1      13.421  10.925  -6.254  0.00  0.00    +0.000 A 
ATOM     16  C10 UNL     1      13.880  10.791  -4.946  0.00  0.00    +0.000 A 
ATOM     17  C11 UNL     1      15.220  11.044  -4.645  0.00  0.00    +0.000 A 
ENDBRANCH  11  12
ENDBRANCH   2  11
TORSDOF 3
ENDMDL
