MODEL 1
REMARK VINA RESULT:    -3.834      0.000      0.000
REMARK INTER + INTRA:          -4.109
REMARK INTER:                  -4.052
REMARK INTRA:                  -0.057
REMARK UNBOUND:                -0.050
REMARK  Name = /home/anacleto/Desktop/manuscript_Mpro/naturecomm/supplementary_file_S2/6-chemical-library/molecular_docking/3D_ligand_structure/1383.pdb
REMARK  1 active torsions:
REMARK  status: ('A' for Active; 'I' for Inactive)
REMARK    1  A    between atoms: C3_5  and  N3_6
REMARK                            x       y       z     vdW  Elec       q    Type
REMARK                         _______ _______ _______ _____ _____    ______ ____
ROOT
ATOM      1  N1  UNL     1     -37.375   5.191 -15.339  0.00  0.00    +0.000 N 
ATOM      2  N2  UNL     1     -37.278   3.955 -14.819  0.00  0.00    +0.000 NA
ATOM      3  C1  UNL     1     -37.960   4.034 -13.674  0.00  0.00    +0.000 A 
ATOM      4  C2  UNL     1     -38.498   5.318 -13.455  0.00  0.00    +0.000 A 
ATOM      5  C3  UNL     1     -38.098   6.043 -14.555  0.00  0.00    +0.000 A 
ATOM      6  H1  UNL     1     -36.919   5.364 -16.230  0.00  0.00    +0.000 HD
ENDROOT
BRANCH   5   7
ATOM      7  N3  UNL     1     -38.343   7.370 -14.867  0.00  0.00    +0.000 N 
ATOM      8  C4  UNL     1     -37.558   8.238 -15.587  0.00  0.00    +0.000 A 
ATOM      9  N4  UNL     1     -38.130   9.416 -15.672  0.00  0.00    +0.000 NA
ATOM     10  N5  UNL     1     -39.323   9.345 -14.999  0.00  0.00    +0.000 NA
ATOM     11  C5  UNL     1     -39.437   8.126 -14.525  0.00  0.00    +0.000 A 
ENDBRANCH   5   7
TORSDOF 1
ENDMDL
MODEL 2
REMARK VINA RESULT:    -3.703     19.077     19.980
REMARK INTER + INTRA:          -3.970
REMARK INTER:                  -3.911
REMARK INTRA:                  -0.059
REMARK UNBOUND:                -0.050
REMARK  Name = /home/anacleto/Desktop/manuscript_Mpro/naturecomm/supplementary_file_S2/6-chemical-library/molecular_docking/3D_ligand_structure/1383.pdb
REMARK  1 active torsions:
REMARK  status: ('A' for Active; 'I' for Inactive)
REMARK    1  A    between atoms: C3_5  and  N3_6
REMARK                            x       y       z     vdW  Elec       q    Type
REMARK                         _______ _______ _______ _____ _____    ______ ____
ROOT
ATOM      1  N1  UNL     1     -29.471  -5.216 -26.711  0.00  0.00    +0.000 N 
ATOM      2  N2  UNL     1     -30.225  -6.026 -25.948  0.00  0.00    +0.000 NA
ATOM      3  C1  UNL     1     -29.333  -6.702 -25.220  0.00  0.00    +0.000 A 
ATOM      4  C2  UNL     1     -28.006  -6.328 -25.512  0.00  0.00    +0.000 A 
ATOM      5  C3  UNL     1     -28.133  -5.362 -26.483  0.00  0.00    +0.000 A 
ATOM      6  H1  UNL     1     -29.952  -4.596 -27.356  0.00  0.00    +0.000 HD
ENDROOT
BRANCH   5   7
ATOM      7  N3  UNL     1     -27.148  -4.642 -27.140  0.00  0.00    +0.000 N 
ATOM      8  C4  UNL     1     -25.819  -4.522 -26.817  0.00  0.00    +0.000 A 
ATOM      9  N4  UNL     1     -25.201  -3.752 -27.683  0.00  0.00    +0.000 NA
ATOM     10  N5  UNL     1     -26.129  -3.344 -28.608  0.00  0.00    +0.000 NA
ATOM     11  C5  UNL     1     -27.281  -3.880 -28.274  0.00  0.00    +0.000 A 
ENDBRANCH   5   7
TORSDOF 1
ENDMDL
MODEL 3
REMARK VINA RESULT:    -3.656      1.252      4.113
REMARK INTER + INTRA:          -3.919
REMARK INTER:                  -3.861
REMARK INTRA:                  -0.058
REMARK UNBOUND:                -0.050
REMARK  Name = /home/anacleto/Desktop/manuscript_Mpro/naturecomm/supplementary_file_S2/6-chemical-library/molecular_docking/3D_ligand_structure/1383.pdb
REMARK  1 active torsions:
REMARK  status: ('A' for Active; 'I' for Inactive)
REMARK    1  A    between atoms: C3_5  and  N3_6
REMARK                            x       y       z     vdW  Elec       q    Type
REMARK                         _______ _______ _______ _____ _____    ______ ____
ROOT
ATOM      1  N1  UNL     1     -37.201   7.454 -15.525  0.00  0.00    +0.000 N 
ATOM      2  N2  UNL     1     -37.477   8.728 -15.852  0.00  0.00    +0.000 NA
ATOM      3  C1  UNL     1     -38.564   9.016 -15.132  0.00  0.00    +0.000 A 
ATOM      4  C2  UNL     1     -38.989   7.930 -14.342  0.00  0.00    +0.000 A 
ATOM      5  C3  UNL     1     -38.082   6.934 -14.621  0.00  0.00    +0.000 A 
ATOM      6  H1  UNL     1     -36.395   7.019 -15.963  0.00  0.00    +0.000 HD
ENDROOT
BRANCH   5   7
ATOM      7  N3  UNL     1     -38.016   5.642 -14.124  0.00  0.00    +0.000 N 
ATOM      8  C4  UNL     1     -37.340   4.562 -14.638  0.00  0.00    +0.000 A 
ATOM      9  N4  UNL     1     -37.518   3.504 -13.882  0.00  0.00    +0.000 NA
ATOM     10  N5  UNL     1     -38.328   3.874 -12.838  0.00  0.00    +0.000 NA
ATOM     11  C5  UNL     1     -38.617   5.145 -12.994  0.00  0.00    +0.000 A 
ENDBRANCH   5   7
TORSDOF 1
ENDMDL
MODEL 4
REMARK VINA RESULT:    -3.642     26.264     27.342
REMARK INTER + INTRA:          -3.905
REMARK INTER:                  -3.853
REMARK INTRA:                  -0.052
REMARK UNBOUND:                -0.050
REMARK  Name = /home/anacleto/Desktop/manuscript_Mpro/naturecomm/supplementary_file_S2/6-chemical-library/molecular_docking/3D_ligand_structure/1383.pdb
REMARK  1 active torsions:
REMARK  status: ('A' for Active; 'I' for Inactive)
REMARK    1  A    between atoms: C3_5  and  N3_6
REMARK                            x       y       z     vdW  Elec       q    Type
REMARK                         _______ _______ _______ _____ _____    ______ ____
ROOT
ATOM      1  N1  UNL     1     -23.848   4.974 -37.593  0.00  0.00    +0.000 N 
ATOM      2  N2  UNL     1     -22.893   5.845 -37.962  0.00  0.00    +0.000 NA
ATOM      3  C1  UNL     1     -23.243   6.199 -39.201  0.00  0.00    +0.000 A 
ATOM      4  C2  UNL     1     -24.421   5.558 -39.631  0.00  0.00    +0.000 A 
ATOM      5  C3  UNL     1     -24.786   4.770 -38.563  0.00  0.00    +0.000 A 
ATOM      6  H1  UNL     1     -23.781   4.568 -36.665  0.00  0.00    +0.000 HD
ENDROOT
BRANCH   5   7
ATOM      7  N3  UNL     1     -25.872   3.920 -38.430  0.00  0.00    +0.000 N 
ATOM      8  C4  UNL     1     -27.208   4.214 -38.552  0.00  0.00    +0.000 A 
ATOM      9  N4  UNL     1     -27.937   3.140 -38.356  0.00  0.00    +0.000 NA
ATOM     10  N5  UNL     1     -27.079   2.101 -38.097  0.00  0.00    +0.000 NA
ATOM     11  C5  UNL     1     -25.857   2.578 -38.144  0.00  0.00    +0.000 A 
ENDBRANCH   5   7
TORSDOF 1
ENDMDL
MODEL 5
REMARK VINA RESULT:    -3.587     20.301     21.685
REMARK INTER + INTRA:          -3.846
REMARK INTER:                  -3.790
REMARK INTRA:                  -0.056
REMARK UNBOUND:                -0.050
REMARK  Name = /home/anacleto/Desktop/manuscript_Mpro/naturecomm/supplementary_file_S2/6-chemical-library/molecular_docking/3D_ligand_structure/1383.pdb
REMARK  1 active torsions:
REMARK  status: ('A' for Active; 'I' for Inactive)
REMARK    1  A    between atoms: C3_5  and  N3_6
REMARK                            x       y       z     vdW  Elec       q    Type
REMARK                         _______ _______ _______ _____ _____    ______ ____
ROOT
ATOM      1  N1  UNL     1     -26.482  -2.982 -28.609  0.00  0.00    +0.000 N 
ATOM      2  N2  UNL     1     -27.803  -3.230 -28.573  0.00  0.00    +0.000 NA
ATOM      3  C1  UNL     1     -27.897  -4.368 -27.880  0.00  0.00    +0.000 A 
ATOM      4  C2  UNL     1     -26.639  -4.853 -27.470  0.00  0.00    +0.000 A 
ATOM      5  C3  UNL     1     -25.745  -3.930 -27.960  0.00  0.00    +0.000 A 
ATOM      6  H1  UNL     1     -26.174  -2.146 -29.096  0.00  0.00    +0.000 HD
ENDROOT
BRANCH   5   7
ATOM      7  N3  UNL     1     -24.363  -3.904 -27.855  0.00  0.00    +0.000 N 
ATOM      8  C4  UNL     1     -23.577  -4.348 -26.820  0.00  0.00    +0.000 A 
ATOM      9  N4  UNL     1     -22.306  -4.153 -27.090  0.00  0.00    +0.000 NA
ATOM     10  N5  UNL     1     -22.233  -3.566 -28.327  0.00  0.00    +0.000 NA
ATOM     11  C5  UNL     1     -23.460  -3.424 -28.771  0.00  0.00    +0.000 A 
ENDBRANCH   5   7
TORSDOF 1
ENDMDL
MODEL 6
REMARK VINA RESULT:    -3.542     28.377     29.491
REMARK INTER + INTRA:          -3.799
REMARK INTER:                  -3.743
REMARK INTRA:                  -0.056
REMARK UNBOUND:                -0.050
REMARK  Name = /home/anacleto/Desktop/manuscript_Mpro/naturecomm/supplementary_file_S2/6-chemical-library/molecular_docking/3D_ligand_structure/1383.pdb
REMARK  1 active torsions:
REMARK  status: ('A' for Active; 'I' for Inactive)
REMARK    1  A    between atoms: C3_5  and  N3_6
REMARK                            x       y       z     vdW  Elec       q    Type
REMARK                         _______ _______ _______ _____ _____    ______ ____
ROOT
ATOM      1  N1  UNL     1     -19.904   9.548 -37.906  0.00  0.00    +0.000 N 
ATOM      2  N2  UNL     1     -18.648   9.930 -38.194  0.00  0.00    +0.000 NA
ATOM      3  C1  UNL     1     -18.152   8.902 -38.887  0.00  0.00    +0.000 A 
ATOM      4  C2  UNL     1     -19.086   7.860 -39.047  0.00  0.00    +0.000 A 
ATOM      5  C3  UNL     1     -20.211   8.313 -38.399  0.00  0.00    +0.000 A 
ATOM      6  H1  UNL     1     -20.480  10.192 -37.372  0.00  0.00    +0.000 HD
ENDROOT
BRANCH   5   7
ATOM      7  N3  UNL     1     -21.441   7.694 -38.238  0.00  0.00    +0.000 N 
ATOM      8  C4  UNL     1     -21.712   6.354 -38.107  0.00  0.00    +0.000 A 
ATOM      9  N4  UNL     1     -23.004   6.156 -37.974  0.00  0.00    +0.000 NA
ATOM     10  N5  UNL     1     -23.616   7.383 -38.014  0.00  0.00    +0.000 NA
ATOM     11  C5  UNL     1     -22.677   8.287 -38.172  0.00  0.00    +0.000 A 
ENDBRANCH   5   7
TORSDOF 1
ENDMDL
MODEL 7
REMARK VINA RESULT:    -3.513     27.955     28.929
REMARK INTER + INTRA:          -3.768
REMARK INTER:                  -3.712
REMARK INTRA:                  -0.056
REMARK UNBOUND:                -0.050
REMARK  Name = /home/anacleto/Desktop/manuscript_Mpro/naturecomm/supplementary_file_S2/6-chemical-library/molecular_docking/3D_ligand_structure/1383.pdb
REMARK  1 active torsions:
REMARK  status: ('A' for Active; 'I' for Inactive)
REMARK    1  A    between atoms: C3_5  and  N3_6
REMARK                            x       y       z     vdW  Elec       q    Type
REMARK                         _______ _______ _______ _____ _____    ______ ____
ROOT
ATOM      1  N1  UNL     1     -23.255   7.849 -38.355  0.00  0.00    +0.000 N 
ATOM      2  N2  UNL     1     -24.109   6.814 -38.269  0.00  0.00    +0.000 NA
ATOM      3  C1  UNL     1     -23.321   5.769 -38.007  0.00  0.00    +0.000 A 
ATOM      4  C2  UNL     1     -21.961   6.128 -37.924  0.00  0.00    +0.000 A 
ATOM      5  C3  UNL     1     -21.955   7.484 -38.155  0.00  0.00    +0.000 A 
ATOM      6  H1  UNL     1     -23.645   8.765 -38.552  0.00  0.00    +0.000 HD
ENDROOT
BRANCH   5   7
ATOM      7  N3  UNL     1     -20.885   8.364 -38.192  0.00  0.00    +0.000 N 
ATOM      8  C4  UNL     1     -19.611   8.141 -38.656  0.00  0.00    +0.000 A 
ATOM      9  N4  UNL     1     -18.877   9.222 -38.525  0.00  0.00    +0.000 NA
ATOM     10  N5  UNL     1     -19.667  10.192 -37.962  0.00  0.00    +0.000 NA
ATOM     11  C5  UNL     1     -20.856   9.670 -37.770  0.00  0.00    +0.000 A 
ENDBRANCH   5   7
TORSDOF 1
ENDMDL
MODEL 8
REMARK VINA RESULT:    -3.488     24.504     25.614
REMARK INTER + INTRA:          -3.742
REMARK INTER:                  -3.690
REMARK INTRA:                  -0.052
REMARK UNBOUND:                -0.050
REMARK  Name = /home/anacleto/Desktop/manuscript_Mpro/naturecomm/supplementary_file_S2/6-chemical-library/molecular_docking/3D_ligand_structure/1383.pdb
REMARK  1 active torsions:
REMARK  status: ('A' for Active; 'I' for Inactive)
REMARK    1  A    between atoms: C3_5  and  N3_6
REMARK                            x       y       z     vdW  Elec       q    Type
REMARK                         _______ _______ _______ _____ _____    ______ ____
ROOT
ATOM      1  N1  UNL     1     -18.305  -5.877 -26.098  0.00  0.00    +0.000 N 
ATOM      2  N2  UNL     1     -17.400  -5.549 -25.160  0.00  0.00    +0.000 NA
ATOM      3  C1  UNL     1     -17.320  -4.219 -25.243  0.00  0.00    +0.000 A 
ATOM      4  C2  UNL     1     -18.171  -3.688 -26.232  0.00  0.00    +0.000 A 
ATOM      5  C3  UNL     1     -18.795  -4.792 -26.767  0.00  0.00    +0.000 A 
ATOM      6  H1  UNL     1     -18.528  -6.861 -26.213  0.00  0.00    +0.000 HD
ENDROOT
BRANCH   5   7
ATOM      7  N3  UNL     1     -19.737  -4.863 -27.780  0.00  0.00    +0.000 N 
ATOM      8  C4  UNL     1     -19.646  -5.511 -28.988  0.00  0.00    +0.000 A 
ATOM      9  N4  UNL     1     -20.749  -5.349 -29.683  0.00  0.00    +0.000 NA
ATOM     10  N5  UNL     1     -21.600  -4.578 -28.932  0.00  0.00    +0.000 NA
ATOM     11  C5  UNL     1     -20.987  -4.296 -27.806  0.00  0.00    +0.000 A 
ENDBRANCH   5   7
TORSDOF 1
ENDMDL
MODEL 9
REMARK VINA RESULT:    -3.437     20.137     20.750
REMARK INTER + INTRA:          -3.688
REMARK INTER:                  -3.638
REMARK INTRA:                  -0.050
REMARK UNBOUND:                -0.050
REMARK  Name = /home/anacleto/Desktop/manuscript_Mpro/naturecomm/supplementary_file_S2/6-chemical-library/molecular_docking/3D_ligand_structure/1383.pdb
REMARK  1 active torsions:
REMARK  status: ('A' for Active; 'I' for Inactive)
REMARK    1  A    between atoms: C3_5  and  N3_6
REMARK                            x       y       z     vdW  Elec       q    Type
REMARK                         _______ _______ _______ _____ _____    ______ ____
ROOT
ATOM      1  N1  UNL     1     -25.976  -3.187 -28.005  0.00  0.00    +0.000 N 
ATOM      2  N2  UNL     1     -27.171  -3.226 -28.621  0.00  0.00    +0.000 NA
ATOM      3  C1  UNL     1     -27.897  -4.047 -27.858  0.00  0.00    +0.000 A 
ATOM      4  C2  UNL     1     -27.174  -4.536 -26.752  0.00  0.00    +0.000 A 
ATOM      5  C3  UNL     1     -25.931  -3.957 -26.879  0.00  0.00    +0.000 A 
ATOM      6  H1  UNL     1     -25.252  -2.609 -28.421  0.00  0.00    +0.000 HD
ENDROOT
BRANCH   5   7
ATOM      7  N3  UNL     1     -24.816  -4.086 -26.068  0.00  0.00    +0.000 N 
ATOM      8  C4  UNL     1     -24.549  -3.457 -24.876  0.00  0.00    +0.000 A 
ATOM      9  N4  UNL     1     -23.385  -3.839 -24.403  0.00  0.00    +0.000 NA
ATOM     10  N5  UNL     1     -22.855  -4.741 -25.290  0.00  0.00    +0.000 NA
ATOM     11  C5  UNL     1     -23.714  -4.879 -26.274  0.00  0.00    +0.000 A 
ENDBRANCH   5   7
TORSDOF 1
ENDMDL
