MODEL 1
REMARK VINA RESULT:    -5.606      0.000      0.000
REMARK INTER + INTRA:          -8.213
REMARK INTER:                  -6.995
REMARK INTRA:                  -1.219
REMARK UNBOUND:                -0.642
REMARK  Name = /home/anacleto/Desktop/manuscript_Mpro/naturecomm/supplementary_file_S2/6-chemical-library/molecular_docking/3D_ligand_structure/515.pdb
REMARK  6 active torsions:
REMARK  status: ('A' for Active; 'I' for Inactive)
REMARK    1  A    between atoms: C6_6  and  C7_7
REMARK    2  A    between atoms: C7_7  and  C8_8
REMARK    3  A    between atoms: N1_10  and  C9_11
REMARK    4  A    between atoms: C9_11  and  C10_12
REMARK    5  A    between atoms: C10_12  and  O2_13
REMARK    6  A    between atoms: O2_13  and  C11_14
REMARK                            x       y       z     vdW  Elec       q    Type
REMARK                         _______ _______ _______ _____ _____    ______ ____
ROOT
ATOM      1  C8  UNL     1      23.042   5.505  11.119  0.00  0.00    +0.000 C 
ATOM      2  O1  UNL     1      22.879   4.421  11.675  0.00  0.00    +0.000 OA
ATOM      3  N1  UNL     1      23.300   6.671  11.809  0.00  0.00    +0.000 N 
ATOM      4  H8  UNL     1      23.672   7.446  11.270  0.00  0.00    +0.000 HD
ENDROOT
BRANCH   1   5
ATOM      5  C7  UNL     1      22.890   5.669   9.615  0.00  0.00    +0.000 C 
BRANCH   5  11
ATOM      6  C1  UNL     1      20.518   5.192   8.870  0.00  0.00    +0.000 A 
ATOM      7  C2  UNL     1      19.245   5.619   8.490  0.00  0.00    +0.000 A 
ATOM      8  C3  UNL     1      18.958   6.981   8.417  0.00  0.00    +0.000 A 
ATOM      9  C4  UNL     1      19.944   7.917   8.724  0.00  0.00    +0.000 A 
ATOM     10  C5  UNL     1      21.217   7.493   9.106  0.00  0.00    +0.000 A 
ATOM     11  C6  UNL     1      21.514   6.125   9.186  0.00  0.00    +0.000 A 
ENDBRANCH   5  11
ENDBRANCH   1   5
BRANCH   3  12
ATOM     12  C9  UNL     1      23.594   6.663  13.232  0.00  0.00    +0.000 C 
BRANCH  12  13
ATOM     13  C10 UNL     1      22.359   6.776  14.129  0.00  0.00    +0.000 C 
BRANCH  13  14
ATOM     14  O2  UNL     1      21.618   7.932  13.722  0.00  0.00    +0.000 OA
BRANCH  14  15
ATOM     15  C11 UNL     1      20.283   7.757  13.496  0.00  0.00    +0.000 A 
ATOM     16  C12 UNL     1      19.696   7.277  12.329  0.00  0.00    +0.000 A 
ATOM     17  C13 UNL     1      18.308   7.154  12.258  0.00  0.00    +0.000 A 
ATOM     18  C14 UNL     1      17.552   7.515  13.362  0.00  0.00    +0.000 A 
ATOM     19  N2  UNL     1      18.083   7.982  14.509  0.00  0.00    +0.000 NA
ATOM     20  C15 UNL     1      19.435   8.087  14.547  0.00  0.00    +0.000 A 
ENDBRANCH  14  15
ENDBRANCH  13  14
ENDBRANCH  12  13
ENDBRANCH   3  12
TORSDOF 6
ENDMDL
MODEL 2
REMARK VINA RESULT:    -5.211     15.258     17.457
REMARK INTER + INTRA:          -7.681
REMARK INTER:                  -7.267
REMARK INTRA:                  -0.413
REMARK UNBOUND:                -0.642
REMARK  Name = /home/anacleto/Desktop/manuscript_Mpro/naturecomm/supplementary_file_S2/6-chemical-library/molecular_docking/3D_ligand_structure/515.pdb
REMARK  6 active torsions:
REMARK  status: ('A' for Active; 'I' for Inactive)
REMARK    1  A    between atoms: C6_6  and  C7_7
REMARK    2  A    between atoms: C7_7  and  C8_8
REMARK    3  A    between atoms: N1_10  and  C9_11
REMARK    4  A    between atoms: C9_11  and  C10_12
REMARK    5  A    between atoms: C10_12  and  O2_13
REMARK    6  A    between atoms: O2_13  and  C11_14
REMARK                            x       y       z     vdW  Elec       q    Type
REMARK                         _______ _______ _______ _____ _____    ______ ____
ROOT
ATOM      1  C8  UNL     1      14.740  13.954  -3.751  0.00  0.00    +0.000 C 
ATOM      2  O1  UNL     1      15.013  13.081  -2.930  0.00  0.00    +0.000 OA
ATOM      3  N1  UNL     1      14.062  15.109  -3.421  0.00  0.00    +0.000 N 
ATOM      4  H8  UNL     1      14.112  15.872  -4.088  0.00  0.00    +0.000 HD
ENDROOT
BRANCH   1   5
ATOM      5  C7  UNL     1      15.060  13.797  -5.229  0.00  0.00    +0.000 C 
BRANCH   5  11
ATOM      6  C1  UNL     1      13.152  12.140  -5.369  0.00  0.00    +0.000 A 
ATOM      7  C2  UNL     1      12.499  11.073  -5.990  0.00  0.00    +0.000 A 
ATOM      8  C3  UNL     1      13.048  10.487  -7.129  0.00  0.00    +0.000 A 
ATOM      9  C4  UNL     1      14.250  10.964  -7.648  0.00  0.00    +0.000 A 
ATOM     10  C5  UNL     1      14.903  12.031  -7.030  0.00  0.00    +0.000 A 
ATOM     11  C6  UNL     1      14.358  12.631  -5.886  0.00  0.00    +0.000 A 
ENDBRANCH   5  11
ENDBRANCH   1   5
BRANCH   3  12
ATOM     12  C9  UNL     1      13.794  15.465  -2.039  0.00  0.00    +0.000 C 
BRANCH  12  13
ATOM     13  C10 UNL     1      14.920  16.253  -1.364  0.00  0.00    +0.000 C 
BRANCH  13  14
ATOM     14  O2  UNL     1      15.320  15.539  -0.189  0.00  0.00    +0.000 OA
BRANCH  14  15
ATOM     15  C11 UNL     1      16.649  15.254  -0.068  0.00  0.00    +0.000 A 
ATOM     16  C12 UNL     1      17.276  14.059  -0.410  0.00  0.00    +0.000 A 
ATOM     17  C13 UNL     1      18.653  13.928  -0.227  0.00  0.00    +0.000 A 
ATOM     18  C14 UNL     1      19.359  15.000   0.295  0.00  0.00    +0.000 A 
ATOM     19  N2  UNL     1      18.789  16.173   0.637  0.00  0.00    +0.000 NA
ATOM     20  C15 UNL     1      17.450  16.270   0.443  0.00  0.00    +0.000 A 
ENDBRANCH  14  15
ENDBRANCH  13  14
ENDBRANCH  12  13
ENDBRANCH   3  12
TORSDOF 6
ENDMDL
MODEL 3
REMARK VINA RESULT:    -5.195      5.102      6.668
REMARK INTER + INTRA:          -7.659
REMARK INTER:                  -7.345
REMARK INTRA:                  -0.314
REMARK UNBOUND:                -0.642
REMARK  Name = /home/anacleto/Desktop/manuscript_Mpro/naturecomm/supplementary_file_S2/6-chemical-library/molecular_docking/3D_ligand_structure/515.pdb
REMARK  6 active torsions:
REMARK  status: ('A' for Active; 'I' for Inactive)
REMARK    1  A    between atoms: C6_6  and  C7_7
REMARK    2  A    between atoms: C7_7  and  C8_8
REMARK    3  A    between atoms: N1_10  and  C9_11
REMARK    4  A    between atoms: C9_11  and  C10_12
REMARK    5  A    between atoms: C10_12  and  O2_13
REMARK    6  A    between atoms: O2_13  and  C11_14
REMARK                            x       y       z     vdW  Elec       q    Type
REMARK                         _______ _______ _______ _____ _____    ______ ____
ROOT
ATOM      1  C8  UNL     1      16.979   2.940   8.635  0.00  0.00    +0.000 C 
ATOM      2  O1  UNL     1      17.150   2.275   9.654  0.00  0.00    +0.000 OA
ATOM      3  N1  UNL     1      17.526   4.194   8.455  0.00  0.00    +0.000 N 
ATOM      4  H8  UNL     1      17.551   4.548   7.505  0.00  0.00    +0.000 HD
ENDROOT
BRANCH   1   5
ATOM      5  C7  UNL     1      16.073   2.468   7.508  0.00  0.00    +0.000 C 
BRANCH   5  11
ATOM      6  C1  UNL     1      13.955   1.610   8.597  0.00  0.00    +0.000 A 
ATOM      7  C2  UNL     1      13.091   0.570   8.943  0.00  0.00    +0.000 A 
ATOM      8  C3  UNL     1      13.408  -0.744   8.602  0.00  0.00    +0.000 A 
ATOM      9  C4  UNL     1      14.589  -1.019   7.915  0.00  0.00    +0.000 A 
ATOM     10  C5  UNL     1      15.453   0.019   7.566  0.00  0.00    +0.000 A 
ATOM     11  C6  UNL     1      15.142   1.344   7.902  0.00  0.00    +0.000 A 
ENDBRANCH   5  11
ENDBRANCH   1   5
BRANCH   3  12
ATOM     12  C9  UNL     1      18.508   4.733   9.380  0.00  0.00    +0.000 C 
BRANCH  12  13
ATOM     13  C10 UNL     1      19.353   5.873   8.804  0.00  0.00    +0.000 C 
BRANCH  13  14
ATOM     14  O2  UNL     1      19.011   7.076   9.500  0.00  0.00    +0.000 OA
BRANCH  14  15
ATOM     15  C11 UNL     1      19.516   7.221  10.760  0.00  0.00    +0.000 A 
ATOM     16  C12 UNL     1      18.805   7.579  11.902  0.00  0.00    +0.000 A 
ATOM     17  C13 UNL     1      19.472   7.681  13.123  0.00  0.00    +0.000 A 
ATOM     18  C14 UNL     1      20.832   7.419  13.160  0.00  0.00    +0.000 A 
ATOM     19  N2  UNL     1      21.555   7.068  12.078  0.00  0.00    +0.000 NA
ATOM     20  C15 UNL     1      20.877   6.974  10.907  0.00  0.00    +0.000 A 
ENDBRANCH  14  15
ENDBRANCH  13  14
ENDBRANCH  12  13
ENDBRANCH   3  12
TORSDOF 6
ENDMDL
MODEL 4
REMARK VINA RESULT:    -5.154      2.851      4.121
REMARK INTER + INTRA:          -7.604
REMARK INTER:                  -6.407
REMARK INTRA:                  -1.197
REMARK UNBOUND:                -0.642
REMARK  Name = /home/anacleto/Desktop/manuscript_Mpro/naturecomm/supplementary_file_S2/6-chemical-library/molecular_docking/3D_ligand_structure/515.pdb
REMARK  6 active torsions:
REMARK  status: ('A' for Active; 'I' for Inactive)
REMARK    1  A    between atoms: C6_6  and  C7_7
REMARK    2  A    between atoms: C7_7  and  C8_8
REMARK    3  A    between atoms: N1_10  and  C9_11
REMARK    4  A    between atoms: C9_11  and  C10_12
REMARK    5  A    between atoms: C10_12  and  O2_13
REMARK    6  A    between atoms: O2_13  and  C11_14
REMARK                            x       y       z     vdW  Elec       q    Type
REMARK                         _______ _______ _______ _____ _____    ______ ____
ROOT
ATOM      1  C8  UNL     1      17.596   3.686   9.918  0.00  0.00    +0.000 C 
ATOM      2  O1  UNL     1      16.539   3.577   9.299  0.00  0.00    +0.000 OA
ATOM      3  N1  UNL     1      17.652   3.852  11.286  0.00  0.00    +0.000 N 
ATOM      4  H8  UNL     1      18.546   3.672  11.730  0.00  0.00    +0.000 HD
ENDROOT
BRANCH   1   5
ATOM      5  C7  UNL     1      18.941   3.730   9.211  0.00  0.00    +0.000 C 
BRANCH   5  11
ATOM      6  C1  UNL     1      18.926   6.162   8.509  0.00  0.00    +0.000 A 
ATOM      7  C2  UNL     1      19.500   7.434   8.489  0.00  0.00    +0.000 A 
ATOM      8  C3  UNL     1      20.720   7.659   9.123  0.00  0.00    +0.000 A 
ATOM      9  C4  UNL     1      21.368   6.614   9.778  0.00  0.00    +0.000 A 
ATOM     10  C5  UNL     1      20.796   5.342   9.801  0.00  0.00    +0.000 A 
ATOM     11  C6  UNL     1      19.567   5.105   9.169  0.00  0.00    +0.000 A 
ENDBRANCH   5  11
ENDBRANCH   1   5
BRANCH   3  12
ATOM     12  C9  UNL     1      16.469   3.711  12.117  0.00  0.00    +0.000 C 
BRANCH  12  13
ATOM     13  C10 UNL     1      16.585   4.374  13.493  0.00  0.00    +0.000 C 
BRANCH  13  14
ATOM     14  O2  UNL     1      16.428   5.786  13.320  0.00  0.00    +0.000 OA
BRANCH  14  15
ATOM     15  C11 UNL     1      17.549   6.551  13.466  0.00  0.00    +0.000 A 
ATOM     16  C12 UNL     1      18.297   7.129  12.445  0.00  0.00    +0.000 A 
ATOM     17  C13 UNL     1      19.422   7.891  12.762  0.00  0.00    +0.000 A 
ATOM     18  C14 UNL     1      19.760   8.050  14.097  0.00  0.00    +0.000 A 
ATOM     19  N2  UNL     1      19.061   7.508  15.114  0.00  0.00    +0.000 NA
ATOM     20  C15 UNL     1      17.972   6.776  14.772  0.00  0.00    +0.000 A 
ENDBRANCH  14  15
ENDBRANCH  13  14
ENDBRANCH  12  13
ENDBRANCH   3  12
TORSDOF 6
ENDMDL
MODEL 5
REMARK VINA RESULT:    -4.998      4.088      6.014
REMARK INTER + INTRA:          -7.393
REMARK INTER:                  -6.221
REMARK INTRA:                  -1.172
REMARK UNBOUND:                -0.642
REMARK  Name = /home/anacleto/Desktop/manuscript_Mpro/naturecomm/supplementary_file_S2/6-chemical-library/molecular_docking/3D_ligand_structure/515.pdb
REMARK  6 active torsions:
REMARK  status: ('A' for Active; 'I' for Inactive)
REMARK    1  A    between atoms: C6_6  and  C7_7
REMARK    2  A    between atoms: C7_7  and  C8_8
REMARK    3  A    between atoms: N1_10  and  C9_11
REMARK    4  A    between atoms: C9_11  and  C10_12
REMARK    5  A    between atoms: C10_12  and  O2_13
REMARK    6  A    between atoms: O2_13  and  C11_14
REMARK                            x       y       z     vdW  Elec       q    Type
REMARK                         _______ _______ _______ _____ _____    ______ ____
ROOT
ATOM      1  C8  UNL     1      17.901   6.038  12.897  0.00  0.00    +0.000 C 
ATOM      2  O1  UNL     1      17.386   7.108  13.212  0.00  0.00    +0.000 OA
ATOM      3  N1  UNL     1      17.251   4.827  13.019  0.00  0.00    +0.000 N 
ATOM      4  H8  UNL     1      17.642   4.047  12.503  0.00  0.00    +0.000 HD
ENDROOT
BRANCH   1   5
ATOM      5  C7  UNL     1      19.341   5.948  12.418  0.00  0.00    +0.000 C 
BRANCH   5  11
ATOM      6  C1  UNL     1      20.071   4.932  10.217  0.00  0.00    +0.000 A 
ATOM      7  C2  UNL     1      20.191   4.979   8.828  0.00  0.00    +0.000 A 
ATOM      8  C3  UNL     1      19.736   6.093   8.124  0.00  0.00    +0.000 A 
ATOM      9  C4  UNL     1      19.162   7.162   8.810  0.00  0.00    +0.000 A 
ATOM     10  C5  UNL     1      19.039   7.117  10.198  0.00  0.00    +0.000 A 
ATOM     11  C6  UNL     1      19.490   5.999  10.915  0.00  0.00    +0.000 A 
ENDBRANCH   5  11
ENDBRANCH   1   5
BRANCH   3  12
ATOM     12  C9  UNL     1      15.837   4.753  13.345  0.00  0.00    +0.000 C 
BRANCH  12  13
ATOM     13  C10 UNL     1      14.958   4.222  12.209  0.00  0.00    +0.000 C 
BRANCH  13  14
ATOM     14  O2  UNL     1      15.513   2.982  11.760  0.00  0.00    +0.000 OA
BRANCH  14  15
ATOM     15  C11 UNL     1      15.762   2.869  10.422  0.00  0.00    +0.000 A 
ATOM     16  C12 UNL     1      16.784   3.494   9.713  0.00  0.00    +0.000 A 
ATOM     17  C13 UNL     1      16.906   3.270   8.341  0.00  0.00    +0.000 A 
ATOM     18  C14 UNL     1      15.997   2.426   7.723  0.00  0.00    +0.000 A 
ATOM     19  N2  UNL     1      14.995   1.802   8.374  0.00  0.00    +0.000 NA
ATOM     20  C15 UNL     1      14.907   2.037   9.708  0.00  0.00    +0.000 A 
ENDBRANCH  14  15
ENDBRANCH  13  14
ENDBRANCH  12  13
ENDBRANCH   3  12
TORSDOF 6
ENDMDL
MODEL 6
REMARK VINA RESULT:    -4.945      2.473      3.282
REMARK INTER + INTRA:          -7.321
REMARK INTER:                  -5.834
REMARK INTRA:                  -1.487
REMARK UNBOUND:                -0.642
REMARK  Name = /home/anacleto/Desktop/manuscript_Mpro/naturecomm/supplementary_file_S2/6-chemical-library/molecular_docking/3D_ligand_structure/515.pdb
REMARK  6 active torsions:
REMARK  status: ('A' for Active; 'I' for Inactive)
REMARK    1  A    between atoms: C6_6  and  C7_7
REMARK    2  A    between atoms: C7_7  and  C8_8
REMARK    3  A    between atoms: N1_10  and  C9_11
REMARK    4  A    between atoms: C9_11  and  C10_12
REMARK    5  A    between atoms: C10_12  and  O2_13
REMARK    6  A    between atoms: O2_13  and  C11_14
REMARK                            x       y       z     vdW  Elec       q    Type
REMARK                         _______ _______ _______ _____ _____    ______ ____
ROOT
ATOM      1  C8  UNL     1      21.140   3.127   9.986  0.00  0.00    +0.000 C 
ATOM      2  O1  UNL     1      22.035   2.859  10.784  0.00  0.00    +0.000 OA
ATOM      3  N1  UNL     1      19.843   2.678  10.132  0.00  0.00    +0.000 N 
ATOM      4  H8  UNL     1      19.133   3.153   9.585  0.00  0.00    +0.000 HD
ENDROOT
BRANCH   1   5
ATOM      5  C7  UNL     1      21.406   3.917   8.714  0.00  0.00    +0.000 C 
BRANCH   5  11
ATOM      6  C1  UNL     1      19.576   5.608   8.266  0.00  0.00    +0.000 A 
ATOM      7  C2  UNL     1      19.073   6.909   8.313  0.00  0.00    +0.000 A 
ATOM      8  C3  UNL     1      19.854   7.941   8.833  0.00  0.00    +0.000 A 
ATOM      9  C4  UNL     1      21.137   7.673   9.306  0.00  0.00    +0.000 A 
ATOM     10  C5  UNL     1      21.640   6.373   9.262  0.00  0.00    +0.000 A 
ATOM     11  C6  UNL     1      20.863   5.327   8.745  0.00  0.00    +0.000 A 
ENDBRANCH   5  11
ENDBRANCH   1   5
BRANCH   3  12
ATOM     12  C9  UNL     1      19.400   2.018  11.347  0.00  0.00    +0.000 C 
BRANCH  12  13
ATOM     13  C10 UNL     1      18.958   2.976  12.457  0.00  0.00    +0.000 C 
BRANCH  13  14
ATOM     14  O2  UNL     1      18.402   4.143  11.841  0.00  0.00    +0.000 OA
BRANCH  14  15
ATOM     15  C11 UNL     1      18.948   5.343  12.195  0.00  0.00    +0.000 A 
ATOM     16  C12 UNL     1      18.371   6.598  12.026  0.00  0.00    +0.000 A 
ATOM     17  C13 UNL     1      19.062   7.735  12.447  0.00  0.00    +0.000 A 
ATOM     18  C14 UNL     1      20.311   7.576  13.026  0.00  0.00    +0.000 A 
ATOM     19  N2  UNL     1      20.902   6.378  13.208  0.00  0.00    +0.000 NA
ATOM     20  C15 UNL     1      20.203   5.293  12.791  0.00  0.00    +0.000 A 
ENDBRANCH  14  15
ENDBRANCH  13  14
ENDBRANCH  12  13
ENDBRANCH   3  12
TORSDOF 6
ENDMDL
MODEL 7
REMARK VINA RESULT:    -4.929     14.427     16.645
REMARK INTER + INTRA:          -7.300
REMARK INTER:                  -6.904
REMARK INTRA:                  -0.396
REMARK UNBOUND:                -0.642
REMARK  Name = /home/anacleto/Desktop/manuscript_Mpro/naturecomm/supplementary_file_S2/6-chemical-library/molecular_docking/3D_ligand_structure/515.pdb
REMARK  6 active torsions:
REMARK  status: ('A' for Active; 'I' for Inactive)
REMARK    1  A    between atoms: C6_6  and  C7_7
REMARK    2  A    between atoms: C7_7  and  C8_8
REMARK    3  A    between atoms: N1_10  and  C9_11
REMARK    4  A    between atoms: C9_11  and  C10_12
REMARK    5  A    between atoms: C10_12  and  O2_13
REMARK    6  A    between atoms: O2_13  and  C11_14
REMARK                            x       y       z     vdW  Elec       q    Type
REMARK                         _______ _______ _______ _____ _____    ______ ____
ROOT
ATOM      1  C8  UNL     1      15.565  12.750  -2.797  0.00  0.00    +0.000 C 
ATOM      2  O1  UNL     1      14.597  13.507  -2.836  0.00  0.00    +0.000 OA
ATOM      3  N1  UNL     1      16.806  13.141  -2.339  0.00  0.00    +0.000 N 
ATOM      4  H8  UNL     1      17.457  12.401  -2.101  0.00  0.00    +0.000 HD
ENDROOT
BRANCH   1   5
ATOM      5  C7  UNL     1      15.497  11.329  -3.332  0.00  0.00    +0.000 C 
BRANCH   5  11
ATOM      6  C1  UNL     1      15.792  11.626  -5.828  0.00  0.00    +0.000 A 
ATOM      7  C2  UNL     1      15.322  11.520  -7.138  0.00  0.00    +0.000 A 
ATOM      8  C3  UNL     1      14.042  11.024  -7.382  0.00  0.00    +0.000 A 
ATOM      9  C4  UNL     1      13.231  10.635  -6.317  0.00  0.00    +0.000 A 
ATOM     10  C5  UNL     1      13.700  10.739  -5.008  0.00  0.00    +0.000 A 
ATOM     11  C6  UNL     1      14.987  11.233  -4.752  0.00  0.00    +0.000 A 
ENDBRANCH   5  11
ENDBRANCH   1   5
BRANCH   3  12
ATOM     12  C9  UNL     1      17.005  14.423  -1.684  0.00  0.00    +0.000 C 
BRANCH  12  13
ATOM     13  C10 UNL     1      16.945  14.363  -0.155  0.00  0.00    +0.000 C 
BRANCH  13  14
ATOM     14  O2  UNL     1      17.497  15.578   0.360  0.00  0.00    +0.000 OA
BRANCH  14  15
ATOM     15  C11 UNL     1      18.853  15.717   0.285  0.00  0.00    +0.000 A 
ATOM     16  C12 UNL     1      19.802  14.725   0.512  0.00  0.00    +0.000 A 
ATOM     17  C13 UNL     1      21.158  15.029   0.390  0.00  0.00    +0.000 A 
ATOM     18  C14 UNL     1      21.520  16.322   0.043  0.00  0.00    +0.000 A 
ATOM     19  N2  UNL     1      20.631  17.309  -0.186  0.00  0.00    +0.000 NA
ATOM     20  C15 UNL     1      19.321  16.980  -0.063  0.00  0.00    +0.000 A 
ENDBRANCH  14  15
ENDBRANCH  13  14
ENDBRANCH  12  13
ENDBRANCH   3  12
TORSDOF 6
ENDMDL
MODEL 8
REMARK VINA RESULT:    -4.876     14.052     16.325
REMARK INTER + INTRA:          -7.227
REMARK INTER:                  -5.791
REMARK INTRA:                  -1.437
REMARK UNBOUND:                -0.642
REMARK  Name = /home/anacleto/Desktop/manuscript_Mpro/naturecomm/supplementary_file_S2/6-chemical-library/molecular_docking/3D_ligand_structure/515.pdb
REMARK  6 active torsions:
REMARK  status: ('A' for Active; 'I' for Inactive)
REMARK    1  A    between atoms: C6_6  and  C7_7
REMARK    2  A    between atoms: C7_7  and  C8_8
REMARK    3  A    between atoms: N1_10  and  C9_11
REMARK    4  A    between atoms: C9_11  and  C10_12
REMARK    5  A    between atoms: C10_12  and  O2_13
REMARK    6  A    between atoms: O2_13  and  C11_14
REMARK                            x       y       z     vdW  Elec       q    Type
REMARK                         _______ _______ _______ _____ _____    ______ ____
ROOT
ATOM      1  C8  UNL     1      14.646  14.740  -3.115  0.00  0.00    +0.000 C 
ATOM      2  O1  UNL     1      13.845  14.673  -2.185  0.00  0.00    +0.000 OA
ATOM      3  N1  UNL     1      15.378  15.875  -3.395  0.00  0.00    +0.000 N 
ATOM      4  H8  UNL     1      16.184  15.759  -3.999  0.00  0.00    +0.000 HD
ENDROOT
BRANCH   1   5
ATOM      5  C7  UNL     1      14.839  13.593  -4.095  0.00  0.00    +0.000 C 
BRANCH   5  11
ATOM      6  C1  UNL     1      17.070  12.397  -4.115  0.00  0.00    +0.000 A 
ATOM      7  C2  UNL     1      17.934  11.409  -3.640  0.00  0.00    +0.000 A 
ATOM      8  C3  UNL     1      17.508  10.528  -2.647  0.00  0.00    +0.000 A 
ATOM      9  C4  UNL     1      16.218  10.633  -2.129  0.00  0.00    +0.000 A 
ATOM     10  C5  UNL     1      15.354  11.621  -2.601  0.00  0.00    +0.000 A 
ATOM     11  C6  UNL     1      15.773  12.514  -3.597  0.00  0.00    +0.000 A 
ENDBRANCH   5  11
ENDBRANCH   1   5
BRANCH   3  12
ATOM     12  C9  UNL     1      15.398  17.009  -2.488  0.00  0.00    +0.000 C 
BRANCH  12  13
ATOM     13  C10 UNL     1      16.704  17.161  -1.703  0.00  0.00    +0.000 C 
BRANCH  13  14
ATOM     14  O2  UNL     1      16.611  16.355  -0.524  0.00  0.00    +0.000 OA
BRANCH  14  15
ATOM     15  C11 UNL     1      17.601  15.436  -0.329  0.00  0.00    +0.000 A 
ATOM     16  C12 UNL     1      17.613  14.120  -0.782  0.00  0.00    +0.000 A 
ATOM     17  C13 UNL     1      18.709  13.305  -0.500  0.00  0.00    +0.000 A 
ATOM     18  C14 UNL     1      19.761  13.837   0.228  0.00  0.00    +0.000 A 
ATOM     19  N2  UNL     1      19.789  15.105   0.683  0.00  0.00    +0.000 NA
ATOM     20  C15 UNL     1      18.710  15.873   0.389  0.00  0.00    +0.000 A 
ENDBRANCH  14  15
ENDBRANCH  13  14
ENDBRANCH  12  13
ENDBRANCH   3  12
TORSDOF 6
ENDMDL
MODEL 9
REMARK VINA RESULT:    -4.859      4.743      6.485
REMARK INTER + INTRA:          -7.205
REMARK INTER:                  -6.563
REMARK INTRA:                  -0.642
REMARK UNBOUND:                -0.642
REMARK  Name = /home/anacleto/Desktop/manuscript_Mpro/naturecomm/supplementary_file_S2/6-chemical-library/molecular_docking/3D_ligand_structure/515.pdb
REMARK  6 active torsions:
REMARK  status: ('A' for Active; 'I' for Inactive)
REMARK    1  A    between atoms: C6_6  and  C7_7
REMARK    2  A    between atoms: C7_7  and  C8_8
REMARK    3  A    between atoms: N1_10  and  C9_11
REMARK    4  A    between atoms: C9_11  and  C10_12
REMARK    5  A    between atoms: C10_12  and  O2_13
REMARK    6  A    between atoms: O2_13  and  C11_14
REMARK                            x       y       z     vdW  Elec       q    Type
REMARK                         _______ _______ _______ _____ _____    ______ ____
ROOT
ATOM      1  C8  UNL     1      17.230   3.397   9.113  0.00  0.00    +0.000 C 
ATOM      2  O1  UNL     1      18.363   3.751   8.796  0.00  0.00    +0.000 OA
ATOM      3  N1  UNL     1      16.879   3.071  10.407  0.00  0.00    +0.000 N 
ATOM      4  H8  UNL     1      15.887   3.047  10.617  0.00  0.00    +0.000 HD
ENDROOT
BRANCH   1   5
ATOM      5  C7  UNL     1      16.128   3.209   8.083  0.00  0.00    +0.000 C 
BRANCH   5  11
ATOM      6  C1  UNL     1      16.371   0.739   7.586  0.00  0.00    +0.000 A 
ATOM      7  C2  UNL     1      15.860  -0.559   7.553  0.00  0.00    +0.000 A 
ATOM      8  C3  UNL     1      14.549  -0.803   7.957  0.00  0.00    +0.000 A 
ATOM      9  C4  UNL     1      13.747   0.250   8.393  0.00  0.00    +0.000 A 
ATOM     10  C5  UNL     1      14.256   1.548   8.429  0.00  0.00    +0.000 A 
ATOM     11  C6  UNL     1      15.575   1.804   8.028  0.00  0.00    +0.000 A 
ENDBRANCH   5  11
ENDBRANCH   1   5
BRANCH   3  12
ATOM     12  C9  UNL     1      17.778   3.313  11.522  0.00  0.00    +0.000 C 
BRANCH  12  13
ATOM     13  C10 UNL     1      17.782   4.760  12.023  0.00  0.00    +0.000 C 
BRANCH  13  14
ATOM     14  O2  UNL     1      19.143   5.171  12.185  0.00  0.00    +0.000 OA
BRANCH  14  15
ATOM     15  C11 UNL     1      19.699   5.873  11.155  0.00  0.00    +0.000 A 
ATOM     16  C12 UNL     1      19.140   6.966  10.499  0.00  0.00    +0.000 A 
ATOM     17  C13 UNL     1      19.843   7.579   9.462  0.00  0.00    +0.000 A 
ATOM     18  C14 UNL     1      21.087   7.076   9.115  0.00  0.00    +0.000 A 
ATOM     19  N2  UNL     1      21.663   6.021   9.726  0.00  0.00    +0.000 NA
ATOM     20  C15 UNL     1      20.955   5.450  10.732  0.00  0.00    +0.000 A 
ENDBRANCH  14  15
ENDBRANCH  13  14
ENDBRANCH  12  13
ENDBRANCH   3  12
TORSDOF 6
ENDMDL
