MODEL 1
REMARK VINA RESULT:    -4.782      0.000      0.000
REMARK INTER + INTRA:          -5.496
REMARK INTER:                  -5.304
REMARK INTRA:                  -0.192
REMARK UNBOUND:                -0.155
REMARK  Name = /home/anacleto/Desktop/manuscript_Mpro/naturecomm/supplementary_file_S2/6-chemical-library/molecular_docking/3D_ligand_structure/884.pdb
REMARK  2 active torsions:
REMARK  status: ('A' for Active; 'I' for Inactive)
REMARK    1  A    between atoms: C3_5  and  C4_6
REMARK    2  A    between atoms: N2_8  and  C5_9
REMARK                            x       y       z     vdW  Elec       q    Type
REMARK                         _______ _______ _______ _____ _____    ______ ____
ROOT
ATOM      1  C4  UNL     1     -24.749   4.938 -39.134  0.00  0.00    +0.000 C 
ATOM      2  O1  UNL     1     -24.424   5.109 -40.305  0.00  0.00    +0.000 OA
ATOM      3  N2  UNL     1     -24.159   5.597 -38.063  0.00  0.00    +0.000 N 
ATOM      4  H3  UNL     1     -24.539   5.417 -37.147  0.00  0.00    +0.000 HD
ENDROOT
BRANCH   3   5
ATOM      5  C5  UNL     1     -23.100   6.531 -38.095  0.00  0.00    +0.000 A 
ATOM      6  C6  UNL     1     -21.757   6.195 -38.280  0.00  0.00    +0.000 A 
ATOM      7  C7  UNL     1     -20.772   7.190 -38.293  0.00  0.00    +0.000 A 
ATOM      8  C8  UNL     1     -21.119   8.526 -38.122  0.00  0.00    +0.000 A 
ATOM      9  C9  UNL     1     -22.454   8.874 -37.935  0.00  0.00    +0.000 A 
ATOM     10  C10 UNL     1     -23.437   7.881 -37.921  0.00  0.00    +0.000 A 
ENDBRANCH   3   5
BRANCH   1  15
ATOM     11  S1  UNL     1     -27.446   4.532 -38.841  0.00  0.00    +0.000 S 
ATOM     12  N1  UNL     1     -28.116   3.116 -38.297  0.00  0.00    +0.000 NA
ATOM     13  C1  UNL     1     -27.135   2.254 -38.058  0.00  0.00    +0.000 A 
ATOM     14  C2  UNL     1     -25.804   2.707 -38.296  0.00  0.00    +0.000 A 
ATOM     15  C3  UNL     1     -25.809   4.016 -38.749  0.00  0.00    +0.000 A 
ENDBRANCH   1  15
TORSDOF 2
ENDMDL
MODEL 2
REMARK VINA RESULT:    -4.612      2.258      6.049
REMARK INTER + INTRA:          -5.306
REMARK INTER:                  -5.094
REMARK INTRA:                  -0.212
REMARK UNBOUND:                -0.155
REMARK  Name = /home/anacleto/Desktop/manuscript_Mpro/naturecomm/supplementary_file_S2/6-chemical-library/molecular_docking/3D_ligand_structure/884.pdb
REMARK  2 active torsions:
REMARK  status: ('A' for Active; 'I' for Inactive)
REMARK    1  A    between atoms: C3_5  and  C4_6
REMARK    2  A    between atoms: N2_8  and  C5_9
REMARK                            x       y       z     vdW  Elec       q    Type
REMARK                         _______ _______ _______ _____ _____    ______ ____
ROOT
ATOM      1  C4  UNL     1     -23.824   5.656 -39.545  0.00  0.00    +0.000 C 
ATOM      2  O1  UNL     1     -24.022   5.406 -40.730  0.00  0.00    +0.000 OA
ATOM      3  N2  UNL     1     -24.636   5.204 -38.513  0.00  0.00    +0.000 N 
ATOM      4  H3  UNL     1     -24.352   5.428 -37.571  0.00  0.00    +0.000 HD
ENDROOT
BRANCH   3   5
ATOM      5  C5  UNL     1     -25.812   4.427 -38.609  0.00  0.00    +0.000 A 
ATOM      6  C6  UNL     1     -27.064   4.931 -38.966  0.00  0.00    +0.000 A 
ATOM      7  C7  UNL     1     -28.177   4.086 -39.033  0.00  0.00    +0.000 A 
ATOM      8  C8  UNL     1     -28.050   2.731 -38.743  0.00  0.00    +0.000 A 
ATOM      9  C9  UNL     1     -26.808   2.216 -38.384  0.00  0.00    +0.000 A 
ATOM     10  C10 UNL     1     -25.696   3.060 -38.317  0.00  0.00    +0.000 A 
ENDBRANCH   3   5
BRANCH   1  15
ATOM     11  S1  UNL     1     -22.279   7.882 -39.968  0.00  0.00    +0.000 S 
ATOM     12  N1  UNL     1     -20.987   8.309 -39.019  0.00  0.00    +0.000 NA
ATOM     13  C1  UNL     1     -20.866   7.408 -38.050  0.00  0.00    +0.000 A 
ATOM     14  C2  UNL     1     -21.805   6.336 -38.043  0.00  0.00    +0.000 A 
ATOM     15  C3  UNL     1     -22.694   6.459 -39.099  0.00  0.00    +0.000 A 
ENDBRANCH   1  15
TORSDOF 2
ENDMDL
MODEL 3
REMARK VINA RESULT:    -4.536      7.298     10.130
REMARK INTER + INTRA:          -5.221
REMARK INTER:                  -5.033
REMARK INTRA:                  -0.188
REMARK UNBOUND:                -0.155
REMARK  Name = /home/anacleto/Desktop/manuscript_Mpro/naturecomm/supplementary_file_S2/6-chemical-library/molecular_docking/3D_ligand_structure/884.pdb
REMARK  2 active torsions:
REMARK  status: ('A' for Active; 'I' for Inactive)
REMARK    1  A    between atoms: C3_5  and  C4_6
REMARK    2  A    between atoms: N2_8  and  C5_9
REMARK                            x       y       z     vdW  Elec       q    Type
REMARK                         _______ _______ _______ _____ _____    ______ ____
ROOT
ATOM      1  C4  UNL     1     -16.225   9.539 -40.254  0.00  0.00    +0.000 C 
ATOM      2  O1  UNL     1     -16.844  10.132 -41.132  0.00  0.00    +0.000 OA
ATOM      3  N2  UNL     1     -16.821   8.979 -39.131  0.00  0.00    +0.000 N 
ATOM      4  H3  UNL     1     -16.222   8.471 -38.498  0.00  0.00    +0.000 HD
ENDROOT
BRANCH   3   5
ATOM      5  C5  UNL     1     -18.187   8.999 -38.771  0.00  0.00    +0.000 A 
ATOM      6  C6  UNL     1     -18.857  10.122 -38.282  0.00  0.00    +0.000 A 
ATOM      7  C7  UNL     1     -20.213  10.048 -37.946  0.00  0.00    +0.000 A 
ATOM      8  C8  UNL     1     -20.911   8.854 -38.095  0.00  0.00    +0.000 A 
ATOM      9  C9  UNL     1     -20.254   7.727 -38.580  0.00  0.00    +0.000 A 
ATOM     10  C10 UNL     1     -18.899   7.800 -38.915  0.00  0.00    +0.000 A 
ENDBRANCH   3   5
BRANCH   1  15
ATOM     11  S1  UNL     1     -14.096   8.488 -41.627  0.00  0.00    +0.000 S 
ATOM     12  N1  UNL     1     -12.518   8.618 -41.131  0.00  0.00    +0.000 NA
ATOM     13  C1  UNL     1     -12.491   9.313 -40.000  0.00  0.00    +0.000 A 
ATOM     14  C2  UNL     1     -13.744   9.758 -39.486  0.00  0.00    +0.000 A 
ATOM     15  C3  UNL     1     -14.781   9.355 -40.311  0.00  0.00    +0.000 A 
ENDBRANCH   1  15
TORSDOF 2
ENDMDL
MODEL 4
REMARK VINA RESULT:    -4.501     18.053     19.199
REMARK INTER + INTRA:          -5.182
REMARK INTER:                  -5.175
REMARK INTRA:                  -0.007
REMARK UNBOUND:                -0.155
REMARK  Name = /home/anacleto/Desktop/manuscript_Mpro/naturecomm/supplementary_file_S2/6-chemical-library/molecular_docking/3D_ligand_structure/884.pdb
REMARK  2 active torsions:
REMARK  status: ('A' for Active; 'I' for Inactive)
REMARK    1  A    between atoms: C3_5  and  C4_6
REMARK    2  A    between atoms: N2_8  and  C5_9
REMARK                            x       y       z     vdW  Elec       q    Type
REMARK                         _______ _______ _______ _____ _____    ______ ____
ROOT
ATOM      1  C4  UNL     1     -36.488  -2.065 -25.779  0.00  0.00    +0.000 C 
ATOM      2  O1  UNL     1     -37.113  -1.543 -24.861  0.00  0.00    +0.000 OA
ATOM      3  N2  UNL     1     -36.706  -1.784 -27.121  0.00  0.00    +0.000 N 
ATOM      4  H3  UNL     1     -36.100  -2.235 -27.790  0.00  0.00    +0.000 HD
ENDROOT
BRANCH   3   5
ATOM      5  C5  UNL     1     -37.661  -0.907 -27.682  0.00  0.00    +0.000 A 
ATOM      6  C6  UNL     1     -39.002  -0.851 -27.299  0.00  0.00    +0.000 A 
ATOM      7  C7  UNL     1     -39.879   0.050 -27.913  0.00  0.00    +0.000 A 
ATOM      8  C8  UNL     1     -39.425   0.902 -28.914  0.00  0.00    +0.000 A 
ATOM      9  C9  UNL     1     -38.090   0.856 -29.306  0.00  0.00    +0.000 A 
ATOM     10  C10 UNL     1     -37.214  -0.044 -28.693  0.00  0.00    +0.000 A 
ENDBRANCH   3   5
BRANCH   1  15
ATOM     11  S1  UNL     1     -35.853  -4.621 -25.011  0.00  0.00    +0.000 S 
ATOM     12  N1  UNL     1     -34.303  -5.206 -24.928  0.00  0.00    +0.000 NA
ATOM     13  C1  UNL     1     -33.472  -4.241 -25.305  0.00  0.00    +0.000 A 
ATOM     14  C2  UNL     1     -34.054  -2.991 -25.665  0.00  0.00    +0.000 A 
ATOM     15  C3  UNL     1     -35.433  -3.041 -25.543  0.00  0.00    +0.000 A 
ENDBRANCH   1  15
TORSDOF 2
ENDMDL
MODEL 5
REMARK VINA RESULT:    -4.463      2.842      5.963
REMARK INTER + INTRA:          -5.139
REMARK INTER:                  -4.923
REMARK INTRA:                  -0.217
REMARK UNBOUND:                -0.155
REMARK  Name = /home/anacleto/Desktop/manuscript_Mpro/naturecomm/supplementary_file_S2/6-chemical-library/molecular_docking/3D_ligand_structure/884.pdb
REMARK  2 active torsions:
REMARK  status: ('A' for Active; 'I' for Inactive)
REMARK    1  A    between atoms: C3_5  and  C4_6
REMARK    2  A    between atoms: N2_8  and  C5_9
REMARK                            x       y       z     vdW  Elec       q    Type
REMARK                         _______ _______ _______ _____ _____    ______ ____
ROOT
ATOM      1  C4  UNL     1     -24.335   7.372 -38.504  0.00  0.00    +0.000 C 
ATOM      2  O1  UNL     1     -25.450   7.701 -38.894  0.00  0.00    +0.000 OA
ATOM      3  N2  UNL     1     -23.818   6.089 -38.632  0.00  0.00    +0.000 N 
ATOM      4  H3  UNL     1     -22.870   5.942 -38.320  0.00  0.00    +0.000 HD
ENDROOT
BRANCH   3   5
ATOM      5  C5  UNL     1     -24.447   4.949 -39.182  0.00  0.00    +0.000 A 
ATOM      6  C6  UNL     1     -25.124   3.984 -38.434  0.00  0.00    +0.000 A 
ATOM      7  C7  UNL     1     -25.715   2.884 -39.065  0.00  0.00    +0.000 A 
ATOM      8  C8  UNL     1     -25.635   2.738 -40.447  0.00  0.00    +0.000 A 
ATOM      9  C9  UNL     1     -24.961   3.693 -41.203  0.00  0.00    +0.000 A 
ATOM     10  C10 UNL     1     -24.370   4.791 -40.573  0.00  0.00    +0.000 A 
ENDBRANCH   3   5
BRANCH   1  15
ATOM     11  S1  UNL     1     -21.745   7.960 -37.817  0.00  0.00    +0.000 S 
ATOM     12  N1  UNL     1     -21.290   9.333 -37.005  0.00  0.00    +0.000 NA
ATOM     13  C1  UNL     1     -22.376  10.063 -36.778  0.00  0.00    +0.000 A 
ATOM     14  C2  UNL     1     -23.617   9.537 -37.243  0.00  0.00    +0.000 A 
ATOM     15  C3  UNL     1     -23.426   8.314 -37.866  0.00  0.00    +0.000 A 
ENDBRANCH   1  15
TORSDOF 2
ENDMDL
MODEL 6
REMARK VINA RESULT:    -4.228     14.067     14.447
REMARK INTER + INTRA:          -4.878
REMARK INTER:                  -4.667
REMARK INTRA:                  -0.211
REMARK UNBOUND:                -0.155
REMARK  Name = /home/anacleto/Desktop/manuscript_Mpro/naturecomm/supplementary_file_S2/6-chemical-library/molecular_docking/3D_ligand_structure/884.pdb
REMARK  2 active torsions:
REMARK  status: ('A' for Active; 'I' for Inactive)
REMARK    1  A    between atoms: C3_5  and  C4_6
REMARK    2  A    between atoms: N2_8  and  C5_9
REMARK                            x       y       z     vdW  Elec       q    Type
REMARK                         _______ _______ _______ _____ _____    ______ ____
ROOT
ATOM      1  C4  UNL     1     -24.472  -3.943 -28.812  0.00  0.00    +0.000 C 
ATOM      2  O1  UNL     1     -24.161  -2.900 -29.378  0.00  0.00    +0.000 OA
ATOM      3  N2  UNL     1     -23.669  -5.076 -28.781  0.00  0.00    +0.000 N 
ATOM      4  H3  UNL     1     -24.003  -5.862 -28.244  0.00  0.00    +0.000 HD
ENDROOT
BRANCH   3   5
ATOM      5  C5  UNL     1     -22.407  -5.264 -29.387  0.00  0.00    +0.000 A 
ATOM      6  C6  UNL     1     -22.207  -5.899 -30.614  0.00  0.00    +0.000 A 
ATOM      7  C7  UNL     1     -20.917  -6.043 -31.137  0.00  0.00    +0.000 A 
ATOM      8  C8  UNL     1     -19.817  -5.554 -30.440  0.00  0.00    +0.000 A 
ATOM      9  C9  UNL     1     -20.002  -4.920 -29.215  0.00  0.00    +0.000 A 
ATOM     10  C10 UNL     1     -21.290  -4.777 -28.692  0.00  0.00    +0.000 A 
ENDBRANCH   3   5
BRANCH   1  15
ATOM     11  S1  UNL     1     -25.890  -5.334 -26.920  0.00  0.00    +0.000 S 
ATOM     12  N1  UNL     1     -27.461  -4.997 -26.505  0.00  0.00    +0.000 NA
ATOM     13  C1  UNL     1     -27.869  -3.959 -27.226  0.00  0.00    +0.000 A 
ATOM     14  C2  UNL     1     -26.934  -3.403 -28.147  0.00  0.00    +0.000 A 
ATOM     15  C3  UNL     1     -25.733  -4.093 -28.098  0.00  0.00    +0.000 A 
ENDBRANCH   1  15
TORSDOF 2
ENDMDL
MODEL 7
REMARK VINA RESULT:    -4.156      1.398      2.095
REMARK INTER + INTRA:          -4.796
REMARK INTER:                  -4.576
REMARK INTRA:                  -0.220
REMARK UNBOUND:                -0.155
REMARK  Name = /home/anacleto/Desktop/manuscript_Mpro/naturecomm/supplementary_file_S2/6-chemical-library/molecular_docking/3D_ligand_structure/884.pdb
REMARK  2 active torsions:
REMARK  status: ('A' for Active; 'I' for Inactive)
REMARK    1  A    between atoms: C3_5  and  C4_6
REMARK    2  A    between atoms: N2_8  and  C5_9
REMARK                            x       y       z     vdW  Elec       q    Type
REMARK                         _______ _______ _______ _____ _____    ______ ____
ROOT
ATOM      1  C4  UNL     1     -24.165   6.669 -39.233  0.00  0.00    +0.000 C 
ATOM      2  O1  UNL     1     -24.188   7.432 -40.193  0.00  0.00    +0.000 OA
ATOM      3  N2  UNL     1     -23.178   6.682 -38.257  0.00  0.00    +0.000 N 
ATOM      4  H3  UNL     1     -23.285   6.043 -37.484  0.00  0.00    +0.000 HD
ENDROOT
BRANCH   3   5
ATOM      5  C5  UNL     1     -22.038   7.515 -38.185  0.00  0.00    +0.000 A 
ATOM      6  C6  UNL     1     -22.011   8.763 -37.561  0.00  0.00    +0.000 A 
ATOM      7  C7  UNL     1     -20.835   9.521 -37.542  0.00  0.00    +0.000 A 
ATOM      8  C8  UNL     1     -19.677   9.040 -38.146  0.00  0.00    +0.000 A 
ATOM      9  C9  UNL     1     -19.692   7.798 -38.773  0.00  0.00    +0.000 A 
ATOM     10  C10 UNL     1     -20.866   7.041 -38.792  0.00  0.00    +0.000 A 
ENDBRANCH   3   5
BRANCH   1  15
ATOM     11  S1  UNL     1     -26.833   6.046 -39.369  0.00  0.00    +0.000 S 
ATOM     12  N1  UNL     1     -27.466   4.577 -38.931  0.00  0.00    +0.000 NA
ATOM     13  C1  UNL     1     -26.469   3.794 -38.536  0.00  0.00    +0.000 A 
ATOM     14  C2  UNL     1     -25.158   4.354 -38.562  0.00  0.00    +0.000 A 
ATOM     15  C3  UNL     1     -25.196   5.662 -39.017  0.00  0.00    +0.000 A 
ENDBRANCH   1  15
TORSDOF 2
ENDMDL
MODEL 8
REMARK VINA RESULT:    -4.128     14.513     15.253
REMARK INTER + INTRA:          -4.765
REMARK INTER:                  -4.583
REMARK INTRA:                  -0.182
REMARK UNBOUND:                -0.155
REMARK  Name = /home/anacleto/Desktop/manuscript_Mpro/naturecomm/supplementary_file_S2/6-chemical-library/molecular_docking/3D_ligand_structure/884.pdb
REMARK  2 active torsions:
REMARK  status: ('A' for Active; 'I' for Inactive)
REMARK    1  A    between atoms: C3_5  and  C4_6
REMARK    2  A    between atoms: N2_8  and  C5_9
REMARK                            x       y       z     vdW  Elec       q    Type
REMARK                         _______ _______ _______ _____ _____    ______ ____
ROOT
ATOM      1  C4  UNL     1     -24.257  -4.210 -26.948  0.00  0.00    +0.000 C 
ATOM      2  O1  UNL     1     -23.829  -3.798 -25.874  0.00  0.00    +0.000 OA
ATOM      3  N2  UNL     1     -23.455  -4.744 -27.948  0.00  0.00    +0.000 N 
ATOM      4  H3  UNL     1     -23.919  -5.098 -28.770  0.00  0.00    +0.000 HD
ENDROOT
BRANCH   3   5
ATOM      5  C5  UNL     1     -22.050  -4.891 -27.948  0.00  0.00    +0.000 A 
ATOM      6  C6  UNL     1     -21.146  -3.834 -28.073  0.00  0.00    +0.000 A 
ATOM      7  C7  UNL     1     -19.767  -4.074 -28.066  0.00  0.00    +0.000 A 
ATOM      8  C8  UNL     1     -19.280  -5.371 -27.936  0.00  0.00    +0.000 A 
ATOM      9  C9  UNL     1     -20.170  -6.434 -27.813  0.00  0.00    +0.000 A 
ATOM     10  C10 UNL     1     -21.547  -6.194 -27.820  0.00  0.00    +0.000 A 
ENDBRANCH   3   5
BRANCH   1  15
ATOM     11  S1  UNL     1     -26.772  -5.129 -26.353  0.00  0.00    +0.000 S 
ATOM     12  N1  UNL     1     -28.140  -4.694 -27.185  0.00  0.00    +0.000 NA
ATOM     13  C1  UNL     1     -27.792  -3.840 -28.141  0.00  0.00    +0.000 A 
ATOM     14  C2  UNL     1     -26.409  -3.512 -28.244  0.00  0.00    +0.000 A 
ATOM     15  C3  UNL     1     -25.676  -4.184 -27.279  0.00  0.00    +0.000 A 
ENDBRANCH   1  15
TORSDOF 2
ENDMDL
MODEL 9
REMARK VINA RESULT:    -4.089      6.778      9.601
REMARK INTER + INTRA:          -4.722
REMARK INTER:                  -4.567
REMARK INTRA:                  -0.155
REMARK UNBOUND:                -0.155
REMARK  Name = /home/anacleto/Desktop/manuscript_Mpro/naturecomm/supplementary_file_S2/6-chemical-library/molecular_docking/3D_ligand_structure/884.pdb
REMARK  2 active torsions:
REMARK  status: ('A' for Active; 'I' for Inactive)
REMARK    1  A    between atoms: C3_5  and  C4_6
REMARK    2  A    between atoms: N2_8  and  C5_9
REMARK                            x       y       z     vdW  Elec       q    Type
REMARK                         _______ _______ _______ _____ _____    ______ ____
ROOT
ATOM      1  C4  UNL     1     -17.148   9.507 -40.067  0.00  0.00    +0.000 C 
ATOM      2  O1  UNL     1     -17.724   9.205 -41.108  0.00  0.00    +0.000 OA
ATOM      3  N2  UNL     1     -17.712   9.380 -38.805  0.00  0.00    +0.000 N 
ATOM      4  H3  UNL     1     -17.130   9.611 -38.015  0.00  0.00    +0.000 HD
ENDROOT
BRANCH   3   5
ATOM      5  C5  UNL     1     -19.010   8.927 -38.475  0.00  0.00    +0.000 A 
ATOM      6  C6  UNL     1     -19.461   7.620 -38.663  0.00  0.00    +0.000 A 
ATOM      7  C7  UNL     1     -20.767   7.262 -38.309  0.00  0.00    +0.000 A 
ATOM      8  C8  UNL     1     -21.632   8.206 -37.764  0.00  0.00    +0.000 A 
ATOM      9  C9  UNL     1     -21.194   9.513 -37.573  0.00  0.00    +0.000 A 
ATOM     10  C10 UNL     1     -19.891   9.871 -37.927  0.00  0.00    +0.000 A 
ENDBRANCH   3   5
BRANCH   1  15
ATOM     11  S1  UNL     1     -15.540  11.726 -39.947  0.00  0.00    +0.000 S 
ATOM     12  N1  UNL     1     -13.883  11.674 -39.987  0.00  0.00    +0.000 NA
ATOM     13  C1  UNL     1     -13.507  10.403 -40.068  0.00  0.00    +0.000 A 
ATOM     14  C2  UNL     1     -14.543   9.424 -40.111  0.00  0.00    +0.000 A 
ATOM     15  C3  UNL     1     -15.788  10.029 -40.057  0.00  0.00    +0.000 A 
ENDBRANCH   1  15
TORSDOF 2
ENDMDL
