MODEL 1
REMARK VINA RESULT:    -4.701      0.000      0.000
REMARK INTER + INTRA:          -5.788
REMARK INTER:                  -5.500
REMARK INTRA:                  -0.287
REMARK UNBOUND:                -0.262
REMARK  Name = /home/anacleto/Desktop/manuscript_Mpro/naturecomm/supplementary_file_S2/6-chemical-library/molecular_docking/3D_ligand_structure/760.pdb
REMARK  3 active torsions:
REMARK  status: ('A' for Active; 'I' for Inactive)
REMARK    1  A    between atoms: C3_5  and  C4_6
REMARK    2  A    between atoms: N2_8  and  C5_9
REMARK    3  A    between atoms: C5_9  and  C6_10
REMARK                            x       y       z     vdW  Elec       q    Type
REMARK                         _______ _______ _______ _____ _____    ______ ____
ROOT
ATOM      1  C4  UNL     1      14.943  13.648  -4.579  0.00  0.00    +0.000 C 
ATOM      2  O1  UNL     1      15.812  14.465  -4.876  0.00  0.00    +0.000 OA
ATOM      3  N2  UNL     1      14.405  13.614  -3.305  0.00  0.00    +0.000 N 
ATOM      4  H3  UNL     1      13.832  12.829  -3.030  0.00  0.00    +0.000 HD
ENDROOT
BRANCH   1   9
ATOM      5  S1  UNL     1      15.348  12.173  -6.865  0.00  0.00    +0.000 S 
ATOM      6  C1  UNL     1      14.096  11.103  -7.331  0.00  0.00    +0.000 A 
ATOM      7  N1  UNL     1      13.034  11.081  -6.557  0.00  0.00    +0.000 NA
ATOM      8  C2  UNL     1      13.215  11.973  -5.516  0.00  0.00    +0.000 A 
ATOM      9  C3  UNL     1      14.417  12.658  -5.501  0.00  0.00    +0.000 A 
ENDBRANCH   1   9
BRANCH   3  10
ATOM     10  C5  UNL     1      14.908  14.461  -2.246  0.00  0.00    +0.000 C 
BRANCH  10  11
ATOM     11  C6  UNL     1      14.093  15.714  -2.122  0.00  0.00    +0.000 A 
ATOM     12  C7  UNL     1      12.761  15.678  -1.701  0.00  0.00    +0.000 A 
ATOM     13  C8  UNL     1      12.029  16.859  -1.616  0.00  0.00    +0.000 A 
ATOM     14  C9  UNL     1      12.657  18.044  -1.962  0.00  0.00    +0.000 A 
ATOM     15  N3  UNL     1      13.939  18.120  -2.377  0.00  0.00    +0.000 NA
ATOM     16  C10 UNL     1      14.625  16.957  -2.447  0.00  0.00    +0.000 A 
ENDBRANCH  10  11
ENDBRANCH   3  10
TORSDOF 3
ENDMDL
MODEL 2
REMARK VINA RESULT:    -4.669      3.682      4.475
REMARK INTER + INTRA:          -5.751
REMARK INTER:                  -5.475
REMARK INTRA:                  -0.275
REMARK UNBOUND:                -0.262
REMARK  Name = /home/anacleto/Desktop/manuscript_Mpro/naturecomm/supplementary_file_S2/6-chemical-library/molecular_docking/3D_ligand_structure/760.pdb
REMARK  3 active torsions:
REMARK  status: ('A' for Active; 'I' for Inactive)
REMARK    1  A    between atoms: C3_5  and  C4_6
REMARK    2  A    between atoms: N2_8  and  C5_9
REMARK    3  A    between atoms: C5_9  and  C6_10
REMARK                            x       y       z     vdW  Elec       q    Type
REMARK                         _______ _______ _______ _____ _____    ______ ____
ROOT
ATOM      1  C4  UNL     1      15.901  10.853  -3.512  0.00  0.00    +0.000 C 
ATOM      2  O1  UNL     1      16.951  10.214  -3.534  0.00  0.00    +0.000 OA
ATOM      3  N2  UNL     1      15.453  11.444  -2.345  0.00  0.00    +0.000 N 
ATOM      4  H3  UNL     1      14.511  11.805  -2.303  0.00  0.00    +0.000 HD
ENDROOT
BRANCH   1   9
ATOM      5  S1  UNL     1      15.667  11.777  -6.092  0.00  0.00    +0.000 S 
ATOM      6  C1  UNL     1      14.142  11.597  -6.847  0.00  0.00    +0.000 A 
ATOM      7  N1  UNL     1      13.200  11.035  -6.123  0.00  0.00    +0.000 NA
ATOM      8  C2  UNL     1      13.714  10.721  -4.878  0.00  0.00    +0.000 A 
ATOM      9  C3  UNL     1      15.044  11.036  -4.669  0.00  0.00    +0.000 A 
ENDBRANCH   1   9
BRANCH   3  10
ATOM     10  C5  UNL     1      16.139  11.254  -1.085  0.00  0.00    +0.000 C 
BRANCH  10  11
ATOM     11  C6  UNL     1      17.141  12.344  -0.846  0.00  0.00    +0.000 A 
ATOM     12  C7  UNL     1      18.515  12.088  -0.870  0.00  0.00    +0.000 A 
ATOM     13  C8  UNL     1      19.416  13.120  -0.625  0.00  0.00    +0.000 A 
ATOM     14  C9  UNL     1      18.909  14.382  -0.358  0.00  0.00    +0.000 A 
ATOM     15  N3  UNL     1      17.590  14.667  -0.322  0.00  0.00    +0.000 NA
ATOM     16  C10 UNL     1      16.740  13.646  -0.567  0.00  0.00    +0.000 A 
ENDBRANCH  10  11
ENDBRANCH   3  10
TORSDOF 3
ENDMDL
MODEL 3
REMARK VINA RESULT:    -4.668     16.540     17.959
REMARK INTER + INTRA:          -5.749
REMARK INTER:                  -5.525
REMARK INTRA:                  -0.224
REMARK UNBOUND:                -0.262
REMARK  Name = /home/anacleto/Desktop/manuscript_Mpro/naturecomm/supplementary_file_S2/6-chemical-library/molecular_docking/3D_ligand_structure/760.pdb
REMARK  3 active torsions:
REMARK  status: ('A' for Active; 'I' for Inactive)
REMARK    1  A    between atoms: C3_5  and  C4_6
REMARK    2  A    between atoms: N2_8  and  C5_9
REMARK    3  A    between atoms: C5_9  and  C6_10
REMARK                            x       y       z     vdW  Elec       q    Type
REMARK                         _______ _______ _______ _____ _____    ______ ____
ROOT
ATOM      1  C4  UNL     1      18.302   3.882   8.994  0.00  0.00    +0.000 C 
ATOM      2  O1  UNL     1      18.910   2.876   9.354  0.00  0.00    +0.000 OA
ATOM      3  N2  UNL     1      17.090   3.783   8.335  0.00  0.00    +0.000 N 
ATOM      4  H3  UNL     1      16.699   4.601   7.892  0.00  0.00    +0.000 HD
ENDROOT
BRANCH   1   9
ATOM      5  S1  UNL     1      19.034   5.818  10.806  0.00  0.00    +0.000 S 
ATOM      6  C1  UNL     1      19.549   7.322  10.170  0.00  0.00    +0.000 A 
ATOM      7  N1  UNL     1      19.544   7.429   8.860  0.00  0.00    +0.000 NA
ATOM      8  C2  UNL     1      19.101   6.240   8.311  0.00  0.00    +0.000 A 
ATOM      9  C3  UNL     1      18.784   5.234   9.206  0.00  0.00    +0.000 A 
ENDBRANCH   1   9
BRANCH   3  10
ATOM     10  C5  UNL     1      16.537   2.502   7.952  0.00  0.00    +0.000 C 
BRANCH  10  11
ATOM     11  C6  UNL     1      15.288   2.199   8.726  0.00  0.00    +0.000 A 
ATOM     12  C7  UNL     1      14.276   1.397   8.192  0.00  0.00    +0.000 A 
ATOM     13  C8  UNL     1      13.124   1.152   8.932  0.00  0.00    +0.000 A 
ATOM     14  C9  UNL     1      13.019   1.725  10.189  0.00  0.00    +0.000 A 
ATOM     15  N3  UNL     1      13.971   2.508  10.738  0.00  0.00    +0.000 NA
ATOM     16  C10 UNL     1      15.081   2.725   9.997  0.00  0.00    +0.000 A 
ENDBRANCH  10  11
ENDBRANCH   3  10
TORSDOF 3
ENDMDL
MODEL 4
REMARK VINA RESULT:    -4.454      4.234      6.672
REMARK INTER + INTRA:          -5.497
REMARK INTER:                  -5.214
REMARK INTRA:                  -0.283
REMARK UNBOUND:                -0.262
REMARK  Name = /home/anacleto/Desktop/manuscript_Mpro/naturecomm/supplementary_file_S2/6-chemical-library/molecular_docking/3D_ligand_structure/760.pdb
REMARK  3 active torsions:
REMARK  status: ('A' for Active; 'I' for Inactive)
REMARK    1  A    between atoms: C3_5  and  C4_6
REMARK    2  A    between atoms: N2_8  and  C5_9
REMARK    3  A    between atoms: C5_9  and  C6_10
REMARK                            x       y       z     vdW  Elec       q    Type
REMARK                         _______ _______ _______ _____ _____    ______ ____
ROOT
ATOM      1  C4  UNL     1      18.062  12.719  -0.870  0.00  0.00    +0.000 C 
ATOM      2  O1  UNL     1      18.814  11.946  -1.461  0.00  0.00    +0.000 OA
ATOM      3  N2  UNL     1      16.702  12.476  -0.804  0.00  0.00    +0.000 N 
ATOM      4  H3  UNL     1      16.085  13.205  -0.476  0.00  0.00    +0.000 HD
ENDROOT
BRANCH   1   9
ATOM      5  S1  UNL     1      17.421  15.252  -0.011  0.00  0.00    +0.000 S 
ATOM      6  C1  UNL     1      18.656  16.143   0.770  0.00  0.00    +0.000 A 
ATOM      7  N1  UNL     1      19.818  15.541   0.889  0.00  0.00    +0.000 NA
ATOM      8  C2  UNL     1      19.735  14.282   0.323  0.00  0.00    +0.000 A 
ATOM      9  C3  UNL     1      18.509  13.933  -0.213  0.00  0.00    +0.000 A 
ENDBRANCH   1   9
BRANCH   3  10
ATOM     10  C5  UNL     1      16.093  11.368  -1.507  0.00  0.00    +0.000 C 
BRANCH  10  11
ATOM     11  C6  UNL     1      15.359  11.840  -2.727  0.00  0.00    +0.000 A 
ATOM     12  C7  UNL     1      15.024  10.961  -3.761  0.00  0.00    +0.000 A 
ATOM     13  C8  UNL     1      14.359  11.438  -4.886  0.00  0.00    +0.000 A 
ATOM     14  C9  UNL     1      14.052  12.787  -4.943  0.00  0.00    +0.000 A 
ATOM     15  N3  UNL     1      14.363  13.668  -3.968  0.00  0.00    +0.000 NA
ATOM     16  C10 UNL     1      15.005  13.176  -2.886  0.00  0.00    +0.000 A 
ENDBRANCH  10  11
ENDBRANCH   3  10
TORSDOF 3
ENDMDL
MODEL 5
REMARK VINA RESULT:    -4.381      1.926      2.601
REMARK INTER + INTRA:          -5.411
REMARK INTER:                  -5.170
REMARK INTRA:                  -0.241
REMARK UNBOUND:                -0.262
REMARK  Name = /home/anacleto/Desktop/manuscript_Mpro/naturecomm/supplementary_file_S2/6-chemical-library/molecular_docking/3D_ligand_structure/760.pdb
REMARK  3 active torsions:
REMARK  status: ('A' for Active; 'I' for Inactive)
REMARK    1  A    between atoms: C3_5  and  C4_6
REMARK    2  A    between atoms: N2_8  and  C5_9
REMARK    3  A    between atoms: C5_9  and  C6_10
REMARK                            x       y       z     vdW  Elec       q    Type
REMARK                         _______ _______ _______ _____ _____    ______ ____
ROOT
ATOM      1  C4  UNL     1      14.438  13.490  -3.555  0.00  0.00    +0.000 C 
ATOM      2  O1  UNL     1      14.851  12.907  -2.555  0.00  0.00    +0.000 OA
ATOM      3  N2  UNL     1      13.971  14.789  -3.479  0.00  0.00    +0.000 N 
ATOM      4  H3  UNL     1      13.473  15.183  -4.264  0.00  0.00    +0.000 HD
ENDROOT
BRANCH   1   9
ATOM      5  S1  UNL     1      15.621  13.236  -6.026  0.00  0.00    +0.000 S 
ATOM      6  C1  UNL     1      14.842  12.216  -7.159  0.00  0.00    +0.000 A 
ATOM      7  N1  UNL     1      13.732  11.641  -6.753  0.00  0.00    +0.000 NA
ATOM      8  C2  UNL     1      13.470  12.030  -5.453  0.00  0.00    +0.000 A 
ATOM      9  C3  UNL     1      14.388  12.889  -4.875  0.00  0.00    +0.000 A 
ENDBRANCH   1   9
BRANCH   3  10
ATOM     10  C5  UNL     1      13.852  15.480  -2.214  0.00  0.00    +0.000 C 
BRANCH  10  11
ATOM     11  C6  UNL     1      15.119  16.207  -1.874  0.00  0.00    +0.000 A 
ATOM     12  C7  UNL     1      15.508  17.357  -2.567  0.00  0.00    +0.000 A 
ATOM     13  C8  UNL     1      16.700  17.994  -2.236  0.00  0.00    +0.000 A 
ATOM     14  C9  UNL     1      17.471  17.456  -1.218  0.00  0.00    +0.000 A 
ATOM     15  N3  UNL     1      17.132  16.346  -0.529  0.00  0.00    +0.000 NA
ATOM     16  C10 UNL     1      15.967  15.750  -0.870  0.00  0.00    +0.000 A 
ENDBRANCH  10  11
ENDBRANCH   3  10
TORSDOF 3
ENDMDL
MODEL 6
REMARK VINA RESULT:    -4.309     17.913     19.047
REMARK INTER + INTRA:          -5.327
REMARK INTER:                  -5.051
REMARK INTRA:                  -0.277
REMARK UNBOUND:                -0.262
REMARK  Name = /home/anacleto/Desktop/manuscript_Mpro/naturecomm/supplementary_file_S2/6-chemical-library/molecular_docking/3D_ligand_structure/760.pdb
REMARK  3 active torsions:
REMARK  status: ('A' for Active; 'I' for Inactive)
REMARK    1  A    between atoms: C3_5  and  C4_6
REMARK    2  A    between atoms: N2_8  and  C5_9
REMARK    3  A    between atoms: C5_9  and  C6_10
REMARK                            x       y       z     vdW  Elec       q    Type
REMARK                         _______ _______ _______ _____ _____    ______ ____
ROOT
ATOM      1  C4  UNL     1      20.106   7.036  11.879  0.00  0.00    +0.000 C 
ATOM      2  O1  UNL     1      21.020   6.450  12.454  0.00  0.00    +0.000 OA
ATOM      3  N2  UNL     1      19.341   7.981  12.538  0.00  0.00    +0.000 N 
ATOM      4  H3  UNL     1      18.490   8.316  12.110  0.00  0.00    +0.000 HD
ENDROOT
BRANCH   1   9
ATOM      5  S1  UNL     1      19.180   5.241  10.011  0.00  0.00    +0.000 S 
ATOM      6  C1  UNL     1      19.000   5.812   8.408  0.00  0.00    +0.000 A 
ATOM      7  N1  UNL     1      19.329   7.067   8.199  0.00  0.00    +0.000 NA
ATOM      8  C2  UNL     1      19.756   7.626   9.390  0.00  0.00    +0.000 A 
ATOM      9  C3  UNL     1      19.739   6.796  10.496  0.00  0.00    +0.000 A 
ENDBRANCH   1   9
BRANCH   3  10
ATOM     10  C5  UNL     1      19.513   8.247  13.950  0.00  0.00    +0.000 C 
BRANCH  10  11
ATOM     11  C6  UNL     1      18.415   7.618  14.756  0.00  0.00    +0.000 A 
ATOM     12  C7  UNL     1      17.069   7.867  14.474  0.00  0.00    +0.000 A 
ATOM     13  C8  UNL     1      16.078   7.281  15.255  0.00  0.00    +0.000 A 
ATOM     14  C9  UNL     1      16.469   6.462  16.302  0.00  0.00    +0.000 A 
ATOM     15  N3  UNL     1      17.757   6.200  16.609  0.00  0.00    +0.000 NA
ATOM     16  C10 UNL     1      18.697   6.781  15.831  0.00  0.00    +0.000 A 
ENDBRANCH  10  11
ENDBRANCH   3  10
TORSDOF 3
ENDMDL
MODEL 7
REMARK VINA RESULT:    -4.208     17.718     19.340
REMARK INTER + INTRA:          -5.208
REMARK INTER:                  -4.998
REMARK INTRA:                  -0.210
REMARK UNBOUND:                -0.262
REMARK  Name = /home/anacleto/Desktop/manuscript_Mpro/naturecomm/supplementary_file_S2/6-chemical-library/molecular_docking/3D_ligand_structure/760.pdb
REMARK  3 active torsions:
REMARK  status: ('A' for Active; 'I' for Inactive)
REMARK    1  A    between atoms: C3_5  and  C4_6
REMARK    2  A    between atoms: N2_8  and  C5_9
REMARK    3  A    between atoms: C5_9  and  C6_10
REMARK                            x       y       z     vdW  Elec       q    Type
REMARK                         _______ _______ _______ _____ _____    ______ ____
ROOT
ATOM      1  C4  UNL     1      17.759   7.583  13.933  0.00  0.00    +0.000 C 
ATOM      2  O1  UNL     1      18.647   8.094  14.612  0.00  0.00    +0.000 OA
ATOM      3  N2  UNL     1      17.947   7.339  12.585  0.00  0.00    +0.000 N 
ATOM      4  H3  UNL     1      17.154   7.090  12.011  0.00  0.00    +0.000 HD
ENDROOT
BRANCH   1   9
ATOM      5  S1  UNL     1      15.866   5.608  14.222  0.00  0.00    +0.000 S 
ATOM      6  C1  UNL     1      14.439   6.018  15.072  0.00  0.00    +0.000 A 
ATOM      7  N1  UNL     1      14.362   7.254  15.513  0.00  0.00    +0.000 NA
ATOM      8  C2  UNL     1      15.512   7.934  15.156  0.00  0.00    +0.000 A 
ATOM      9  C3  UNL     1      16.459   7.207  14.456  0.00  0.00    +0.000 A 
ENDBRANCH   1   9
BRANCH   3  10
ATOM     10  C5  UNL     1      19.146   7.762  11.896  0.00  0.00    +0.000 C 
BRANCH  10  11
ATOM     11  C6  UNL     1      19.469   6.842  10.756  0.00  0.00    +0.000 A 
ATOM     12  C7  UNL     1      19.151   7.178   9.437  0.00  0.00    +0.000 A 
ATOM     13  C8  UNL     1      19.448   6.291   8.407  0.00  0.00    +0.000 A 
ATOM     14  C9  UNL     1      20.055   5.089   8.732  0.00  0.00    +0.000 A 
ATOM     15  N3  UNL     1      20.373   4.727   9.993  0.00  0.00    +0.000 NA
ATOM     16  C10 UNL     1      20.075   5.609  10.972  0.00  0.00    +0.000 A 
ENDBRANCH  10  11
ENDBRANCH   3  10
TORSDOF 3
ENDMDL
MODEL 8
REMARK VINA RESULT:    -4.187      4.202      5.230
REMARK INTER + INTRA:          -5.184
REMARK INTER:                  -4.939
REMARK INTRA:                  -0.245
REMARK UNBOUND:                -0.262
REMARK  Name = /home/anacleto/Desktop/manuscript_Mpro/naturecomm/supplementary_file_S2/6-chemical-library/molecular_docking/3D_ligand_structure/760.pdb
REMARK  3 active torsions:
REMARK  status: ('A' for Active; 'I' for Inactive)
REMARK    1  A    between atoms: C3_5  and  C4_6
REMARK    2  A    between atoms: N2_8  and  C5_9
REMARK    3  A    between atoms: C5_9  and  C6_10
REMARK                            x       y       z     vdW  Elec       q    Type
REMARK                         _______ _______ _______ _____ _____    ______ ____
ROOT
ATOM      1  C4  UNL     1      15.386  14.785  -1.683  0.00  0.00    +0.000 C 
ATOM      2  O1  UNL     1      14.801  15.864  -1.613  0.00  0.00    +0.000 OA
ATOM      3  N2  UNL     1      16.385  14.459  -0.784  0.00  0.00    +0.000 N 
ATOM      4  H3  UNL     1      16.972  13.657  -0.966  0.00  0.00    +0.000 HD
ENDROOT
BRANCH   1   9
ATOM      5  S1  UNL     1      15.435  12.121  -2.369  0.00  0.00    +0.000 S 
ATOM      6  C1  UNL     1      14.863  11.710  -3.929  0.00  0.00    +0.000 A 
ATOM      7  N1  UNL     1      14.453  12.710  -4.677  0.00  0.00    +0.000 NA
ATOM      8  C2  UNL     1      14.598  13.891  -3.973  0.00  0.00    +0.000 A 
ATOM      9  C3  UNL     1      15.107  13.780  -2.692  0.00  0.00    +0.000 A 
ENDBRANCH   1   9
BRANCH   3  10
ATOM     10  C5  UNL     1      16.854  15.403   0.207  0.00  0.00    +0.000 C 
BRANCH  10  11
ATOM     11  C6  UNL     1      18.349  15.518   0.180  0.00  0.00    +0.000 A 
ATOM     12  C7  UNL     1      19.164  14.391   0.037  0.00  0.00    +0.000 A 
ATOM     13  C8  UNL     1      20.548  14.534   0.035  0.00  0.00    +0.000 A 
ATOM     14  C9  UNL     1      21.075  15.807   0.182  0.00  0.00    +0.000 A 
ATOM     15  N3  UNL     1      20.322  16.917   0.328  0.00  0.00    +0.000 NA
ATOM     16  C10 UNL     1      18.981  16.748   0.322  0.00  0.00    +0.000 A 
ENDBRANCH  10  11
ENDBRANCH   3  10
TORSDOF 3
ENDMDL
MODEL 9
REMARK VINA RESULT:    -4.145     16.766     17.830
REMARK INTER + INTRA:          -5.134
REMARK INTER:                  -4.872
REMARK INTRA:                  -0.262
REMARK UNBOUND:                -0.262
REMARK  Name = /home/anacleto/Desktop/manuscript_Mpro/naturecomm/supplementary_file_S2/6-chemical-library/molecular_docking/3D_ligand_structure/760.pdb
REMARK  3 active torsions:
REMARK  status: ('A' for Active; 'I' for Inactive)
REMARK    1  A    between atoms: C3_5  and  C4_6
REMARK    2  A    between atoms: N2_8  and  C5_9
REMARK    3  A    between atoms: C5_9  and  C6_10
REMARK                            x       y       z     vdW  Elec       q    Type
REMARK                         _______ _______ _______ _____ _____    ______ ____
ROOT
ATOM      1  C4  UNL     1      15.992   3.149  10.753  0.00  0.00    +0.000 C 
ATOM      2  O1  UNL     1      15.636   3.760  11.759  0.00  0.00    +0.000 OA
ATOM      3  N2  UNL     1      17.317   3.136  10.360  0.00  0.00    +0.000 N 
ATOM      4  H3  UNL     1      17.559   2.787   9.445  0.00  0.00    +0.000 HD
ENDROOT
BRANCH   1   9
ATOM      5  S1  UNL     1      13.535   1.942  10.481  0.00  0.00    +0.000 S 
ATOM      6  C1  UNL     1      13.189   1.215   8.970  0.00  0.00    +0.000 A 
ATOM      7  N1  UNL     1      14.137   1.289   8.062  0.00  0.00    +0.000 NA
ATOM      8  C2  UNL     1      15.219   1.968   8.591  0.00  0.00    +0.000 A 
ATOM      9  C3  UNL     1      15.083   2.414   9.893  0.00  0.00    +0.000 A 
ENDBRANCH   1   9
BRANCH   3  10
ATOM     10  C5  UNL     1      18.322   3.915  11.051  0.00  0.00    +0.000 C 
BRANCH  10  11
ATOM     11  C6  UNL     1      18.748   5.097  10.231  0.00  0.00    +0.000 A 
ATOM     12  C7  UNL     1      19.110   6.307  10.829  0.00  0.00    +0.000 A 
ATOM     13  C8  UNL     1      19.482   7.387  10.036  0.00  0.00    +0.000 A 
ATOM     14  C9  UNL     1      19.475   7.223   8.660  0.00  0.00    +0.000 A 
ATOM     15  N3  UNL     1      19.128   6.073   8.045  0.00  0.00    +0.000 NA
ATOM     16  C10 UNL     1      18.775   5.039   8.841  0.00  0.00    +0.000 A 
ENDBRANCH  10  11
ENDBRANCH   3  10
TORSDOF 3
ENDMDL
