MODEL 1
REMARK VINA RESULT:    -4.179      0.000      0.000
REMARK INTER + INTRA:          -4.179
REMARK INTER:                  -4.179
REMARK INTRA:                   0.000
REMARK UNBOUND:                 0.000
REMARK  Name = /home/anacleto/Desktop/manuscript_Mpro/naturecomm/supplementary_file_S2/6-chemical-library/molecular_docking/3D_ligand_structure/1197.pdb
REMARK  0 active torsions:
REMARK  status: ('A' for Active; 'I' for Inactive)
REMARK                            x       y       z     vdW  Elec       q    Type
REMARK                         _______ _______ _______ _____ _____    ______ ____
ROOT
ATOM      1  N1  UNL     1      21.388   6.160  10.664  0.00  0.00    +0.000 NA
ATOM      2  C1  UNL     1      21.762   5.778   9.428  0.00  0.00    +0.000 A 
ATOM      3  C2  UNL     1      20.880   5.581   8.398  0.00  0.00    +0.000 A 
ATOM      4  C3  UNL     1      19.566   5.802   8.714  0.00  0.00    +0.000 A 
ATOM      5  N2  UNL     1      19.149   6.185   9.937  0.00  0.00    +0.000 NA
ATOM      6  C4  UNL     1      20.077   6.355  10.895  0.00  0.00    +0.000 A 
ATOM      7  N3  UNL     1      19.665   6.721  12.179  0.00  0.00    +0.000 N 
ATOM      8  C5  UNL     1      20.718   7.349  12.988  0.00  0.00    +0.000 C 
ATOM      9  C6  UNL     1      20.206   7.662  14.412  0.00  0.00    +0.000 C 
ATOM     10  N4  UNL     1      18.951   8.440  14.435  0.00  0.00    +0.000 NA
ATOM     11  C7  UNL     1      17.933   7.687  13.674  0.00  0.00    +0.000 C 
ATOM     12  C8  UNL     1      18.350   7.374  12.219  0.00  0.00    +0.000 C 
ATOM     13  H8  UNL     1      19.119   9.321  13.948  0.00  0.00    +0.000 HD
ENDROOT
TORSDOF 0
ENDMDL
MODEL 2
REMARK VINA RESULT:    -4.164     15.009     16.885
REMARK INTER + INTRA:          -4.164
REMARK INTER:                  -4.164
REMARK INTRA:                   0.000
REMARK UNBOUND:                 0.000
REMARK  Name = /home/anacleto/Desktop/manuscript_Mpro/naturecomm/supplementary_file_S2/6-chemical-library/molecular_docking/3D_ligand_structure/1197.pdb
REMARK  0 active torsions:
REMARK  status: ('A' for Active; 'I' for Inactive)
REMARK                            x       y       z     vdW  Elec       q    Type
REMARK                         _______ _______ _______ _____ _____    ______ ____
ROOT
ATOM      1  N1  UNL     1      15.422  12.435  -5.552  0.00  0.00    +0.000 NA
ATOM      2  C1  UNL     1      14.599  12.161  -6.582  0.00  0.00    +0.000 A 
ATOM      3  C2  UNL     1      13.602  11.224  -6.525  0.00  0.00    +0.000 A 
ATOM      4  C3  UNL     1      13.493  10.570  -5.326  0.00  0.00    +0.000 A 
ATOM      5  N2  UNL     1      14.294  10.813  -4.271  0.00  0.00    +0.000 NA
ATOM      6  C4  UNL     1      15.251  11.748  -4.408  0.00  0.00    +0.000 A 
ATOM      7  N3  UNL     1      16.115  11.994  -3.338  0.00  0.00    +0.000 N 
ATOM      8  C5  UNL     1      16.766  13.309  -3.385  0.00  0.00    +0.000 C 
ATOM      9  C6  UNL     1      17.753  13.480  -2.209  0.00  0.00    +0.000 C 
ATOM     10  N4  UNL     1      17.155  13.206  -0.887  0.00  0.00    +0.000 NA
ATOM     11  C7  UNL     1      16.609  11.833  -0.908  0.00  0.00    +0.000 C 
ATOM     12  C8  UNL     1      15.574  11.594  -2.032  0.00  0.00    +0.000 C 
ATOM     13  H8  UNL     1      16.376  13.852  -0.754  0.00  0.00    +0.000 HD
ENDROOT
TORSDOF 0
ENDMDL
MODEL 3
REMARK VINA RESULT:    -4.111     14.300     16.009
REMARK INTER + INTRA:          -4.111
REMARK INTER:                  -4.111
REMARK INTRA:                   0.000
REMARK UNBOUND:                 0.000
REMARK  Name = /home/anacleto/Desktop/manuscript_Mpro/naturecomm/supplementary_file_S2/6-chemical-library/molecular_docking/3D_ligand_structure/1197.pdb
REMARK  0 active torsions:
REMARK  status: ('A' for Active; 'I' for Inactive)
REMARK                            x       y       z     vdW  Elec       q    Type
REMARK                         _______ _______ _______ _____ _____    ______ ____
ROOT
ATOM      1  N1  UNL     1      16.921  16.223   0.420  0.00  0.00    +0.000 NA
ATOM      2  C1  UNL     1      18.021  16.513   1.139  0.00  0.00    +0.000 A 
ATOM      3  C2  UNL     1      19.210  15.847   1.005  0.00  0.00    +0.000 A 
ATOM      4  C3  UNL     1      19.207  14.845   0.071  0.00  0.00    +0.000 A 
ATOM      5  N2  UNL     1      18.130  14.522  -0.670  0.00  0.00    +0.000 NA
ATOM      6  C4  UNL     1      16.999  15.223  -0.476  0.00  0.00    +0.000 A 
ATOM      7  N3  UNL     1      15.859  14.884  -1.211  0.00  0.00    +0.000 N 
ATOM      8  C5  UNL     1      14.868  15.963  -1.307  0.00  0.00    +0.000 C 
ATOM      9  C6  UNL     1      13.611  15.492  -2.074  0.00  0.00    +0.000 C 
ATOM     10  N4  UNL     1      13.909  14.893  -3.391  0.00  0.00    +0.000 NA
ATOM     11  C7  UNL     1      14.839  13.765  -3.179  0.00  0.00    +0.000 C 
ATOM     12  C8  UNL     1      16.146  14.165  -2.459  0.00  0.00    +0.000 C 
ATOM     13  H8  UNL     1      14.389  15.596  -3.954  0.00  0.00    +0.000 HD
ENDROOT
TORSDOF 0
ENDMDL
MODEL 4
REMARK VINA RESULT:    -4.087     15.169     17.475
REMARK INTER + INTRA:          -4.087
REMARK INTER:                  -4.087
REMARK INTRA:                   0.000
REMARK UNBOUND:                 0.000
REMARK  Name = /home/anacleto/Desktop/manuscript_Mpro/naturecomm/supplementary_file_S2/6-chemical-library/molecular_docking/3D_ligand_structure/1197.pdb
REMARK  0 active torsions:
REMARK  status: ('A' for Active; 'I' for Inactive)
REMARK                            x       y       z     vdW  Elec       q    Type
REMARK                         _______ _______ _______ _____ _____    ______ ____
ROOT
ATOM      1  N1  UNL     1      17.287  11.864  -3.683  0.00  0.00    +0.000 NA
ATOM      2  C1  UNL     1      18.017  11.798  -2.554  0.00  0.00    +0.000 A 
ATOM      3  C2  UNL     1      17.489  11.488  -1.329  0.00  0.00    +0.000 A 
ATOM      4  C3  UNL     1      16.141  11.243  -1.327  0.00  0.00    +0.000 A 
ATOM      5  N2  UNL     1      15.374  11.298  -2.433  0.00  0.00    +0.000 NA
ATOM      6  C4  UNL     1      15.968  11.612  -3.598  0.00  0.00    +0.000 A 
ATOM      7  N3  UNL     1      15.187  11.706  -4.752  0.00  0.00    +0.000 N 
ATOM      8  C5  UNL     1      15.945  11.559  -6.001  0.00  0.00    +0.000 C 
ATOM      9  C6  UNL     1      15.026  11.741  -7.230  0.00  0.00    +0.000 C 
ATOM     10  N4  UNL     1      13.825  10.882  -7.207  0.00  0.00    +0.000 NA
ATOM     11  C7  UNL     1      13.085  11.167  -5.961  0.00  0.00    +0.000 C 
ATOM     12  C8  UNL     1      13.923  10.961  -4.679  0.00  0.00    +0.000 C 
ATOM     13  H8  UNL     1      14.135   9.910  -7.173  0.00  0.00    +0.000 HD
ENDROOT
TORSDOF 0
ENDMDL
MODEL 5
REMARK VINA RESULT:    -4.009      1.281      4.609
REMARK INTER + INTRA:          -4.009
REMARK INTER:                  -4.009
REMARK INTRA:                   0.000
REMARK UNBOUND:                 0.000
REMARK  Name = /home/anacleto/Desktop/manuscript_Mpro/naturecomm/supplementary_file_S2/6-chemical-library/molecular_docking/3D_ligand_structure/1197.pdb
REMARK  0 active torsions:
REMARK  status: ('A' for Active; 'I' for Inactive)
REMARK                            x       y       z     vdW  Elec       q    Type
REMARK                         _______ _______ _______ _____ _____    ______ ____
ROOT
ATOM      1  N1  UNL     1      20.405   7.558  12.931  0.00  0.00    +0.000 NA
ATOM      2  C1  UNL     1      19.973   7.841  14.175  0.00  0.00    +0.000 A 
ATOM      3  C2  UNL     1      18.649   7.905  14.520  0.00  0.00    +0.000 A 
ATOM      4  C3  UNL     1      17.774   7.657  13.496  0.00  0.00    +0.000 A 
ATOM      5  N2  UNL     1      18.162   7.370  12.239  0.00  0.00    +0.000 NA
ATOM      6  C4  UNL     1      19.481   7.329  11.980  0.00  0.00    +0.000 A 
ATOM      7  N3  UNL     1      19.907   7.065  10.676  0.00  0.00    +0.000 N 
ATOM      8  C5  UNL     1      21.283   6.560  10.587  0.00  0.00    +0.000 C 
ATOM      9  C6  UNL     1      21.703   6.356   9.114  0.00  0.00    +0.000 C 
ATOM     10  N4  UNL     1      20.758   5.530   8.335  0.00  0.00    +0.000 NA
ATOM     11  C7  UNL     1      19.426   6.166   8.411  0.00  0.00    +0.000 C 
ATOM     12  C8  UNL     1      18.912   6.362   9.855  0.00  0.00    +0.000 C 
ATOM     13  H8  UNL     1      20.695   4.616   8.785  0.00  0.00    +0.000 HD
ENDROOT
TORSDOF 0
ENDMDL
MODEL 6
REMARK VINA RESULT:    -3.748     15.622     16.860
REMARK INTER + INTRA:          -3.748
REMARK INTER:                  -3.748
REMARK INTRA:                   0.000
REMARK UNBOUND:                 0.000
REMARK  Name = /home/anacleto/Desktop/manuscript_Mpro/naturecomm/supplementary_file_S2/6-chemical-library/molecular_docking/3D_ligand_structure/1197.pdb
REMARK  0 active torsions:
REMARK  status: ('A' for Active; 'I' for Inactive)
REMARK                            x       y       z     vdW  Elec       q    Type
REMARK                         _______ _______ _______ _____ _____    ______ ____
ROOT
ATOM      1  N1  UNL     1      16.139  14.495  -1.596  0.00  0.00    +0.000 NA
ATOM      2  C1  UNL     1      15.554  15.517  -0.943  0.00  0.00    +0.000 A 
ATOM      3  C2  UNL     1      14.312  16.003  -1.256  0.00  0.00    +0.000 A 
ATOM      4  C3  UNL     1      13.691  15.369  -2.299  0.00  0.00    +0.000 A 
ATOM      5  N2  UNL     1      14.240  14.345  -2.980  0.00  0.00    +0.000 NA
ATOM      6  C4  UNL     1      15.464  13.927  -2.612  0.00  0.00    +0.000 A 
ATOM      7  N3  UNL     1      16.067  12.887  -3.324  0.00  0.00    +0.000 N 
ATOM      8  C5  UNL     1      17.124  12.189  -2.582  0.00  0.00    +0.000 C 
ATOM      9  C6  UNL     1      17.786  11.100  -3.457  0.00  0.00    +0.000 C 
ATOM     10  N4  UNL     1      16.823  10.160  -4.066  0.00  0.00    +0.000 NA
ATOM     11  C7  UNL     1      15.859  10.947  -4.862  0.00  0.00    +0.000 C 
ATOM     12  C8  UNL     1      15.117  12.030  -4.045  0.00  0.00    +0.000 C 
ATOM     13  H8  UNL     1      16.310   9.704  -3.311  0.00  0.00    +0.000 HD
ENDROOT
TORSDOF 0
ENDMDL
MODEL 7
REMARK VINA RESULT:    -3.670     14.358     16.104
REMARK INTER + INTRA:          -3.670
REMARK INTER:                  -3.670
REMARK INTRA:                   0.000
REMARK UNBOUND:                 0.000
REMARK  Name = /home/anacleto/Desktop/manuscript_Mpro/naturecomm/supplementary_file_S2/6-chemical-library/molecular_docking/3D_ligand_structure/1197.pdb
REMARK  0 active torsions:
REMARK  status: ('A' for Active; 'I' for Inactive)
REMARK                            x       y       z     vdW  Elec       q    Type
REMARK                         _______ _______ _______ _____ _____    ______ ____
ROOT
ATOM      1  N1  UNL     1      18.805  12.806  -2.162  0.00  0.00    +0.000 NA
ATOM      2  C1  UNL     1      19.502  13.336  -1.139  0.00  0.00    +0.000 A 
ATOM      3  C2  UNL     1      18.932  14.081  -0.141  0.00  0.00    +0.000 A 
ATOM      4  C3  UNL     1      17.578  14.255  -0.253  0.00  0.00    +0.000 A 
ATOM      5  N2  UNL     1      16.843  13.744  -1.259  0.00  0.00    +0.000 NA
ATOM      6  C4  UNL     1      17.478  13.025  -2.202  0.00  0.00    +0.000 A 
ATOM      7  N3  UNL     1      16.741  12.511  -3.271  0.00  0.00    +0.000 N 
ATOM      8  C5  UNL     1      17.380  11.374  -3.946  0.00  0.00    +0.000 C 
ATOM      9  C6  UNL     1      16.540  10.906  -5.156  0.00  0.00    +0.000 C 
ATOM     10  N4  UNL     1      15.126  10.632  -4.827  0.00  0.00    +0.000 NA
ATOM     11  C7  UNL     1      14.549  11.858  -4.239  0.00  0.00    +0.000 C 
ATOM     12  C8  UNL     1      15.306  12.365  -2.991  0.00  0.00    +0.000 C 
ATOM     13  H8  UNL     1      15.106   9.902  -4.114  0.00  0.00    +0.000 HD
ENDROOT
TORSDOF 0
ENDMDL
MODEL 8
REMARK VINA RESULT:    -3.665     17.219     18.701
REMARK INTER + INTRA:          -3.665
REMARK INTER:                  -3.665
REMARK INTRA:                   0.000
REMARK UNBOUND:                 0.000
REMARK  Name = /home/anacleto/Desktop/manuscript_Mpro/naturecomm/supplementary_file_S2/6-chemical-library/molecular_docking/3D_ligand_structure/1197.pdb
REMARK  0 active torsions:
REMARK  status: ('A' for Active; 'I' for Inactive)
REMARK                            x       y       z     vdW  Elec       q    Type
REMARK                         _______ _______ _______ _____ _____    ______ ____
ROOT
ATOM      1  N1  UNL     1      15.423  10.961  -4.684  0.00  0.00    +0.000 NA
ATOM      2  C1  UNL     1      14.079  10.980  -4.601  0.00  0.00    +0.000 A 
ATOM      3  C2  UNL     1      13.259  11.241  -5.667  0.00  0.00    +0.000 A 
ATOM      4  C3  UNL     1      13.909  11.487  -6.847  0.00  0.00    +0.000 A 
ATOM      5  N2  UNL     1      15.250  11.478  -6.974  0.00  0.00    +0.000 NA
ATOM      6  C4  UNL     1      15.985  11.215  -5.879  0.00  0.00    +0.000 A 
ATOM      7  N3  UNL     1      17.379  11.232  -5.980  0.00  0.00    +0.000 N 
ATOM      8  C5  UNL     1      18.064  10.476  -4.924  0.00  0.00    +0.000 C 
ATOM      9  C6  UNL     1      19.598  10.598  -5.064  0.00  0.00    +0.000 C 
ATOM     10  N4  UNL     1      20.101  10.251  -6.408  0.00  0.00    +0.000 NA
ATOM     11  C7  UNL     1      19.422  11.123  -7.388  0.00  0.00    +0.000 C 
ATOM     12  C8  UNL     1      17.880  11.024  -7.345  0.00  0.00    +0.000 C 
ATOM     13  H8  UNL     1      19.831   9.287  -6.606  0.00  0.00    +0.000 HD
ENDROOT
TORSDOF 0
ENDMDL
MODEL 9
REMARK VINA RESULT:    -3.617     13.679     14.548
REMARK INTER + INTRA:          -3.617
REMARK INTER:                  -3.617
REMARK INTRA:                   0.000
REMARK UNBOUND:                 0.000
REMARK  Name = /home/anacleto/Desktop/manuscript_Mpro/naturecomm/supplementary_file_S2/6-chemical-library/molecular_docking/3D_ligand_structure/1197.pdb
REMARK  0 active torsions:
REMARK  status: ('A' for Active; 'I' for Inactive)
REMARK                            x       y       z     vdW  Elec       q    Type
REMARK                         _______ _______ _______ _____ _____    ______ ____
ROOT
ATOM      1  N1  UNL     1      16.755  13.791  -1.590  0.00  0.00    +0.000 NA
ATOM      2  C1  UNL     1      15.925  12.808  -1.986  0.00  0.00    +0.000 A 
ATOM      3  C2  UNL     1      16.234  11.476  -1.901  0.00  0.00    +0.000 A 
ATOM      4  C3  UNL     1      17.469  11.204  -1.376  0.00  0.00    +0.000 A 
ATOM      5  N2  UNL     1      18.330  12.155  -0.967  0.00  0.00    +0.000 NA
ATOM      6  C4  UNL     1      17.953  13.441  -1.086  0.00  0.00    +0.000 A 
ATOM      7  N3  UNL     1      18.842  14.446  -0.698  0.00  0.00    +0.000 N 
ATOM      8  C5  UNL     1      18.198  15.731  -0.398  0.00  0.00    +0.000 C 
ATOM      9  C6  UNL     1      19.250  16.806  -0.043  0.00  0.00    +0.000 C 
ATOM     10  N4  UNL     1      20.186  16.394   1.021  0.00  0.00    +0.000 NA
ATOM     11  C7  UNL     1      20.848  15.146   0.588  0.00  0.00    +0.000 C 
ATOM     12  C8  UNL     1      19.863  14.001   0.260  0.00  0.00    +0.000 C 
ATOM     13  H8  UNL     1      19.639  16.185   1.857  0.00  0.00    +0.000 HD
ENDROOT
TORSDOF 0
ENDMDL
