MODEL 1
REMARK VINA RESULT:    -5.080      0.000      0.000
REMARK INTER + INTRA:          -6.215
REMARK INTER:                  -5.959
REMARK INTRA:                  -0.256
REMARK UNBOUND:                -0.244
REMARK  Name = /home/anacleto/Desktop/manuscript_Mpro/naturecomm/supplementary_file_S2/6-chemical-library/molecular_docking/3D_ligand_structure/822.pdb
REMARK  3 active torsions:
REMARK  status: ('A' for Active; 'I' for Inactive)
REMARK    1  A    between atoms: C2_5  and  C3_6
REMARK    2  A    between atoms: N4_8  and  C4_9
REMARK    3  A    between atoms: C4_9  and  C5_10
REMARK                            x       y       z     vdW  Elec       q    Type
REMARK                         _______ _______ _______ _____ _____    ______ ____
ROOT
ATOM      1  C3  UNL     1     -37.827   6.598 -14.160  0.00  0.00    +0.000 C 
ATOM      2  O1  UNL     1     -37.993   6.495 -12.948  0.00  0.00    +0.000 OA
ATOM      3  N4  UNL     1     -37.411   5.541 -14.948  0.00  0.00    +0.000 N 
ATOM      4  H3  UNL     1     -37.434   5.703 -15.951  0.00  0.00    +0.000 HD
ENDROOT
BRANCH   1   9
ATOM      5  N1  UNL     1     -37.135   8.363 -15.765  0.00  0.00    +0.000 NA
ATOM      6  N2  UNL     1     -37.768   9.455 -16.227  0.00  0.00    +0.000 N 
ATOM      7  C1  UNL     1     -39.009   9.575 -15.692  0.00  0.00    +0.000 A 
ATOM      8  N3  UNL     1     -39.227   8.578 -14.871  0.00  0.00    +0.000 NA
ATOM      9  C2  UNL     1     -38.060   7.843 -14.926  0.00  0.00    +0.000 A 
ATOM     10  H1  UNL     1     -37.299  10.059 -16.893  0.00  0.00    +0.000 HD
ENDBRANCH   1   9
BRANCH   3  11
ATOM     11  C4  UNL     1     -37.305   4.209 -14.420  0.00  0.00    +0.000 C 
BRANCH  11  12
ATOM     12  C5  UNL     1     -37.986   3.215 -15.309  0.00  0.00    +0.000 A 
ATOM     13  C6  UNL     1     -37.328   2.647 -16.405  0.00  0.00    +0.000 A 
ATOM     14  C7  UNL     1     -37.997   1.736 -17.215  0.00  0.00    +0.000 A 
ATOM     15  C8  UNL     1     -39.309   1.421 -16.905  0.00  0.00    +0.000 A 
ATOM     16  N5  UNL     1     -39.980   1.951 -15.860  0.00  0.00    +0.000 NA
ATOM     17  C9  UNL     1     -39.306   2.833 -15.088  0.00  0.00    +0.000 A 
ENDBRANCH  11  12
ENDBRANCH   3  11
TORSDOF 3
ENDMDL
MODEL 2
REMARK VINA RESULT:    -4.838     28.741     29.630
REMARK INTER + INTRA:          -5.931
REMARK INTER:                  -5.637
REMARK INTRA:                  -0.294
REMARK UNBOUND:                -0.244
REMARK  Name = /home/anacleto/Desktop/manuscript_Mpro/naturecomm/supplementary_file_S2/6-chemical-library/molecular_docking/3D_ligand_structure/822.pdb
REMARK  3 active torsions:
REMARK  status: ('A' for Active; 'I' for Inactive)
REMARK    1  A    between atoms: C2_5  and  C3_6
REMARK    2  A    between atoms: N4_8  and  C4_9
REMARK    3  A    between atoms: C4_9  and  C5_10
REMARK                            x       y       z     vdW  Elec       q    Type
REMARK                         _______ _______ _______ _____ _____    ______ ____
ROOT
ATOM      1  C3  UNL     1     -19.534  10.485 -38.536  0.00  0.00    +0.000 C 
ATOM      2  O1  UNL     1     -20.196  11.344 -39.113  0.00  0.00    +0.000 OA
ATOM      3  N4  UNL     1     -20.052   9.702 -37.522  0.00  0.00    +0.000 N 
ATOM      4  H3  UNL     1     -19.459   8.938 -37.208  0.00  0.00    +0.000 HD
ENDROOT
BRANCH   1   9
ATOM      5  N1  UNL     1     -17.662   8.903 -38.937  0.00  0.00    +0.000 NA
ATOM      6  N2  UNL     1     -16.369   9.101 -39.247  0.00  0.00    +0.000 N 
ATOM      7  C1  UNL     1     -16.079  10.422 -39.349  0.00  0.00    +0.000 A 
ATOM      8  N3  UNL     1     -17.158  11.126 -39.111  0.00  0.00    +0.000 NA
ATOM      9  C2  UNL     1     -18.124  10.172 -38.856  0.00  0.00    +0.000 A 
ATOM     10  H1  UNL     1     -15.758   8.302 -39.372  0.00  0.00    +0.000 HD
ENDBRANCH   1   9
BRANCH   3  11
ATOM     11  C4  UNL     1     -21.450   9.732 -37.190  0.00  0.00    +0.000 C 
BRANCH  11  12
ATOM     12  C5  UNL     1     -22.131   8.458 -37.585  0.00  0.00    +0.000 A 
ATOM     13  C6  UNL     1     -21.426   7.255 -37.678  0.00  0.00    +0.000 A 
ATOM     14  C7  UNL     1     -22.090   6.093 -38.058  0.00  0.00    +0.000 A 
ATOM     15  C8  UNL     1     -23.443   6.173 -38.337  0.00  0.00    +0.000 A 
ATOM     16  N5  UNL     1     -24.158   7.316 -38.265  0.00  0.00    +0.000 NA
ATOM     17  C9  UNL     1     -23.488   8.430 -37.891  0.00  0.00    +0.000 A 
ENDBRANCH  11  12
ENDBRANCH   3  11
TORSDOF 3
ENDMDL
MODEL 3
REMARK VINA RESULT:    -4.812     25.816     26.597
REMARK INTER + INTRA:          -5.900
REMARK INTER:                  -5.660
REMARK INTRA:                  -0.240
REMARK UNBOUND:                -0.244
REMARK  Name = /home/anacleto/Desktop/manuscript_Mpro/naturecomm/supplementary_file_S2/6-chemical-library/molecular_docking/3D_ligand_structure/822.pdb
REMARK  3 active torsions:
REMARK  status: ('A' for Active; 'I' for Inactive)
REMARK    1  A    between atoms: C2_5  and  C3_6
REMARK    2  A    between atoms: N4_8  and  C4_9
REMARK    3  A    between atoms: C4_9  and  C5_10
REMARK                            x       y       z     vdW  Elec       q    Type
REMARK                         _______ _______ _______ _____ _____    ______ ____
ROOT
ATOM      1  C3  UNL     1     -22.961   6.871 -38.224  0.00  0.00    +0.000 C 
ATOM      2  O1  UNL     1     -21.898   6.307 -38.467  0.00  0.00    +0.000 OA
ATOM      3  N4  UNL     1     -24.188   6.262 -38.412  0.00  0.00    +0.000 N 
ATOM      4  H3  UNL     1     -24.993   6.770 -38.056  0.00  0.00    +0.000 HD
ENDROOT
BRANCH   1   9
ATOM      5  N1  UNL     1     -24.240   8.920 -37.642  0.00  0.00    +0.000 NA
ATOM      6  N2  UNL     1     -23.864  10.088 -37.096  0.00  0.00    +0.000 N 
ATOM      7  C1  UNL     1     -22.534  10.108 -36.831  0.00  0.00    +0.000 A 
ATOM      8  N3  UNL     1     -22.000   8.967 -37.191  0.00  0.00    +0.000 NA
ATOM      9  C2  UNL     1     -23.067   8.248 -37.692  0.00  0.00    +0.000 A 
ATOM     10  H1  UNL     1     -24.557  10.811 -36.937  0.00  0.00    +0.000 HD
ENDBRANCH   1   9
BRANCH   3  11
ATOM     11  C4  UNL     1     -24.289   4.869 -38.752  0.00  0.00    +0.000 C 
BRANCH  11  12
ATOM     12  C5  UNL     1     -25.708   4.394 -38.685  0.00  0.00    +0.000 A 
ATOM     13  C6  UNL     1     -26.021   3.091 -38.289  0.00  0.00    +0.000 A 
ATOM     14  C7  UNL     1     -27.350   2.682 -38.250  0.00  0.00    +0.000 A 
ATOM     15  C8  UNL     1     -28.328   3.592 -38.612  0.00  0.00    +0.000 A 
ATOM     16  N5  UNL     1     -28.066   4.857 -39.005  0.00  0.00    +0.000 NA
ATOM     17  C9  UNL     1     -26.765   5.229 -39.032  0.00  0.00    +0.000 A 
ENDBRANCH  11  12
ENDBRANCH   3  11
TORSDOF 3
ENDMDL
MODEL 4
REMARK VINA RESULT:    -4.712     26.087     27.074
REMARK INTER + INTRA:          -5.782
REMARK INTER:                  -5.517
REMARK INTRA:                  -0.265
REMARK UNBOUND:                -0.244
REMARK  Name = /home/anacleto/Desktop/manuscript_Mpro/naturecomm/supplementary_file_S2/6-chemical-library/molecular_docking/3D_ligand_structure/822.pdb
REMARK  3 active torsions:
REMARK  status: ('A' for Active; 'I' for Inactive)
REMARK    1  A    between atoms: C2_5  and  C3_6
REMARK    2  A    between atoms: N4_8  and  C4_9
REMARK    3  A    between atoms: C4_9  and  C5_10
REMARK                            x       y       z     vdW  Elec       q    Type
REMARK                         _______ _______ _______ _____ _____    ______ ____
ROOT
ATOM      1  C3  UNL     1     -23.917   7.345 -38.343  0.00  0.00    +0.000 C 
ATOM      2  O1  UNL     1     -24.629   8.185 -37.799  0.00  0.00    +0.000 OA
ATOM      3  N4  UNL     1     -24.435   6.276 -39.050  0.00  0.00    +0.000 N 
ATOM      4  H3  UNL     1     -23.760   5.720 -39.567  0.00  0.00    +0.000 HD
ENDROOT
BRANCH   1   9
ATOM      5  N1  UNL     1     -21.689   6.248 -38.345  0.00  0.00    +0.000 NA
ATOM      6  N2  UNL     1     -20.442   6.748 -38.326  0.00  0.00    +0.000 N 
ATOM      7  C1  UNL     1     -20.450   8.104 -38.301  0.00  0.00    +0.000 A 
ATOM      8  N3  UNL     1     -21.688   8.533 -38.302  0.00  0.00    +0.000 NA
ATOM      9  C2  UNL     1     -22.438   7.374 -38.326  0.00  0.00    +0.000 A 
ATOM     10  H1  UNL     1     -19.650   6.115 -38.332  0.00  0.00    +0.000 HD
ENDBRANCH   1   9
BRANCH   3  11
ATOM     11  C4  UNL     1     -25.841   6.173 -39.330  0.00  0.00    +0.000 C 
BRANCH  11  12
ATOM     12  C5  UNL     1     -26.383   4.840 -38.913  0.00  0.00    +0.000 A 
ATOM     13  C6  UNL     1     -25.534   3.760 -38.648  0.00  0.00    +0.000 A 
ATOM     14  C7  UNL     1     -26.074   2.534 -38.274  0.00  0.00    +0.000 A 
ATOM     15  C8  UNL     1     -27.450   2.424 -38.180  0.00  0.00    +0.000 A 
ATOM     16  N5  UNL     1     -28.303   3.441 -38.433  0.00  0.00    +0.000 NA
ATOM     17  C9  UNL     1     -27.751   4.622 -38.793  0.00  0.00    +0.000 A 
ENDBRANCH  11  12
ENDBRANCH   3  11
TORSDOF 3
ENDMDL
MODEL 5
REMARK VINA RESULT:    -4.695     21.482     23.113
REMARK INTER + INTRA:          -5.763
REMARK INTER:                  -5.457
REMARK INTRA:                  -0.306
REMARK UNBOUND:                -0.244
REMARK  Name = /home/anacleto/Desktop/manuscript_Mpro/naturecomm/supplementary_file_S2/6-chemical-library/molecular_docking/3D_ligand_structure/822.pdb
REMARK  3 active torsions:
REMARK  status: ('A' for Active; 'I' for Inactive)
REMARK    1  A    between atoms: C2_5  and  C3_6
REMARK    2  A    between atoms: N4_8  and  C4_9
REMARK    3  A    between atoms: C4_9  and  C5_10
REMARK                            x       y       z     vdW  Elec       q    Type
REMARK                         _______ _______ _______ _____ _____    ______ ____
ROOT
ATOM      1  C3  UNL     1     -19.669  -4.833 -26.778  0.00  0.00    +0.000 C 
ATOM      2  O1  UNL     1     -19.224  -4.852 -27.923  0.00  0.00    +0.000 OA
ATOM      3  N4  UNL     1     -20.927  -5.310 -26.460  0.00  0.00    +0.000 N 
ATOM      4  H3  UNL     1     -21.140  -5.366 -25.468  0.00  0.00    +0.000 HD
ENDROOT
BRANCH   1   9
ATOM      5  N1  UNL     1     -19.505  -4.140 -24.399  0.00  0.00    +0.000 NA
ATOM      6  N2  UNL     1     -18.476  -3.680 -23.667  0.00  0.00    +0.000 N 
ATOM      7  C1  UNL     1     -17.340  -3.594 -24.403  0.00  0.00    +0.000 A 
ATOM      8  N3  UNL     1     -17.583  -3.990 -25.628  0.00  0.00    +0.000 NA
ATOM      9  C2  UNL     1     -18.924  -4.319 -25.608  0.00  0.00    +0.000 A 
ATOM     10  H1  UNL     1     -18.622  -3.450 -22.690  0.00  0.00    +0.000 HD
ENDBRANCH   1   9
BRANCH   3  11
ATOM     11  C4  UNL     1     -21.731  -6.009 -27.425  0.00  0.00    +0.000 C 
BRANCH  11  12
ATOM     12  C5  UNL     1     -22.950  -5.220 -27.792  0.00  0.00    +0.000 A 
ATOM     13  C6  UNL     1     -22.885  -4.162 -28.704  0.00  0.00    +0.000 A 
ATOM     14  C7  UNL     1     -24.037  -3.445 -29.012  0.00  0.00    +0.000 A 
ATOM     15  C8  UNL     1     -25.221  -3.808 -28.393  0.00  0.00    +0.000 A 
ATOM     16  N5  UNL     1     -25.323  -4.819 -27.504  0.00  0.00    +0.000 NA
ATOM     17  C9  UNL     1     -24.189  -5.501 -27.224  0.00  0.00    +0.000 A 
ENDBRANCH  11  12
ENDBRANCH   3  11
TORSDOF 3
ENDMDL
MODEL 6
REMARK VINA RESULT:    -4.614     26.257     27.509
REMARK INTER + INTRA:          -5.667
REMARK INTER:                  -5.423
REMARK INTRA:                  -0.244
REMARK UNBOUND:                -0.244
REMARK  Name = /home/anacleto/Desktop/manuscript_Mpro/naturecomm/supplementary_file_S2/6-chemical-library/molecular_docking/3D_ligand_structure/822.pdb
REMARK  3 active torsions:
REMARK  status: ('A' for Active; 'I' for Inactive)
REMARK    1  A    between atoms: C2_5  and  C3_6
REMARK    2  A    between atoms: N4_8  and  C4_9
REMARK    3  A    between atoms: C4_9  and  C5_10
REMARK                            x       y       z     vdW  Elec       q    Type
REMARK                         _______ _______ _______ _____ _____    ______ ____
ROOT
ATOM      1  C3  UNL     1     -24.548   4.732 -39.500  0.00  0.00    +0.000 C 
ATOM      2  O1  UNL     1     -24.324   4.694 -40.707  0.00  0.00    +0.000 OA
ATOM      3  N4  UNL     1     -23.778   5.469 -38.621  0.00  0.00    +0.000 N 
ATOM      4  H3  UNL     1     -24.131   5.534 -37.670  0.00  0.00    +0.000 HD
ENDROOT
BRANCH   1   9
ATOM      5  N1  UNL     1     -26.885   4.573 -38.674  0.00  0.00    +0.000 NA
ATOM      6  N2  UNL     1     -27.554   3.585 -38.056  0.00  0.00    +0.000 N 
ATOM      7  C1  UNL     1     -26.771   2.494 -37.870  0.00  0.00    +0.000 A 
ATOM      8  N3  UNL     1     -25.575   2.728 -38.353  0.00  0.00    +0.000 NA
ATOM      9  C2  UNL     1     -25.664   4.016 -38.842  0.00  0.00    +0.000 A 
ATOM     10  H1  UNL     1     -28.525   3.725 -37.797  0.00  0.00    +0.000 HD
ENDBRANCH   1   9
BRANCH   3  11
ATOM     11  C4  UNL     1     -22.761   6.371 -39.091  0.00  0.00    +0.000 C 
BRANCH  11  12
ATOM     12  C5  UNL     1     -22.693   7.604 -38.243  0.00  0.00    +0.000 A 
ATOM     13  C6  UNL     1     -21.508   7.985 -37.605  0.00  0.00    +0.000 A 
ATOM     14  C7  UNL     1     -21.486   9.130 -36.817  0.00  0.00    +0.000 A 
ATOM     15  C8  UNL     1     -22.655   9.860 -36.687  0.00  0.00    +0.000 A 
ATOM     16  N5  UNL     1     -23.820   9.523 -37.282  0.00  0.00    +0.000 NA
ATOM     17  C9  UNL     1     -23.813   8.405 -38.044  0.00  0.00    +0.000 A 
ENDBRANCH  11  12
ENDBRANCH   3  11
TORSDOF 3
ENDMDL
MODEL 7
REMARK VINA RESULT:    -4.600     21.121     22.759
REMARK INTER + INTRA:          -5.651
REMARK INTER:                  -5.417
REMARK INTRA:                  -0.235
REMARK UNBOUND:                -0.244
REMARK  Name = /home/anacleto/Desktop/manuscript_Mpro/naturecomm/supplementary_file_S2/6-chemical-library/molecular_docking/3D_ligand_structure/822.pdb
REMARK  3 active torsions:
REMARK  status: ('A' for Active; 'I' for Inactive)
REMARK    1  A    between atoms: C2_5  and  C3_6
REMARK    2  A    between atoms: N4_8  and  C4_9
REMARK    3  A    between atoms: C4_9  and  C5_10
REMARK                            x       y       z     vdW  Elec       q    Type
REMARK                         _______ _______ _______ _____ _____    ______ ____
ROOT
ATOM      1  C3  UNL     1     -20.183  -4.218 -28.083  0.00  0.00    +0.000 C 
ATOM      2  O1  UNL     1     -19.862  -4.470 -29.241  0.00  0.00    +0.000 OA
ATOM      3  N4  UNL     1     -21.498  -4.040 -27.697  0.00  0.00    +0.000 N 
ATOM      4  H3  UNL     1     -21.659  -3.968 -26.696  0.00  0.00    +0.000 HD
ENDROOT
BRANCH   1   9
ATOM      5  N1  UNL     1     -18.154  -3.263 -27.016  0.00  0.00    +0.000 NA
ATOM      6  N2  UNL     1     -17.590  -3.468 -25.814  0.00  0.00    +0.000 N 
ATOM      7  C1  UNL     1     -18.290  -4.370 -25.083  0.00  0.00    +0.000 A 
ATOM      8  N3  UNL     1     -19.325  -4.782 -25.774  0.00  0.00    +0.000 NA
ATOM      9  C2  UNL     1     -19.222  -4.091 -26.965  0.00  0.00    +0.000 A 
ATOM     10  H1  UNL     1     -16.744  -2.966 -25.567  0.00  0.00    +0.000 HD
ENDBRANCH   1   9
BRANCH   3  11
ATOM     11  C4  UNL     1     -22.587  -4.300 -28.599  0.00  0.00    +0.000 C 
BRANCH  11  12
ATOM     12  C5  UNL     1     -23.910  -4.090 -27.930  0.00  0.00    +0.000 A 
ATOM     13  C6  UNL     1     -24.043  -4.163 -26.540  0.00  0.00    +0.000 A 
ATOM     14  C7  UNL     1     -25.291  -3.974 -25.955  0.00  0.00    +0.000 A 
ATOM     15  C8  UNL     1     -26.371  -3.721 -26.782  0.00  0.00    +0.000 A 
ATOM     16  N5  UNL     1     -26.286  -3.648 -28.128  0.00  0.00    +0.000 NA
ATOM     17  C9  UNL     1     -25.060  -3.834 -28.670  0.00  0.00    +0.000 A 
ENDBRANCH  11  12
ENDBRANCH   3  11
TORSDOF 3
ENDMDL
MODEL 8
REMARK VINA RESULT:    -4.544     20.295     22.039
REMARK INTER + INTRA:          -5.585
REMARK INTER:                  -5.334
REMARK INTRA:                  -0.251
REMARK UNBOUND:                -0.244
REMARK  Name = /home/anacleto/Desktop/manuscript_Mpro/naturecomm/supplementary_file_S2/6-chemical-library/molecular_docking/3D_ligand_structure/822.pdb
REMARK  3 active torsions:
REMARK  status: ('A' for Active; 'I' for Inactive)
REMARK    1  A    between atoms: C2_5  and  C3_6
REMARK    2  A    between atoms: N4_8  and  C4_9
REMARK    3  A    between atoms: C4_9  and  C5_10
REMARK                            x       y       z     vdW  Elec       q    Type
REMARK                         _______ _______ _______ _____ _____    ______ ____
ROOT
ATOM      1  C3  UNL     1     -22.039  -4.396 -28.638  0.00  0.00    +0.000 C 
ATOM      2  O1  UNL     1     -22.110  -5.090 -29.649  0.00  0.00    +0.000 OA
ATOM      3  N4  UNL     1     -23.003  -3.463 -28.306  0.00  0.00    +0.000 N 
ATOM      4  H3  UNL     1     -22.912  -3.042 -27.385  0.00  0.00    +0.000 HD
ENDROOT
BRANCH   1   9
ATOM      5  N1  UNL     1     -21.141  -4.864 -26.370  0.00  0.00    +0.000 NA
ATOM      6  N2  UNL     1     -19.897  -4.796 -25.865  0.00  0.00    +0.000 N 
ATOM      7  C1  UNL     1     -19.001  -4.395 -26.801  0.00  0.00    +0.000 A 
ATOM      8  N3  UNL     1     -19.620  -4.188 -27.937  0.00  0.00    +0.000 NA
ATOM      9  C2  UNL     1     -20.940  -4.479 -27.651  0.00  0.00    +0.000 A 
ATOM     10  H1  UNL     1     -19.740  -5.035 -24.892  0.00  0.00    +0.000 HD
ENDBRANCH   1   9
BRANCH   3  11
ATOM     11  C4  UNL     1     -24.234  -3.362 -29.042  0.00  0.00    +0.000 C 
BRANCH  11  12
ATOM     12  C5  UNL     1     -25.403  -3.792 -28.211  0.00  0.00    +0.000 A 
ATOM     13  C6  UNL     1     -26.707  -3.402 -28.531  0.00  0.00    +0.000 A 
ATOM     14  C7  UNL     1     -27.767  -3.812 -27.729  0.00  0.00    +0.000 A 
ATOM     15  C8  UNL     1     -27.488  -4.600 -26.626  0.00  0.00    +0.000 A 
ATOM     16  N5  UNL     1     -26.243  -4.994 -26.281  0.00  0.00    +0.000 NA
ATOM     17  C9  UNL     1     -25.231  -4.582 -27.079  0.00  0.00    +0.000 A 
ENDBRANCH  11  12
ENDBRANCH   3  11
TORSDOF 3
ENDMDL
MODEL 9
REMARK VINA RESULT:    -4.522     19.716     21.615
REMARK INTER + INTRA:          -5.559
REMARK INTER:                  -5.315
REMARK INTRA:                  -0.244
REMARK UNBOUND:                -0.244
REMARK  Name = /home/anacleto/Desktop/manuscript_Mpro/naturecomm/supplementary_file_S2/6-chemical-library/molecular_docking/3D_ligand_structure/822.pdb
REMARK  3 active torsions:
REMARK  status: ('A' for Active; 'I' for Inactive)
REMARK    1  A    between atoms: C2_5  and  C3_6
REMARK    2  A    between atoms: N4_8  and  C4_9
REMARK    3  A    between atoms: C4_9  and  C5_10
REMARK                            x       y       z     vdW  Elec       q    Type
REMARK                         _______ _______ _______ _____ _____    ______ ____
ROOT
ATOM      1  C3  UNL     1     -25.439  -4.699 -28.461  0.00  0.00    +0.000 C 
ATOM      2  O1  UNL     1     -25.141  -5.483 -29.359  0.00  0.00    +0.000 OA
ATOM      3  N4  UNL     1     -24.608  -3.666 -28.069  0.00  0.00    +0.000 N 
ATOM      4  H3  UNL     1     -25.009  -3.003 -27.411  0.00  0.00    +0.000 HD
ENDROOT
BRANCH   1   9
ATOM      5  N1  UNL     1     -27.752  -3.932 -27.985  0.00  0.00    +0.000 NA
ATOM      6  N2  UNL     1     -28.661  -4.327 -27.078  0.00  0.00    +0.000 N 
ATOM      7  C1  UNL     1     -28.183  -5.330 -26.300  0.00  0.00    +0.000 A 
ATOM      8  N3  UNL     1     -26.960  -5.623 -26.667  0.00  0.00    +0.000 NA
ATOM      9  C2  UNL     1     -26.710  -4.748 -27.706  0.00  0.00    +0.000 A 
ATOM     10  H1  UNL     1     -29.568  -3.874 -27.049  0.00  0.00    +0.000 HD
ENDBRANCH   1   9
BRANCH   3  11
ATOM     11  C4  UNL     1     -23.412  -3.347 -28.800  0.00  0.00    +0.000 C 
BRANCH  11  12
ATOM     12  C5  UNL     1     -22.189  -3.823 -28.078  0.00  0.00    +0.000 A 
ATOM     13  C6  UNL     1     -20.915  -3.688 -28.637  0.00  0.00    +0.000 A 
ATOM     14  C7  UNL     1     -19.803  -4.153 -27.942  0.00  0.00    +0.000 A 
ATOM     15  C8  UNL     1     -20.002  -4.743 -26.706  0.00  0.00    +0.000 A 
ATOM     16  N5  UNL     1     -21.216  -4.896 -26.134  0.00  0.00    +0.000 NA
ATOM     17  C9  UNL     1     -22.279  -4.434 -26.831  0.00  0.00    +0.000 A 
ENDBRANCH  11  12
ENDBRANCH   3  11
TORSDOF 3
ENDMDL
