MODEL 1
REMARK VINA RESULT:    -4.533      0.000      0.000
REMARK INTER + INTRA:          -5.496
REMARK INTER:                  -5.102
REMARK INTRA:                  -0.394
REMARK UNBOUND:                -0.433
REMARK  Name = /home/anacleto/Desktop/manuscript_Mpro/naturecomm/supplementary_file_S2/6-chemical-library/molecular_docking/3D_ligand_structure/1187.pdb
REMARK  2 active torsions:
REMARK  status: ('A' for Active; 'I' for Inactive)
REMARK    1  A    between atoms: C2_5  and  C3_6
REMARK    2  A    between atoms: C3_6  and  C4_7
REMARK                            x       y       z     vdW  Elec       q    Type
REMARK                         _______ _______ _______ _____ _____    ______ ____
ROOT
ATOM      1  C3  UNL     1      15.565  13.384  -4.827  0.00  0.00    +0.000 C 
ENDROOT
BRANCH   1   2
ATOM      2  C4  UNL     1      15.275  14.437  -3.732  0.00  0.00    +0.000 C 
ATOM      3  C5  UNL     1      15.871  14.044  -2.372  0.00  0.00    +0.000 C 
ATOM      4  C6  UNL     1      15.713  15.168  -1.347  0.00  0.00    +0.000 C 
ATOM      5  C7  UNL     1      14.443  15.987  -1.569  0.00  0.00    +0.000 C 
ATOM      6  C8  UNL     1      13.387  15.189  -2.325  0.00  0.00    +0.000 C 
ATOM      7  N4  UNL     1      13.841  14.776  -3.654  0.00  0.00    +0.000 NA
ATOM      8  H14 UNL     1      13.279  13.972  -3.951  0.00  0.00    +0.000 HD
ENDBRANCH   1   2
BRANCH   1  13
ATOM      9  N1  UNL     1      13.485  12.234  -5.573  0.00  0.00    +0.000 NA
ATOM     10  N2  UNL     1      12.856  11.083  -5.386  0.00  0.00    +0.000 NA
ATOM     11  N3  UNL     1      13.604  10.347  -4.552  0.00  0.00    +0.000 N 
ATOM     12  C1  UNL     1      14.730  11.013  -4.174  0.00  0.00    +0.000 A 
ATOM     13  C2  UNL     1      14.638  12.220  -4.832  0.00  0.00    +0.000 A 
ATOM     14  H1  UNL     1      13.281   9.422  -4.296  0.00  0.00    +0.000 HD
ENDBRANCH   1  13
TORSDOF 2
ENDMDL
MODEL 2
REMARK VINA RESULT:    -4.330      2.122      5.033
REMARK INTER + INTRA:          -5.270
REMARK INTER:                  -5.120
REMARK INTRA:                  -0.149
REMARK UNBOUND:                -0.433
REMARK  Name = /home/anacleto/Desktop/manuscript_Mpro/naturecomm/supplementary_file_S2/6-chemical-library/molecular_docking/3D_ligand_structure/1187.pdb
REMARK  2 active torsions:
REMARK  status: ('A' for Active; 'I' for Inactive)
REMARK    1  A    between atoms: C2_5  and  C3_6
REMARK    2  A    between atoms: C3_6  and  C4_7
REMARK                            x       y       z     vdW  Elec       q    Type
REMARK                         _______ _______ _______ _____ _____    ______ ____
ROOT
ATOM      1  C3  UNL     1      14.922  15.504  -2.127  0.00  0.00    +0.000 C 
ENDROOT
BRANCH   1   2
ATOM      2  C4  UNL     1      14.572  14.194  -2.870  0.00  0.00    +0.000 C 
ATOM      3  C5  UNL     1      15.614  13.091  -2.629  0.00  0.00    +0.000 C 
ATOM      4  C6  UNL     1      15.169  11.761  -3.239  0.00  0.00    +0.000 C 
ATOM      5  C7  UNL     1      14.334  11.948  -4.505  0.00  0.00    +0.000 C 
ATOM      6  C8  UNL     1      14.619  13.289  -5.170  0.00  0.00    +0.000 C 
ATOM      7  N4  UNL     1      14.301  14.424  -4.303  0.00  0.00    +0.000 NA
ATOM      8  H14 UNL     1      14.832  15.238  -4.629  0.00  0.00    +0.000 HD
ENDBRANCH   1   2
BRANCH   1  13
ATOM      9  N1  UNL     1      12.763  15.975  -0.977  0.00  0.00    +0.000 NA
ATOM     10  N2  UNL     1      11.859  16.941  -0.902  0.00  0.00    +0.000 NA
ATOM     11  N3  UNL     1      12.279  17.946  -1.682  0.00  0.00    +0.000 N 
ATOM     12  C1  UNL     1      13.462  17.646  -2.287  0.00  0.00    +0.000 A 
ATOM     13  C2  UNL     1      13.757  16.381  -1.829  0.00  0.00    +0.000 A 
ATOM     14  H1  UNL     1      11.712  18.783  -1.745  0.00  0.00    +0.000 HD
ENDBRANCH   1  13
TORSDOF 2
ENDMDL
MODEL 3
REMARK VINA RESULT:    -4.239      2.179      2.946
REMARK INTER + INTRA:          -5.168
REMARK INTER:                  -4.783
REMARK INTRA:                  -0.384
REMARK UNBOUND:                -0.433
REMARK  Name = /home/anacleto/Desktop/manuscript_Mpro/naturecomm/supplementary_file_S2/6-chemical-library/molecular_docking/3D_ligand_structure/1187.pdb
REMARK  2 active torsions:
REMARK  status: ('A' for Active; 'I' for Inactive)
REMARK    1  A    between atoms: C2_5  and  C3_6
REMARK    2  A    between atoms: C3_6  and  C4_7
REMARK                            x       y       z     vdW  Elec       q    Type
REMARK                         _______ _______ _______ _____ _____    ______ ____
ROOT
ATOM      1  C3  UNL     1      14.413  13.218  -4.779  0.00  0.00    +0.000 C 
ENDROOT
BRANCH   1   2
ATOM      2  C4  UNL     1      14.875  12.600  -3.439  0.00  0.00    +0.000 C 
ATOM      3  C5  UNL     1      16.157  13.258  -2.905  0.00  0.00    +0.000 C 
ATOM      4  C6  UNL     1      16.506  12.745  -1.507  0.00  0.00    +0.000 C 
ATOM      5  C7  UNL     1      16.085  11.292  -1.295  0.00  0.00    +0.000 C 
ATOM      6  C8  UNL     1      15.973  10.543  -2.618  0.00  0.00    +0.000 C 
ATOM      7  N4  UNL     1      14.972  11.129  -3.510  0.00  0.00    +0.000 NA
ATOM      8  H14 UNL     1      15.189  10.843  -4.471  0.00  0.00    +0.000 HD
ENDBRANCH   1   2
BRANCH   1  13
ATOM      9  N1  UNL     1      13.062  11.424  -5.857  0.00  0.00    +0.000 NA
ATOM     10  N2  UNL     1      13.102  10.650  -6.931  0.00  0.00    +0.000 NA
ATOM     11  N3  UNL     1      14.207  10.972  -7.618  0.00  0.00    +0.000 N 
ATOM     12  C1  UNL     1      14.911  11.957  -6.994  0.00  0.00    +0.000 A 
ATOM     13  C2  UNL     1      14.168  12.233  -5.867  0.00  0.00    +0.000 A 
ATOM     14  H1  UNL     1      14.404  10.482  -8.482  0.00  0.00    +0.000 HD
ENDBRANCH   1  13
TORSDOF 2
ENDMDL
MODEL 4
REMARK VINA RESULT:    -4.144      2.918      3.426
REMARK INTER + INTRA:          -5.062
REMARK INTER:                  -4.681
REMARK INTRA:                  -0.380
REMARK UNBOUND:                -0.433
REMARK  Name = /home/anacleto/Desktop/manuscript_Mpro/naturecomm/supplementary_file_S2/6-chemical-library/molecular_docking/3D_ligand_structure/1187.pdb
REMARK  2 active torsions:
REMARK  status: ('A' for Active; 'I' for Inactive)
REMARK    1  A    between atoms: C2_5  and  C3_6
REMARK    2  A    between atoms: C3_6  and  C4_7
REMARK                            x       y       z     vdW  Elec       q    Type
REMARK                         _______ _______ _______ _____ _____    ______ ____
ROOT
ATOM      1  C3  UNL     1      15.961  10.987  -5.056  0.00  0.00    +0.000 C 
ENDROOT
BRANCH   1   2
ATOM      2  C4  UNL     1      16.464  11.347  -3.639  0.00  0.00    +0.000 C 
ATOM      3  C5  UNL     1      17.652  10.475  -3.202  0.00  0.00    +0.000 C 
ATOM      4  C6  UNL     1      18.234  10.952  -1.871  0.00  0.00    +0.000 C 
ATOM      5  C7  UNL     1      17.173  11.553  -0.950  0.00  0.00    +0.000 C 
ATOM      6  C8  UNL     1      15.782  11.030  -1.284  0.00  0.00    +0.000 C 
ATOM      7  N4  UNL     1      15.370  11.363  -2.649  0.00  0.00    +0.000 NA
ATOM      8  H14 UNL     1      14.636  10.706  -2.934  0.00  0.00    +0.000 HD
ENDBRANCH   1   2
BRANCH   1  13
ATOM      9  N1  UNL     1      13.539  10.407  -5.027  0.00  0.00    +0.000 NA
ATOM     10  N2  UNL     1      12.376  10.951  -5.355  0.00  0.00    +0.000 NA
ATOM     11  N3  UNL     1      12.626  12.182  -5.823  0.00  0.00    +0.000 N 
ATOM     12  C1  UNL     1      13.960  12.456  -5.818  0.00  0.00    +0.000 A 
ATOM     13  C2  UNL     1      14.531  11.310  -5.310  0.00  0.00    +0.000 A 
ATOM     14  H1  UNL     1      11.847  12.757  -6.120  0.00  0.00    +0.000 HD
ENDBRANCH   1  13
TORSDOF 2
ENDMDL
MODEL 5
REMARK VINA RESULT:    -4.121     16.586     17.731
REMARK INTER + INTRA:          -5.036
REMARK INTER:                  -4.704
REMARK INTRA:                  -0.332
REMARK UNBOUND:                -0.433
REMARK  Name = /home/anacleto/Desktop/manuscript_Mpro/naturecomm/supplementary_file_S2/6-chemical-library/molecular_docking/3D_ligand_structure/1187.pdb
REMARK  2 active torsions:
REMARK  status: ('A' for Active; 'I' for Inactive)
REMARK    1  A    between atoms: C2_5  and  C3_6
REMARK    2  A    between atoms: C3_6  and  C4_7
REMARK                            x       y       z     vdW  Elec       q    Type
REMARK                         _______ _______ _______ _____ _____    ______ ____
ROOT
ATOM      1  C3  UNL     1      20.119   6.328  12.340  0.00  0.00    +0.000 C 
ENDROOT
BRANCH   1   2
ATOM      2  C4  UNL     1      19.714   6.289  10.848  0.00  0.00    +0.000 C 
ATOM      3  C5  UNL     1      20.648   5.399  10.013  0.00  0.00    +0.000 C 
ATOM      4  C6  UNL     1      20.138   5.248   8.579  0.00  0.00    +0.000 C 
ATOM      5  C7  UNL     1      19.402   6.492   8.085  0.00  0.00    +0.000 C 
ATOM      6  C8  UNL     1      19.835   7.738   8.849  0.00  0.00    +0.000 C 
ATOM      7  N4  UNL     1      19.554   7.643  10.282  0.00  0.00    +0.000 NA
ATOM      8  H14 UNL     1      20.168   8.299  10.776  0.00  0.00    +0.000 HD
ENDBRANCH   1   2
BRANCH   1  13
ATOM      9  N1  UNL     1      17.874   7.110  13.083  0.00  0.00    +0.000 NA
ATOM     10  N2  UNL     1      17.347   7.950  13.962  0.00  0.00    +0.000 NA
ATOM     11  N3  UNL     1      18.360   8.513  14.636  0.00  0.00    +0.000 N 
ATOM     12  C1  UNL     1      19.566   8.055  14.198  0.00  0.00    +0.000 A 
ATOM     13  C2  UNL     1      19.239   7.160  13.203  0.00  0.00    +0.000 A 
ATOM     14  H1  UNL     1      18.147   9.187  15.362  0.00  0.00    +0.000 HD
ENDBRANCH   1  13
TORSDOF 2
ENDMDL
MODEL 6
REMARK VINA RESULT:    -4.107     16.071     17.124
REMARK INTER + INTRA:          -5.020
REMARK INTER:                  -4.652
REMARK INTRA:                  -0.368
REMARK UNBOUND:                -0.433
REMARK  Name = /home/anacleto/Desktop/manuscript_Mpro/naturecomm/supplementary_file_S2/6-chemical-library/molecular_docking/3D_ligand_structure/1187.pdb
REMARK  2 active torsions:
REMARK  status: ('A' for Active; 'I' for Inactive)
REMARK    1  A    between atoms: C2_5  and  C3_6
REMARK    2  A    between atoms: C3_6  and  C4_7
REMARK                            x       y       z     vdW  Elec       q    Type
REMARK                         _______ _______ _______ _____ _____    ______ ____
ROOT
ATOM      1  C3  UNL     1      20.344   7.028  11.117  0.00  0.00    +0.000 C 
ENDROOT
BRANCH   1   2
ATOM      2  C4  UNL     1      19.371   7.496  12.223  0.00  0.00    +0.000 C 
ATOM      3  C5  UNL     1      20.056   7.610  13.594  0.00  0.00    +0.000 C 
ATOM      4  C6  UNL     1      19.121   8.226  14.636  0.00  0.00    +0.000 C 
ATOM      5  C7  UNL     1      17.655   7.869  14.390  0.00  0.00    +0.000 C 
ATOM      6  C8  UNL     1      17.520   6.583  13.584  0.00  0.00    +0.000 C 
ATOM      7  N4  UNL     1      18.141   6.681  12.263  0.00  0.00    +0.000 NA
ATOM      8  H14 UNL     1      18.345   5.732  11.931  0.00  0.00    +0.000 HD
ENDBRANCH   1   2
BRANCH   1  13
ATOM      9  N1  UNL     1      19.252   5.351   9.634  0.00  0.00    +0.000 NA
ATOM     10  N2  UNL     1      18.723   5.282   8.421  0.00  0.00    +0.000 NA
ATOM     11  N3  UNL     1      18.813   6.502   7.873  0.00  0.00    +0.000 N 
ATOM     12  C1  UNL     1      19.413   7.385   8.720  0.00  0.00    +0.000 A 
ATOM     13  C2  UNL     1      19.691   6.633   9.840  0.00  0.00    +0.000 A 
ATOM     14  H1  UNL     1      18.450   6.644   6.938  0.00  0.00    +0.000 HD
ENDBRANCH   1  13
TORSDOF 2
ENDMDL
MODEL 7
REMARK VINA RESULT:    -3.896     17.097     18.422
REMARK INTER + INTRA:          -4.785
REMARK INTER:                  -4.629
REMARK INTRA:                  -0.156
REMARK UNBOUND:                -0.433
REMARK  Name = /home/anacleto/Desktop/manuscript_Mpro/naturecomm/supplementary_file_S2/6-chemical-library/molecular_docking/3D_ligand_structure/1187.pdb
REMARK  2 active torsions:
REMARK  status: ('A' for Active; 'I' for Inactive)
REMARK    1  A    between atoms: C2_5  and  C3_6
REMARK    2  A    between atoms: C3_6  and  C4_7
REMARK                            x       y       z     vdW  Elec       q    Type
REMARK                         _______ _______ _______ _____ _____    ______ ____
ROOT
ATOM      1  C3  UNL     1      23.969  16.480  10.301  0.00  0.00    +0.000 C 
ENDROOT
BRANCH   1   2
ATOM      2  C4  UNL     1      25.044  15.382  10.131  0.00  0.00    +0.000 C 
ATOM      3  C5  UNL     1      26.312  15.675  10.949  0.00  0.00    +0.000 C 
ATOM      4  C6  UNL     1      27.294  14.504  10.894  0.00  0.00    +0.000 C 
ATOM      5  C7  UNL     1      27.235  13.753   9.565  0.00  0.00    +0.000 C 
ATOM      6  C8  UNL     1      26.692  14.635   8.447  0.00  0.00    +0.000 C 
ATOM      7  N4  UNL     1      25.330  15.100   8.711  0.00  0.00    +0.000 NA
ATOM      8  H14 UNL     1      25.162  15.942   8.151  0.00  0.00    +0.000 HD
ENDBRANCH   1   2
BRANCH   1  13
ATOM      9  N1  UNL     1      22.841  15.182  12.103  0.00  0.00    +0.000 NA
ATOM     10  N2  UNL     1      22.147  15.401  13.210  0.00  0.00    +0.000 NA
ATOM     11  N3  UNL     1      22.064  16.729  13.375  0.00  0.00    +0.000 N 
ATOM     12  C1  UNL     1      22.696  17.397  12.370  0.00  0.00    +0.000 A 
ATOM     13  C2  UNL     1      23.185  16.394  11.562  0.00  0.00    +0.000 A 
ATOM     14  H1  UNL     1      21.569  17.089  14.182  0.00  0.00    +0.000 HD
ENDBRANCH   1  13
TORSDOF 2
ENDMDL
MODEL 8
REMARK VINA RESULT:    -3.807      4.211      5.617
REMARK INTER + INTRA:          -4.686
REMARK INTER:                  -4.547
REMARK INTRA:                  -0.139
REMARK UNBOUND:                -0.433
REMARK  Name = /home/anacleto/Desktop/manuscript_Mpro/naturecomm/supplementary_file_S2/6-chemical-library/molecular_docking/3D_ligand_structure/1187.pdb
REMARK  2 active torsions:
REMARK  status: ('A' for Active; 'I' for Inactive)
REMARK    1  A    between atoms: C2_5  and  C3_6
REMARK    2  A    between atoms: C3_6  and  C4_7
REMARK                            x       y       z     vdW  Elec       q    Type
REMARK                         _______ _______ _______ _____ _____    ______ ____
ROOT
ATOM      1  C3  UNL     1      17.667  11.394  -6.389  0.00  0.00    +0.000 C 
ENDROOT
BRANCH   1   2
ATOM      2  C4  UNL     1      16.207  10.975  -6.103  0.00  0.00    +0.000 C 
ATOM      3  C5  UNL     1      15.189  11.939  -6.730  0.00  0.00    +0.000 C 
ATOM      4  C6  UNL     1      13.758  11.421  -6.572  0.00  0.00    +0.000 C 
ATOM      5  C7  UNL     1      13.565  10.623  -5.284  0.00  0.00    +0.000 C 
ATOM      6  C8  UNL     1      14.595  11.005  -4.228  0.00  0.00    +0.000 C 
ATOM      7  N4  UNL     1      15.968  10.745  -4.664  0.00  0.00    +0.000 NA
ATOM      8  H14 UNL     1      16.600  11.333  -4.110  0.00  0.00    +0.000 HD
ENDBRANCH   1   2
BRANCH   1  13
ATOM      9  N1  UNL     1      18.742   9.488  -7.581  0.00  0.00    +0.000 NA
ATOM     10  N2  UNL     1      19.669   8.567  -7.363  0.00  0.00    +0.000 NA
ATOM     11  N3  UNL     1      20.152   8.767  -6.129  0.00  0.00    +0.000 N 
ATOM     12  C1  UNL     1      19.538   9.818  -5.518  0.00  0.00    +0.000 A 
ATOM     13  C2  UNL     1      18.636  10.267  -6.458  0.00  0.00    +0.000 A 
ATOM     14  H1  UNL     1      20.882   8.154  -5.787  0.00  0.00    +0.000 HD
ENDBRANCH   1  13
TORSDOF 2
ENDMDL
MODEL 9
REMARK VINA RESULT:    -3.712      2.772      4.651
REMARK INTER + INTRA:          -4.579
REMARK INTER:                  -4.145
REMARK INTRA:                  -0.433
REMARK UNBOUND:                -0.433
REMARK  Name = /home/anacleto/Desktop/manuscript_Mpro/naturecomm/supplementary_file_S2/6-chemical-library/molecular_docking/3D_ligand_structure/1187.pdb
REMARK  2 active torsions:
REMARK  status: ('A' for Active; 'I' for Inactive)
REMARK    1  A    between atoms: C2_5  and  C3_6
REMARK    2  A    between atoms: C3_6  and  C4_7
REMARK                            x       y       z     vdW  Elec       q    Type
REMARK                         _______ _______ _______ _____ _____    ______ ____
ROOT
ATOM      1  C3  UNL     1      15.314  13.427  -5.424  0.00  0.00    +0.000 C 
ENDROOT
BRANCH   1   2
ATOM      2  C4  UNL     1      16.468  13.377  -6.452  0.00  0.00    +0.000 C 
ATOM      3  C5  UNL     1      16.107  14.081  -7.770  0.00  0.00    +0.000 C 
ATOM      4  C6  UNL     1      17.312  14.160  -8.708  0.00  0.00    +0.000 C 
ATOM      5  C7  UNL     1      18.252  12.966  -8.555  0.00  0.00    +0.000 C 
ATOM      6  C8  UNL     1      17.527  11.752  -7.985  0.00  0.00    +0.000 C 
ATOM      7  N4  UNL     1      16.973  12.005  -6.655  0.00  0.00    +0.000 NA
ATOM      8  H14 UNL     1      16.218  11.331  -6.486  0.00  0.00    +0.000 HD
ENDBRANCH   1   2
BRANCH   1  13
ATOM      9  N1  UNL     1      13.918  11.518  -6.206  0.00  0.00    +0.000 NA
ATOM     10  N2  UNL     1      13.407  10.392  -5.731  0.00  0.00    +0.000 NA
ATOM     11  N3  UNL     1      13.792  10.284  -4.451  0.00  0.00    +0.000 N 
ATOM     12  C1  UNL     1      14.555  11.346  -4.070  0.00  0.00    +0.000 A 
ATOM     13  C2  UNL     1      14.623  12.129  -5.201  0.00  0.00    +0.000 A 
ATOM     14  H1  UNL     1      13.498   9.473  -3.921  0.00  0.00    +0.000 HD
ENDBRANCH   1  13
TORSDOF 2
ENDMDL
