MODEL 1
REMARK VINA RESULT:    -4.382      0.000      0.000
REMARK INTER + INTRA:          -9.078
REMARK INTER:                  -6.337
REMARK INTRA:                  -2.741
REMARK UNBOUND:                -2.903
REMARK  Name = /home/anacleto/Desktop/manuscript_Mpro/naturecomm/supplementary_file_S2/6-chemical-library/molecular_docking/3D_ligand_structure/445.pdb
REMARK  7 active torsions:
REMARK  status: ('A' for Active; 'I' for Inactive)
REMARK    1  A    between atoms: C6_6  and  C7_7
REMARK    2  A    between atoms: C7_7  and  O1_8
REMARK    3  A    between atoms: O1_8  and  C8_9
REMARK    4  A    between atoms: C8_9  and  C9_11
REMARK    5  A    between atoms: C9_11  and  C10_12
REMARK    6  A    between atoms: C10_12  and  N1_13
REMARK    7  A    between atoms: C11_14  and  C12_16
REMARK                            x       y       z     vdW  Elec       q    Type
REMARK                         _______ _______ _______ _____ _____    ______ ____
ROOT
ATOM      1  C9  UNL     1     -27.389   8.215 -39.293  0.00  0.00    +0.000 C 
ENDROOT
BRANCH   1   2
ATOM      2  C8  UNL     1     -27.269   6.718 -39.182  0.00  0.00    +0.000 C 
ATOM      3  O2  UNL     1     -28.194   5.927 -39.293  0.00  0.00    +0.000 OA
BRANCH   2   4
ATOM      4  O1  UNL     1     -25.965   6.386 -38.971  0.00  0.00    +0.000 OA
BRANCH   4   5
ATOM      5  C7  UNL     1     -25.081   6.603 -40.078  0.00  0.00    +0.000 C 
BRANCH   5  11
ATOM      6  C1  UNL     1     -23.358   6.225 -38.273  0.00  0.00    +0.000 A 
ATOM      7  C2  UNL     1     -22.037   6.217 -37.821  0.00  0.00    +0.000 A 
ATOM      8  C3  UNL     1     -21.004   6.592 -38.679  0.00  0.00    +0.000 A 
ATOM      9  C4  UNL     1     -21.290   6.969 -39.989  0.00  0.00    +0.000 A 
ATOM     10  C5  UNL     1     -22.610   6.978 -40.442  0.00  0.00    +0.000 A 
ATOM     11  C6  UNL     1     -23.657   6.615 -39.584  0.00  0.00    +0.000 A 
ENDBRANCH   5  11
ENDBRANCH   4   5
ENDBRANCH   2   4
ENDBRANCH   1   2
BRANCH   1  12
ATOM     12  C10 UNL     1     -27.152   8.882 -37.948  0.00  0.00    +0.000 C 
BRANCH  12  13
ATOM     13  N1  UNL     1     -25.731   9.034 -37.679  0.00  0.00    +0.000 N 
ATOM     14  C11 UNL     1     -25.040  10.131 -38.158  0.00  0.00    +0.000 C 
ATOM     15  O3  UNL     1     -25.576  11.078 -38.721  0.00  0.00    +0.000 OA
ATOM     16  H12 UNL     1     -25.196   8.189 -37.526  0.00  0.00    +0.000 HD
BRANCH  14  17
ATOM     17  C12 UNL     1     -23.560  10.099 -37.992  0.00  0.00    +0.000 A 
ATOM     18  C13 UNL     1     -22.956   9.707 -36.789  0.00  0.00    +0.000 A 
ATOM     19  C14 UNL     1     -21.564   9.692 -36.678  0.00  0.00    +0.000 A 
ATOM     20  C15 UNL     1     -20.772  10.075 -37.761  0.00  0.00    +0.000 A 
ATOM     21  C16 UNL     1     -21.368  10.481 -38.954  0.00  0.00    +0.000 A 
ATOM     22  C17 UNL     1     -22.759  10.498 -39.069  0.00  0.00    +0.000 A 
ENDBRANCH  14  17
ENDBRANCH  12  13
ENDBRANCH   1  12
TORSDOF 7
ENDMDL
MODEL 2
REMARK VINA RESULT:    -4.264      2.490      3.878
REMARK INTER + INTRA:          -8.911
REMARK INTER:                  -7.418
REMARK INTRA:                  -1.493
REMARK UNBOUND:                -2.903
REMARK  Name = /home/anacleto/Desktop/manuscript_Mpro/naturecomm/supplementary_file_S2/6-chemical-library/molecular_docking/3D_ligand_structure/445.pdb
REMARK  7 active torsions:
REMARK  status: ('A' for Active; 'I' for Inactive)
REMARK    1  A    between atoms: C6_6  and  C7_7
REMARK    2  A    between atoms: C7_7  and  O1_8
REMARK    3  A    between atoms: O1_8  and  C8_9
REMARK    4  A    between atoms: C8_9  and  C9_11
REMARK    5  A    between atoms: C9_11  and  C10_12
REMARK    6  A    between atoms: C10_12  and  N1_13
REMARK    7  A    between atoms: C11_14  and  C12_16
REMARK                            x       y       z     vdW  Elec       q    Type
REMARK                         _______ _______ _______ _____ _____    ______ ____
ROOT
ATOM      1  C9  UNL     1     -28.825   7.614 -38.260  0.00  0.00    +0.000 C 
ENDROOT
BRANCH   1   2
ATOM      2  C8  UNL     1     -29.627   6.372 -38.549  0.00  0.00    +0.000 C 
ATOM      3  O2  UNL     1     -30.525   5.934 -37.843  0.00  0.00    +0.000 OA
BRANCH   2   4
ATOM      4  O1  UNL     1     -29.216   5.836 -39.731  0.00  0.00    +0.000 OA
BRANCH   4   5
ATOM      5  C7  UNL     1     -29.286   4.408 -39.825  0.00  0.00    +0.000 C 
BRANCH   5  11
ATOM      6  C1  UNL     1     -27.905   3.011 -38.240  0.00  0.00    +0.000 A 
ATOM      7  C2  UNL     1     -26.693   2.444 -37.843  0.00  0.00    +0.000 A 
ATOM      8  C3  UNL     1     -25.539   2.669 -38.593  0.00  0.00    +0.000 A 
ATOM      9  C4  UNL     1     -25.598   3.456 -39.741  0.00  0.00    +0.000 A 
ATOM     10  C5  UNL     1     -26.809   4.023 -40.139  0.00  0.00    +0.000 A 
ATOM     11  C6  UNL     1     -27.973   3.814 -39.385  0.00  0.00    +0.000 A 
ENDBRANCH   5  11
ENDBRANCH   4   5
ENDBRANCH   2   4
ENDBRANCH   1   2
BRANCH   1  12
ATOM     12  C10 UNL     1     -27.794   7.861 -39.348  0.00  0.00    +0.000 C 
BRANCH  12  13
ATOM     13  N1  UNL     1     -26.484   7.369 -38.952  0.00  0.00    +0.000 N 
ATOM     14  C11 UNL     1     -25.512   8.244 -38.503  0.00  0.00    +0.000 C 
ATOM     15  O3  UNL     1     -25.712   9.435 -38.300  0.00  0.00    +0.000 OA
ATOM     16  H12 UNL     1     -26.162   6.512 -39.382  0.00  0.00    +0.000 HD
BRANCH  14  17
ATOM     17  C12 UNL     1     -24.152   7.668 -38.304  0.00  0.00    +0.000 A 
ATOM     18  C13 UNL     1     -23.943   6.289 -38.165  0.00  0.00    +0.000 A 
ATOM     19  C14 UNL     1     -22.650   5.794 -37.979  0.00  0.00    +0.000 A 
ATOM     20  C15 UNL     1     -21.566   6.671 -37.924  0.00  0.00    +0.000 A 
ATOM     21  C16 UNL     1     -21.772   8.045 -38.045  0.00  0.00    +0.000 A 
ATOM     22  C17 UNL     1     -23.062   8.544 -38.229  0.00  0.00    +0.000 A 
ENDBRANCH  14  17
ENDBRANCH  12  13
ENDBRANCH   1  12
TORSDOF 7
ENDMDL
MODEL 3
REMARK VINA RESULT:    -4.217      2.145      3.682
REMARK INTER + INTRA:          -8.846
REMARK INTER:                  -7.506
REMARK INTRA:                  -1.340
REMARK UNBOUND:                -2.903
REMARK  Name = /home/anacleto/Desktop/manuscript_Mpro/naturecomm/supplementary_file_S2/6-chemical-library/molecular_docking/3D_ligand_structure/445.pdb
REMARK  7 active torsions:
REMARK  status: ('A' for Active; 'I' for Inactive)
REMARK    1  A    between atoms: C6_6  and  C7_7
REMARK    2  A    between atoms: C7_7  and  O1_8
REMARK    3  A    between atoms: O1_8  and  C8_9
REMARK    4  A    between atoms: C8_9  and  C9_11
REMARK    5  A    between atoms: C9_11  and  C10_12
REMARK    6  A    between atoms: C10_12  and  N1_13
REMARK    7  A    between atoms: C11_14  and  C12_16
REMARK                            x       y       z     vdW  Elec       q    Type
REMARK                         _______ _______ _______ _____ _____    ______ ____
ROOT
ATOM      1  C9  UNL     1     -27.972   9.312 -38.765  0.00  0.00    +0.000 C 
ENDROOT
BRANCH   1   2
ATOM      2  C8  UNL     1     -28.233   7.845 -38.546  0.00  0.00    +0.000 C 
ATOM      3  O2  UNL     1     -29.179   7.384 -37.925  0.00  0.00    +0.000 OA
BRANCH   2   4
ATOM      4  O1  UNL     1     -27.269   7.118 -39.176  0.00  0.00    +0.000 OA
BRANCH   4   5
ATOM      5  C7  UNL     1     -27.734   6.012 -39.958  0.00  0.00    +0.000 C 
BRANCH   5  11
ATOM      6  C1  UNL     1     -25.942   4.429 -39.147  0.00  0.00    +0.000 A 
ATOM      7  C2  UNL     1     -25.542   3.246 -38.526  0.00  0.00    +0.000 A 
ATOM      8  C3  UNL     1     -26.498   2.349 -38.051  0.00  0.00    +0.000 A 
ATOM      9  C4  UNL     1     -27.854   2.637 -38.193  0.00  0.00    +0.000 A 
ATOM     10  C5  UNL     1     -28.256   3.821 -38.814  0.00  0.00    +0.000 A 
ATOM     11  C6  UNL     1     -27.303   4.723 -39.306  0.00  0.00    +0.000 A 
ENDBRANCH   5  11
ENDBRANCH   4   5
ENDBRANCH   2   4
ENDBRANCH   1   2
BRANCH   1  12
ATOM     12  C10 UNL     1     -27.059   9.870 -37.686  0.00  0.00    +0.000 C 
BRANCH  12  13
ATOM     13  N1  UNL     1     -25.874   9.044 -37.521  0.00  0.00    +0.000 N 
ATOM     14  C11 UNL     1     -24.639   9.493 -37.951  0.00  0.00    +0.000 C 
ATOM     15  O3  UNL     1     -24.440  10.624 -38.379  0.00  0.00    +0.000 OA
ATOM     16  H12 UNL     1     -26.009   8.041 -37.490  0.00  0.00    +0.000 HD
BRANCH  14  17
ATOM     17  C12 UNL     1     -23.528   8.502 -37.910  0.00  0.00    +0.000 A 
ATOM     18  C13 UNL     1     -22.219   8.868 -37.567  0.00  0.00    +0.000 A 
ATOM     19  C14 UNL     1     -21.209   7.904 -37.542  0.00  0.00    +0.000 A 
ATOM     20  C15 UNL     1     -21.498   6.577 -37.865  0.00  0.00    +0.000 A 
ATOM     21  C16 UNL     1     -22.795   6.212 -38.222  0.00  0.00    +0.000 A 
ATOM     22  C17 UNL     1     -23.808   7.172 -38.250  0.00  0.00    +0.000 A 
ENDBRANCH  14  17
ENDBRANCH  12  13
ENDBRANCH   1  12
TORSDOF 7
ENDMDL
MODEL 4
REMARK VINA RESULT:    -4.206      2.898      6.204
REMARK INTER + INTRA:          -8.830
REMARK INTER:                  -6.217
REMARK INTRA:                  -2.613
REMARK UNBOUND:                -2.903
REMARK  Name = /home/anacleto/Desktop/manuscript_Mpro/naturecomm/supplementary_file_S2/6-chemical-library/molecular_docking/3D_ligand_structure/445.pdb
REMARK  7 active torsions:
REMARK  status: ('A' for Active; 'I' for Inactive)
REMARK    1  A    between atoms: C6_6  and  C7_7
REMARK    2  A    between atoms: C7_7  and  O1_8
REMARK    3  A    between atoms: O1_8  and  C8_9
REMARK    4  A    between atoms: C8_9  and  C9_11
REMARK    5  A    between atoms: C9_11  and  C10_12
REMARK    6  A    between atoms: C10_12  and  N1_13
REMARK    7  A    between atoms: C11_14  and  C12_16
REMARK                            x       y       z     vdW  Elec       q    Type
REMARK                         _______ _______ _______ _____ _____    ______ ____
ROOT
ATOM      1  C9  UNL     1     -24.458   8.178 -38.143  0.00  0.00    +0.000 C 
ENDROOT
BRANCH   1   2
ATOM      2  C8  UNL     1     -23.868   6.972 -38.826  0.00  0.00    +0.000 C 
ATOM      3  O2  UNL     1     -22.797   6.950 -39.414  0.00  0.00    +0.000 OA
BRANCH   2   4
ATOM      4  O1  UNL     1     -24.700   5.908 -38.656  0.00  0.00    +0.000 OA
BRANCH   4   5
ATOM      5  C7  UNL     1     -24.632   4.897 -39.669  0.00  0.00    +0.000 C 
BRANCH   5  11
ATOM      6  C1  UNL     1     -26.416   3.806 -38.254  0.00  0.00    +0.000 A 
ATOM      7  C2  UNL     1     -27.495   2.935 -38.099  0.00  0.00    +0.000 A 
ATOM      8  C3  UNL     1     -27.957   2.196 -39.186  0.00  0.00    +0.000 A 
ATOM      9  C4  UNL     1     -27.344   2.330 -40.430  0.00  0.00    +0.000 A 
ATOM     10  C5  UNL     1     -26.264   3.201 -40.587  0.00  0.00    +0.000 A 
ATOM     11  C6  UNL     1     -25.784   3.940 -39.497  0.00  0.00    +0.000 A 
ENDBRANCH   5  11
ENDBRANCH   4   5
ENDBRANCH   2   4
ENDBRANCH   1   2
BRANCH   1  12
ATOM     12  C10 UNL     1     -25.488   8.856 -39.030  0.00  0.00    +0.000 C 
BRANCH  12  13
ATOM     13  N1  UNL     1     -26.555   7.937 -39.394  0.00  0.00    +0.000 N 
ATOM     14  C11 UNL     1     -27.717   7.878 -38.646  0.00  0.00    +0.000 C 
ATOM     15  O3  UNL     1     -27.973   8.648 -37.728  0.00  0.00    +0.000 OA
ATOM     16  H12 UNL     1     -26.293   7.099 -39.895  0.00  0.00    +0.000 HD
BRANCH  14  17
ATOM     17  C12 UNL     1     -28.662   6.779 -38.987  0.00  0.00    +0.000 A 
ATOM     18  C13 UNL     1     -28.717   6.219 -40.271  0.00  0.00    +0.000 A 
ATOM     19  C14 UNL     1     -29.620   5.189 -40.546  0.00  0.00    +0.000 A 
ATOM     20  C15 UNL     1     -30.474   4.721 -39.546  0.00  0.00    +0.000 A 
ATOM     21  C16 UNL     1     -30.434   5.287 -38.272  0.00  0.00    +0.000 A 
ATOM     22  C17 UNL     1     -29.533   6.317 -37.993  0.00  0.00    +0.000 A 
ENDBRANCH  14  17
ENDBRANCH  12  13
ENDBRANCH   1  12
TORSDOF 7
ENDMDL
MODEL 5
REMARK VINA RESULT:    -4.111      2.649      4.238
REMARK INTER + INTRA:          -8.696
REMARK INTER:                  -7.651
REMARK INTRA:                  -1.045
REMARK UNBOUND:                -2.903
REMARK  Name = /home/anacleto/Desktop/manuscript_Mpro/naturecomm/supplementary_file_S2/6-chemical-library/molecular_docking/3D_ligand_structure/445.pdb
REMARK  7 active torsions:
REMARK  status: ('A' for Active; 'I' for Inactive)
REMARK    1  A    between atoms: C6_6  and  C7_7
REMARK    2  A    between atoms: C7_7  and  O1_8
REMARK    3  A    between atoms: O1_8  and  C8_9
REMARK    4  A    between atoms: C8_9  and  C9_11
REMARK    5  A    between atoms: C9_11  and  C10_12
REMARK    6  A    between atoms: C10_12  and  N1_13
REMARK    7  A    between atoms: C11_14  and  C12_16
REMARK                            x       y       z     vdW  Elec       q    Type
REMARK                         _______ _______ _______ _____ _____    ______ ____
ROOT
ATOM      1  C9  UNL     1     -25.381   8.501 -38.427  0.00  0.00    +0.000 C 
ENDROOT
BRANCH   1   2
ATOM      2  C8  UNL     1     -24.739   7.445 -39.289  0.00  0.00    +0.000 C 
ATOM      3  O2  UNL     1     -24.377   7.605 -40.445  0.00  0.00    +0.000 OA
BRANCH   2   4
ATOM      4  O1  UNL     1     -24.599   6.300 -38.565  0.00  0.00    +0.000 OA
BRANCH   4   5
ATOM      5  C7  UNL     1     -24.617   5.082 -39.320  0.00  0.00    +0.000 C 
BRANCH   5  11
ATOM      6  C1  UNL     1     -27.100   4.685 -39.105  0.00  0.00    +0.000 A 
ATOM      7  C2  UNL     1     -28.187   3.899 -38.719  0.00  0.00    +0.000 A 
ATOM      8  C3  UNL     1     -27.974   2.661 -38.116  0.00  0.00    +0.000 A 
ATOM      9  C4  UNL     1     -26.674   2.205 -37.902  0.00  0.00    +0.000 A 
ATOM     10  C5  UNL     1     -25.586   2.990 -38.287  0.00  0.00    +0.000 A 
ATOM     11  C6  UNL     1     -25.790   4.242 -38.883  0.00  0.00    +0.000 A 
ENDBRANCH   5  11
ENDBRANCH   4   5
ENDBRANCH   2   4
ENDBRANCH   1   2
BRANCH   1  12
ATOM     12  C10 UNL     1     -24.362   9.141 -37.499  0.00  0.00    +0.000 C 
BRANCH  12  13
ATOM     13  N1  UNL     1     -23.005   8.780 -37.880  0.00  0.00    +0.000 N 
ATOM     14  C11 UNL     1     -21.923   9.456 -37.348  0.00  0.00    +0.000 C 
ATOM     15  O3  UNL     1     -22.017  10.297 -36.462  0.00  0.00    +0.000 OA
ATOM     16  H12 UNL     1     -22.876   8.359 -38.791  0.00  0.00    +0.000 HD
BRANCH  14  17
ATOM     17  C12 UNL     1     -20.594   9.140 -37.942  0.00  0.00    +0.000 A 
ATOM     18  C13 UNL     1     -19.579  10.101 -38.044  0.00  0.00    +0.000 A 
ATOM     19  C14 UNL     1     -18.348   9.760 -38.609  0.00  0.00    +0.000 A 
ATOM     20  C15 UNL     1     -18.129   8.464 -39.079  0.00  0.00    +0.000 A 
ATOM     21  C16 UNL     1     -19.141   7.510 -38.995  0.00  0.00    +0.000 A 
ATOM     22  C17 UNL     1     -20.374   7.847 -38.432  0.00  0.00    +0.000 A 
ENDBRANCH  14  17
ENDBRANCH  12  13
ENDBRANCH   1  12
TORSDOF 7
ENDMDL
MODEL 6
REMARK VINA RESULT:    -3.982      2.386      5.147
REMARK INTER + INTRA:          -8.514
REMARK INTER:                  -7.049
REMARK INTRA:                  -1.465
REMARK UNBOUND:                -2.903
REMARK  Name = /home/anacleto/Desktop/manuscript_Mpro/naturecomm/supplementary_file_S2/6-chemical-library/molecular_docking/3D_ligand_structure/445.pdb
REMARK  7 active torsions:
REMARK  status: ('A' for Active; 'I' for Inactive)
REMARK    1  A    between atoms: C6_6  and  C7_7
REMARK    2  A    between atoms: C7_7  and  O1_8
REMARK    3  A    between atoms: O1_8  and  C8_9
REMARK    4  A    between atoms: C8_9  and  C9_11
REMARK    5  A    between atoms: C9_11  and  C10_12
REMARK    6  A    between atoms: C10_12  and  N1_13
REMARK    7  A    between atoms: C11_14  and  C12_16
REMARK                            x       y       z     vdW  Elec       q    Type
REMARK                         _______ _______ _______ _____ _____    ______ ____
ROOT
ATOM      1  C9  UNL     1     -28.155   9.097 -38.728  0.00  0.00    +0.000 C 
ENDROOT
BRANCH   1   2
ATOM      2  C8  UNL     1     -26.709   8.965 -39.128  0.00  0.00    +0.000 C 
ATOM      3  O2  UNL     1     -26.263   9.196 -40.243  0.00  0.00    +0.000 OA
BRANCH   2   4
ATOM      4  O1  UNL     1     -25.977   8.581 -38.046  0.00  0.00    +0.000 OA
BRANCH   4   5
ATOM      5  C7  UNL     1     -24.848   9.406 -37.734  0.00  0.00    +0.000 C 
BRANCH   5  11
ATOM      6  C1  UNL     1     -23.652   7.220 -38.135  0.00  0.00    +0.000 A 
ATOM      7  C2  UNL     1     -22.489   6.449 -38.180  0.00  0.00    +0.000 A 
ATOM      8  C3  UNL     1     -21.260   7.021 -37.858  0.00  0.00    +0.000 A 
ATOM      9  C4  UNL     1     -21.191   8.365 -37.496  0.00  0.00    +0.000 A 
ATOM     10  C5  UNL     1     -22.352   9.137 -37.451  0.00  0.00    +0.000 A 
ATOM     11  C6  UNL     1     -23.595   8.568 -37.761  0.00  0.00    +0.000 A 
ENDBRANCH   5  11
ENDBRANCH   4   5
ENDBRANCH   2   4
ENDBRANCH   1   2
BRANCH   1  12
ATOM     12  C10 UNL     1     -28.991   7.981 -39.331  0.00  0.00    +0.000 C 
BRANCH  12  13
ATOM     13  N1  UNL     1     -28.227   6.747 -39.432  0.00  0.00    +0.000 N 
ATOM     14  C11 UNL     1     -28.454   5.707 -38.550  0.00  0.00    +0.000 C 
ATOM     15  O3  UNL     1     -29.360   5.701 -37.726  0.00  0.00    +0.000 OA
ATOM     16  H12 UNL     1     -27.302   6.808 -39.838  0.00  0.00    +0.000 HD
BRANCH  14  17
ATOM     17  C12 UNL     1     -27.495   4.569 -38.617  0.00  0.00    +0.000 A 
ATOM     18  C13 UNL     1     -27.855   3.271 -38.226  0.00  0.00    +0.000 A 
ATOM     19  C14 UNL     1     -26.923   2.234 -38.305  0.00  0.00    +0.000 A 
ATOM     20  C15 UNL     1     -25.630   2.488 -38.766  0.00  0.00    +0.000 A 
ATOM     21  C16 UNL     1     -25.263   3.780 -39.140  0.00  0.00    +0.000 A 
ATOM     22  C17 UNL     1     -26.192   4.820 -39.062  0.00  0.00    +0.000 A 
ENDBRANCH  14  17
ENDBRANCH  12  13
ENDBRANCH   1  12
TORSDOF 7
ENDMDL
MODEL 7
REMARK VINA RESULT:    -3.942      2.857      6.883
REMARK INTER + INTRA:          -8.458
REMARK INTER:                  -5.649
REMARK INTRA:                  -2.809
REMARK UNBOUND:                -2.903
REMARK  Name = /home/anacleto/Desktop/manuscript_Mpro/naturecomm/supplementary_file_S2/6-chemical-library/molecular_docking/3D_ligand_structure/445.pdb
REMARK  7 active torsions:
REMARK  status: ('A' for Active; 'I' for Inactive)
REMARK    1  A    between atoms: C6_6  and  C7_7
REMARK    2  A    between atoms: C7_7  and  O1_8
REMARK    3  A    between atoms: O1_8  and  C8_9
REMARK    4  A    between atoms: C8_9  and  C9_11
REMARK    5  A    between atoms: C9_11  and  C10_12
REMARK    6  A    between atoms: C10_12  and  N1_13
REMARK    7  A    between atoms: C11_14  and  C12_16
REMARK                            x       y       z     vdW  Elec       q    Type
REMARK                         _______ _______ _______ _____ _____    ______ ____
ROOT
ATOM      1  C9  UNL     1     -25.292   8.679 -38.173  0.00  0.00    +0.000 C 
ENDROOT
BRANCH   1   2
ATOM      2  C8  UNL     1     -26.363   9.460 -38.888  0.00  0.00    +0.000 C 
ATOM      3  O2  UNL     1     -26.330  10.663 -39.105  0.00  0.00    +0.000 OA
BRANCH   2   4
ATOM      4  O1  UNL     1     -27.353   8.611 -39.278  0.00  0.00    +0.000 OA
BRANCH   4   5
ATOM      5  C7  UNL     1     -28.284   8.229 -38.258  0.00  0.00    +0.000 C 
BRANCH   5  11
ATOM      6  C1  UNL     1     -29.358   6.912 -40.125  0.00  0.00    +0.000 A 
ATOM      7  C2  UNL     1     -30.119   5.837 -40.586  0.00  0.00    +0.000 A 
ATOM      8  C3  UNL     1     -30.647   4.917 -39.682  0.00  0.00    +0.000 A 
ATOM      9  C4  UNL     1     -30.411   5.069 -38.317  0.00  0.00    +0.000 A 
ATOM     10  C5  UNL     1     -29.650   6.143 -37.855  0.00  0.00    +0.000 A 
ATOM     11  C6  UNL     1     -29.124   7.081 -38.754  0.00  0.00    +0.000 A 
ENDBRANCH   5  11
ENDBRANCH   4   5
ENDBRANCH   2   4
ENDBRANCH   1   2
BRANCH   1  12
ATOM     12  C10 UNL     1     -24.660   7.650 -39.096  0.00  0.00    +0.000 C 
BRANCH  12  13
ATOM     13  N1  UNL     1     -25.261   6.338 -38.910  0.00  0.00    +0.000 N 
ATOM     14  C11 UNL     1     -25.833   5.671 -39.977  0.00  0.00    +0.000 C 
ATOM     15  O3  UNL     1     -25.774   6.066 -41.135  0.00  0.00    +0.000 OA
ATOM     16  H12 UNL     1     -25.620   6.120 -37.990  0.00  0.00    +0.000 HD
BRANCH  14  17
ATOM     17  C12 UNL     1     -26.583   4.427 -39.647  0.00  0.00    +0.000 A 
ATOM     18  C13 UNL     1     -26.685   3.948 -38.333  0.00  0.00    +0.000 A 
ATOM     19  C14 UNL     1     -27.398   2.776 -38.070  0.00  0.00    +0.000 A 
ATOM     20  C15 UNL     1     -28.005   2.077 -39.115  0.00  0.00    +0.000 A 
ATOM     21  C16 UNL     1     -27.892   2.541 -40.425  0.00  0.00    +0.000 A 
ATOM     22  C17 UNL     1     -27.179   3.710 -40.692  0.00  0.00    +0.000 A 
ENDBRANCH  14  17
ENDBRANCH  12  13
ENDBRANCH   1  12
TORSDOF 7
ENDMDL
MODEL 8
REMARK VINA RESULT:    -3.936     16.181     18.461
REMARK INTER + INTRA:          -8.450
REMARK INTER:                  -5.546
REMARK INTRA:                  -2.903
REMARK UNBOUND:                -2.903
REMARK  Name = /home/anacleto/Desktop/manuscript_Mpro/naturecomm/supplementary_file_S2/6-chemical-library/molecular_docking/3D_ligand_structure/445.pdb
REMARK  7 active torsions:
REMARK  status: ('A' for Active; 'I' for Inactive)
REMARK    1  A    between atoms: C6_6  and  C7_7
REMARK    2  A    between atoms: C7_7  and  O1_8
REMARK    3  A    between atoms: O1_8  and  C8_9
REMARK    4  A    between atoms: C8_9  and  C9_11
REMARK    5  A    between atoms: C9_11  and  C10_12
REMARK    6  A    between atoms: C10_12  and  N1_13
REMARK    7  A    between atoms: C11_14  and  C12_16
REMARK                            x       y       z     vdW  Elec       q    Type
REMARK                         _______ _______ _______ _____ _____    ______ ____
ROOT
ATOM      1  C9  UNL     1     -20.036  -4.816 -29.346  0.00  0.00    +0.000 C 
ENDROOT
BRANCH   1   2
ATOM      2  C8  UNL     1     -19.981  -4.254 -27.949  0.00  0.00    +0.000 C 
ATOM      3  O2  UNL     1     -18.961  -3.911 -27.369  0.00  0.00    +0.000 OA
BRANCH   2   4
ATOM      4  O1  UNL     1     -21.245  -4.160 -27.453  0.00  0.00    +0.000 OA
BRANCH   4   5
ATOM      5  C7  UNL     1     -22.166  -3.393 -28.238  0.00  0.00    +0.000 C 
BRANCH   5  11
ATOM      6  C1  UNL     1     -23.837  -3.897 -26.414  0.00  0.00    +0.000 A 
ATOM      7  C2  UNL     1     -25.141  -4.135 -25.979  0.00  0.00    +0.000 A 
ATOM      8  C3  UNL     1     -26.193  -4.142 -26.894  0.00  0.00    +0.000 A 
ATOM      9  C4  UNL     1     -25.942  -3.907 -28.244  0.00  0.00    +0.000 A 
ATOM     10  C5  UNL     1     -24.638  -3.669 -28.681  0.00  0.00    +0.000 A 
ATOM     11  C6  UNL     1     -23.572  -3.671 -27.771  0.00  0.00    +0.000 A 
ENDBRANCH   5  11
ENDBRANCH   4   5
ENDBRANCH   2   4
ENDBRANCH   1   2
BRANCH   1  12
ATOM     12  C10 UNL     1     -20.086  -6.334 -29.320  0.00  0.00    +0.000 C 
BRANCH  12  13
ATOM     13  N1  UNL     1     -21.193  -6.811 -28.506  0.00  0.00    +0.000 N 
ATOM     14  C11 UNL     1     -22.439  -7.017 -29.068  0.00  0.00    +0.000 C 
ATOM     15  O3  UNL     1     -22.665  -6.931 -30.269  0.00  0.00    +0.000 OA
ATOM     16  H12 UNL     1     -21.168  -6.593 -27.518  0.00  0.00    +0.000 HD
BRANCH  14  17
ATOM     17  C12 UNL     1     -23.545  -7.321 -28.118  0.00  0.00    +0.000 A 
ATOM     18  C13 UNL     1     -24.877  -7.440 -28.541  0.00  0.00    +0.000 A 
ATOM     19  C14 UNL     1     -25.881  -7.726 -27.615  0.00  0.00    +0.000 A 
ATOM     20  C15 UNL     1     -25.565  -7.886 -26.265  0.00  0.00    +0.000 A 
ATOM     21  C16 UNL     1     -24.245  -7.751 -25.837  0.00  0.00    +0.000 A 
ATOM     22  C17 UNL     1     -23.237  -7.465 -26.759  0.00  0.00    +0.000 A 
ENDBRANCH  14  17
ENDBRANCH  12  13
ENDBRANCH   1  12
TORSDOF 7
ENDMDL
MODEL 9
REMARK VINA RESULT:    -3.896     15.537     17.339
REMARK INTER + INTRA:          -8.393
REMARK INTER:                  -5.359
REMARK INTRA:                  -3.035
REMARK UNBOUND:                -2.903
REMARK  Name = /home/anacleto/Desktop/manuscript_Mpro/naturecomm/supplementary_file_S2/6-chemical-library/molecular_docking/3D_ligand_structure/445.pdb
REMARK  7 active torsions:
REMARK  status: ('A' for Active; 'I' for Inactive)
REMARK    1  A    between atoms: C6_6  and  C7_7
REMARK    2  A    between atoms: C7_7  and  O1_8
REMARK    3  A    between atoms: O1_8  and  C8_9
REMARK    4  A    between atoms: C8_9  and  C9_11
REMARK    5  A    between atoms: C9_11  and  C10_12
REMARK    6  A    between atoms: C10_12  and  N1_13
REMARK    7  A    between atoms: C11_14  and  C12_16
REMARK                            x       y       z     vdW  Elec       q    Type
REMARK                         _______ _______ _______ _____ _____    ______ ____
ROOT
ATOM      1  C9  UNL     1     -35.072  -6.819 -37.596  0.00  0.00    +0.000 C 
ENDROOT
BRANCH   1   2
ATOM      2  C8  UNL     1     -34.437  -5.639 -38.283  0.00  0.00    +0.000 C 
ATOM      3  O2  UNL     1     -33.277  -5.282 -38.140  0.00  0.00    +0.000 OA
BRANCH   2   4
ATOM      4  O1  UNL     1     -35.350  -5.057 -39.109  0.00  0.00    +0.000 OA
BRANCH   4   5
ATOM      5  C7  UNL     1     -34.906  -3.880 -39.796  0.00  0.00    +0.000 C 
BRANCH   5  11
ATOM      6  C1  UNL     1     -37.348  -3.248 -39.709  0.00  0.00    +0.000 A 
ATOM      7  C2  UNL     1     -38.367  -2.295 -39.680  0.00  0.00    +0.000 A 
ATOM      8  C3  UNL     1     -38.054  -0.937 -39.720  0.00  0.00    +0.000 A 
ATOM      9  C4  UNL     1     -36.723  -0.531 -39.784  0.00  0.00    +0.000 A 
ATOM     10  C5  UNL     1     -35.703  -1.483 -39.813  0.00  0.00    +0.000 A 
ATOM     11  C6  UNL     1     -36.006  -2.851 -39.786  0.00  0.00    +0.000 A 
ENDBRANCH   5  11
ENDBRANCH   4   5
ENDBRANCH   2   4
ENDBRANCH   1   2
BRANCH   1  12
ATOM     12  C10 UNL     1     -35.589  -6.435 -36.220  0.00  0.00    +0.000 C 
BRANCH  12  13
ATOM     13  N1  UNL     1     -35.646  -4.990 -36.064  0.00  0.00    +0.000 N 
ATOM     14  C11 UNL     1     -36.863  -4.333 -36.051  0.00  0.00    +0.000 C 
ATOM     15  O3  UNL     1     -37.945  -4.908 -36.050  0.00  0.00    +0.000 OA
ATOM     16  H12 UNL     1     -34.844  -4.459 -36.378  0.00  0.00    +0.000 HD
BRANCH  14  17
ATOM     17  C12 UNL     1     -36.805  -2.845 -36.077  0.00  0.00    +0.000 A 
ATOM     18  C13 UNL     1     -37.965  -2.057 -36.051  0.00  0.00    +0.000 A 
ATOM     19  C14 UNL     1     -37.863  -0.664 -36.078  0.00  0.00    +0.000 A 
ATOM     20  C15 UNL     1     -36.609  -0.055 -36.138  0.00  0.00    +0.000 A 
ATOM     21  C16 UNL     1     -35.454  -0.835 -36.180  0.00  0.00    +0.000 A 
ATOM     22  C17 UNL     1     -35.551  -2.227 -36.155  0.00  0.00    +0.000 A 
ENDBRANCH  14  17
ENDBRANCH  12  13
ENDBRANCH   1  12
TORSDOF 7
ENDMDL
