MODEL 1
REMARK VINA RESULT:    -3.314      0.000      0.000
REMARK INTER + INTRA:          -3.314
REMARK INTER:                  -3.314
REMARK INTRA:                   0.000
REMARK UNBOUND:                 0.000
REMARK  Name = /home/anacleto/Desktop/manuscript_Mpro/naturecomm/supplementary_file_S2/6-chemical-library/molecular_docking/3D_ligand_structure/375.pdb
REMARK  0 active torsions:
REMARK  status: ('A' for Active; 'I' for Inactive)
REMARK                            x       y       z     vdW  Elec       q    Type
REMARK                         _______ _______ _______ _____ _____    ______ ____
ROOT
ATOM      1  C1  UNL     1     -20.391   7.504 -38.271  0.00  0.00    +0.000 C 
ATOM      2  C2  UNL     1     -20.760   8.771 -37.544  0.00  0.00    +0.000 C 
ATOM      3  C3  UNL     1     -21.772   8.088 -38.425  0.00  0.00    +0.000 C 
ATOM      4  C4  UNL     1     -20.039  10.012 -37.976  0.00  0.00    +0.000 C 
ATOM      5  N1  UNL     1     -18.610   9.719 -37.969  0.00  0.00    +0.000 NA
ATOM      6  C5  UNL     1     -18.222   8.619 -38.865  0.00  0.00    +0.000 C 
ATOM      7  C6  UNL     1     -19.347   7.676 -39.334  0.00  0.00    +0.000 C 
ATOM      8  H7  UNL     1     -18.079  10.556 -38.200  0.00  0.00    +0.000 HD
ENDROOT
TORSDOF 0
ENDMDL
MODEL 2
REMARK VINA RESULT:    -3.161      8.424      9.365
REMARK INTER + INTRA:          -3.161
REMARK INTER:                  -3.161
REMARK INTRA:                   0.000
REMARK UNBOUND:                 0.000
REMARK  Name = /home/anacleto/Desktop/manuscript_Mpro/naturecomm/supplementary_file_S2/6-chemical-library/molecular_docking/3D_ligand_structure/375.pdb
REMARK  0 active torsions:
REMARK  status: ('A' for Active; 'I' for Inactive)
REMARK                            x       y       z     vdW  Elec       q    Type
REMARK                         _______ _______ _______ _____ _____    ______ ____
ROOT
ATOM      1  C1  UNL     1     -26.024   3.849 -38.448  0.00  0.00    +0.000 C 
ATOM      2  C2  UNL     1     -26.635   2.473 -38.384  0.00  0.00    +0.000 C 
ATOM      3  C3  UNL     1     -25.431   2.721 -39.253  0.00  0.00    +0.000 C 
ATOM      4  C4  UNL     1     -28.014   2.338 -38.956  0.00  0.00    +0.000 C 
ATOM      5  N1  UNL     1     -28.843   3.384 -38.366  0.00  0.00    +0.000 NA
ATOM      6  C5  UNL     1     -28.361   4.748 -38.631  0.00  0.00    +0.000 C 
ATOM      7  C6  UNL     1     -26.895   4.889 -39.086  0.00  0.00    +0.000 C 
ATOM      8  H7  UNL     1     -29.805   3.291 -38.685  0.00  0.00    +0.000 HD
ENDROOT
TORSDOF 0
ENDMDL
MODEL 3
REMARK VINA RESULT:    -3.152     29.215     30.128
REMARK INTER + INTRA:          -3.152
REMARK INTER:                  -3.152
REMARK INTRA:                   0.000
REMARK UNBOUND:                 0.000
REMARK  Name = /home/anacleto/Desktop/manuscript_Mpro/naturecomm/supplementary_file_S2/6-chemical-library/molecular_docking/3D_ligand_structure/375.pdb
REMARK  0 active torsions:
REMARK  status: ('A' for Active; 'I' for Inactive)
REMARK                            x       y       z     vdW  Elec       q    Type
REMARK                         _______ _______ _______ _____ _____    ______ ____
ROOT
ATOM      1  C1  UNL     1     -38.579   7.846 -13.794  0.00  0.00    +0.000 C 
ATOM      2  C2  UNL     1     -39.449   9.045 -14.068  0.00  0.00    +0.000 C 
ATOM      3  C3  UNL     1     -40.079   7.729 -13.693  0.00  0.00    +0.000 C 
ATOM      4  C4  UNL     1     -39.447   9.551 -15.479  0.00  0.00    +0.000 C 
ATOM      5  N1  UNL     1     -38.056   9.721 -15.886  0.00  0.00    +0.000 NA
ATOM      6  C5  UNL     1     -37.263   8.484 -15.834  0.00  0.00    +0.000 C 
ATOM      7  C6  UNL     1     -37.834   7.329 -14.988  0.00  0.00    +0.000 C 
ATOM      8  H7  UNL     1     -38.010  10.121 -16.820  0.00  0.00    +0.000 HD
ENDROOT
TORSDOF 0
ENDMDL
MODEL 4
REMARK VINA RESULT:    -3.071      2.557      3.579
REMARK INTER + INTRA:          -3.071
REMARK INTER:                  -3.071
REMARK INTRA:                   0.000
REMARK UNBOUND:                 0.000
REMARK  Name = /home/anacleto/Desktop/manuscript_Mpro/naturecomm/supplementary_file_S2/6-chemical-library/molecular_docking/3D_ligand_structure/375.pdb
REMARK  0 active torsions:
REMARK  status: ('A' for Active; 'I' for Inactive)
REMARK                            x       y       z     vdW  Elec       q    Type
REMARK                         _______ _______ _______ _____ _____    ______ ____
ROOT
ATOM      1  C1  UNL     1     -21.172   8.100 -37.285  0.00  0.00    +0.000 C 
ATOM      2  C2  UNL     1     -22.350   7.383 -37.892  0.00  0.00    +0.000 C 
ATOM      3  C3  UNL     1     -21.023   7.386 -38.604  0.00  0.00    +0.000 C 
ATOM      4  C4  UNL     1     -23.490   8.250 -38.335  0.00  0.00    +0.000 C 
ATOM      5  N1  UNL     1     -23.838   9.126 -37.222  0.00  0.00    +0.000 NA
ATOM      6  C5  UNL     1     -22.738   9.996 -36.780  0.00  0.00    +0.000 C 
ATOM      7  C6  UNL     1     -21.316   9.591 -37.216  0.00  0.00    +0.000 C 
ATOM      8  H7  UNL     1     -24.650   9.692 -37.461  0.00  0.00    +0.000 HD
ENDROOT
TORSDOF 0
ENDMDL
MODEL 5
REMARK VINA RESULT:    -3.042     17.608     18.514
REMARK INTER + INTRA:          -3.042
REMARK INTER:                  -3.042
REMARK INTRA:                   0.000
REMARK UNBOUND:                 0.000
REMARK  Name = /home/anacleto/Desktop/manuscript_Mpro/naturecomm/supplementary_file_S2/6-chemical-library/molecular_docking/3D_ligand_structure/375.pdb
REMARK  0 active torsions:
REMARK  status: ('A' for Active; 'I' for Inactive)
REMARK                            x       y       z     vdW  Elec       q    Type
REMARK                         _______ _______ _______ _____ _____    ______ ____
ROOT
ATOM      1  C1  UNL     1     -37.273  11.232 -31.576  0.00  0.00    +0.000 C 
ATOM      2  C2  UNL     1     -36.185  12.050 -32.222  0.00  0.00    +0.000 C 
ATOM      3  C3  UNL     1     -36.214  10.556 -32.407  0.00  0.00    +0.000 C 
ATOM      4  C4  UNL     1     -35.220  12.716 -31.288  0.00  0.00    +0.000 C 
ATOM      5  N1  UNL     1     -35.998  13.445 -30.292  0.00  0.00    +0.000 NA
ATOM      6  C5  UNL     1     -36.901  12.595 -29.500  0.00  0.00    +0.000 C 
ATOM      7  C6  UNL     1     -37.226  11.203 -30.077  0.00  0.00    +0.000 C 
ATOM      8  H7  UNL     1     -35.379  13.961 -29.672  0.00  0.00    +0.000 HD
ENDROOT
TORSDOF 0
ENDMDL
MODEL 6
REMARK VINA RESULT:    -3.032      7.245      8.429
REMARK INTER + INTRA:          -3.032
REMARK INTER:                  -3.032
REMARK INTRA:                   0.000
REMARK UNBOUND:                 0.000
REMARK  Name = /home/anacleto/Desktop/manuscript_Mpro/naturecomm/supplementary_file_S2/6-chemical-library/molecular_docking/3D_ligand_structure/375.pdb
REMARK  0 active torsions:
REMARK  status: ('A' for Active; 'I' for Inactive)
REMARK                            x       y       z     vdW  Elec       q    Type
REMARK                         _______ _______ _______ _____ _____    ______ ____
ROOT
ATOM      1  C1  UNL     1     -26.672   2.735 -37.945  0.00  0.00    +0.000 C 
ATOM      2  C2  UNL     1     -27.772   3.679 -38.356  0.00  0.00    +0.000 C 
ATOM      3  C3  UNL     1     -27.904   2.205 -38.632  0.00  0.00    +0.000 C 
ATOM      4  C4  UNL     1     -27.428   4.662 -39.435  0.00  0.00    +0.000 C 
ATOM      5  N1  UNL     1     -26.189   5.328 -39.048  0.00  0.00    +0.000 NA
ATOM      6  C5  UNL     1     -25.050   4.414 -38.871  0.00  0.00    +0.000 C 
ATOM      7  C6  UNL     1     -25.382   2.920 -38.688  0.00  0.00    +0.000 C 
ATOM      8  H7  UNL     1     -25.951   6.047 -39.727  0.00  0.00    +0.000 HD
ENDROOT
TORSDOF 0
ENDMDL
MODEL 7
REMARK VINA RESULT:    -3.009      7.446      8.839
REMARK INTER + INTRA:          -3.009
REMARK INTER:                  -3.009
REMARK INTRA:                   0.000
REMARK UNBOUND:                 0.000
REMARK  Name = /home/anacleto/Desktop/manuscript_Mpro/naturecomm/supplementary_file_S2/6-chemical-library/molecular_docking/3D_ligand_structure/375.pdb
REMARK  0 active torsions:
REMARK  status: ('A' for Active; 'I' for Inactive)
REMARK                            x       y       z     vdW  Elec       q    Type
REMARK                         _______ _______ _______ _____ _____    ______ ____
ROOT
ATOM      1  C1  UNL     1     -27.658   2.718 -38.564  0.00  0.00    +0.000 C 
ATOM      2  C2  UNL     1     -26.164   2.684 -38.758  0.00  0.00    +0.000 C 
ATOM      3  C3  UNL     1     -26.780   2.041 -37.543  0.00  0.00    +0.000 C 
ATOM      4  C4  UNL     1     -25.461   4.006 -38.688  0.00  0.00    +0.000 C 
ATOM      5  N1  UNL     1     -26.156   4.925 -39.583  0.00  0.00    +0.000 NA
ATOM      6  C5  UNL     1     -27.572   5.132 -39.245  0.00  0.00    +0.000 C 
ATOM      7  C6  UNL     1     -28.225   4.085 -38.323  0.00  0.00    +0.000 C 
ATOM      8  H7  UNL     1     -25.673   5.820 -39.610  0.00  0.00    +0.000 HD
ENDROOT
TORSDOF 0
ENDMDL
MODEL 8
REMARK VINA RESULT:    -2.998     15.353     16.608
REMARK INTER + INTRA:          -2.998
REMARK INTER:                  -2.998
REMARK INTRA:                   0.000
REMARK UNBOUND:                 0.000
REMARK  Name = /home/anacleto/Desktop/manuscript_Mpro/naturecomm/supplementary_file_S2/6-chemical-library/molecular_docking/3D_ligand_structure/375.pdb
REMARK  0 active torsions:
REMARK  status: ('A' for Active; 'I' for Inactive)
REMARK                            x       y       z     vdW  Elec       q    Type
REMARK                         _______ _______ _______ _____ _____    ______ ____
ROOT
ATOM      1  C1  UNL     1     -36.171  12.032 -32.360  0.00  0.00    +0.000 C 
ATOM      2  C2  UNL     1     -35.622  10.934 -33.233  0.00  0.00    +0.000 C 
ATOM      3  C3  UNL     1     -36.642  10.613 -32.172  0.00  0.00    +0.000 C 
ATOM      4  C4  UNL     1     -34.167  10.619 -33.057  0.00  0.00    +0.000 C 
ATOM      5  N1  UNL     1     -33.428  11.874 -33.147  0.00  0.00    +0.000 NA
ATOM      6  C5  UNL     1     -33.814  12.868 -32.134  0.00  0.00    +0.000 C 
ATOM      7  C6  UNL     1     -35.169  12.652 -31.432  0.00  0.00    +0.000 C 
ATOM      8  H7  UNL     1     -32.427  11.696 -33.091  0.00  0.00    +0.000 HD
ENDROOT
TORSDOF 0
ENDMDL
MODEL 9
REMARK VINA RESULT:    -2.974      8.134      9.487
REMARK INTER + INTRA:          -2.974
REMARK INTER:                  -2.974
REMARK INTRA:                   0.000
REMARK UNBOUND:                 0.000
REMARK  Name = /home/anacleto/Desktop/manuscript_Mpro/naturecomm/supplementary_file_S2/6-chemical-library/molecular_docking/3D_ligand_structure/375.pdb
REMARK  0 active torsions:
REMARK  status: ('A' for Active; 'I' for Inactive)
REMARK                            x       y       z     vdW  Elec       q    Type
REMARK                         _______ _______ _______ _____ _____    ______ ____
ROOT
ATOM      1  C1  UNL     1     -26.107   2.581 -38.459  0.00  0.00    +0.000 C 
ATOM      2  C2  UNL     1     -25.540   2.905 -39.817  0.00  0.00    +0.000 C 
ATOM      3  C3  UNL     1     -25.265   3.816 -38.650  0.00  0.00    +0.000 C 
ATOM      4  C4  UNL     1     -26.538   3.255 -40.880  0.00  0.00    +0.000 C 
ATOM      5  N1  UNL     1     -27.554   2.208 -40.895  0.00  0.00    +0.000 NA
ATOM      6  C5  UNL     1     -28.269   2.051 -39.620  0.00  0.00    +0.000 C 
ATOM      7  C6  UNL     1     -27.602   2.661 -38.371  0.00  0.00    +0.000 C 
ATOM      8  H7  UNL     1     -28.220   2.377 -41.645  0.00  0.00    +0.000 HD
ENDROOT
TORSDOF 0
ENDMDL
