MODEL 1
REMARK VINA RESULT:    -4.880      0.000      0.000
REMARK INTER + INTRA:          -5.678
REMARK INTER:                  -5.483
REMARK INTRA:                  -0.196
REMARK UNBOUND:                -0.228
REMARK  Name = /home/anacleto/Desktop/manuscript_Mpro/naturecomm/supplementary_file_S2/6-chemical-library/molecular_docking/3D_ligand_structure/910.pdb
REMARK  2 active torsions:
REMARK  status: ('A' for Active; 'I' for Inactive)
REMARK    1  A    between atoms: C4_5  and  C5_6
REMARK    2  A    between atoms: N1_8  and  C6_9
REMARK                            x       y       z     vdW  Elec       q    Type
REMARK                         _______ _______ _______ _____ _____    ______ ____
ROOT
ATOM      1  C5  UNL     1      14.298  14.548  -2.733  0.00  0.00    +0.000 C 
ATOM      2  O2  UNL     1      15.158  13.984  -2.060  0.00  0.00    +0.000 OA
ATOM      3  N1  UNL     1      13.987  14.158  -4.020  0.00  0.00    +0.000 N 
ATOM      4  H4  UNL     1      13.176  14.606  -4.434  0.00  0.00    +0.000 HD
ENDROOT
BRANCH   3   5
ATOM      5  C6  UNL     1      14.545  12.961  -4.635  0.00  0.00    +0.000 C 
ATOM      6  C7  UNL     1      15.826  13.289  -5.415  0.00  0.00    +0.000 C 
ATOM      7  C8  UNL     1      15.554  13.391  -6.912  0.00  0.00    +0.000 C 
ATOM      8  N2  UNL     1      15.036  12.143  -7.471  0.00  0.00    +0.000 NA
ATOM      9  C9  UNL     1      14.153  11.399  -6.571  0.00  0.00    +0.000 C 
ATOM     10  C10 UNL     1      13.492  12.272  -5.513  0.00  0.00    +0.000 C 
ATOM     11  H10 UNL     1      14.560  12.337  -8.352  0.00  0.00    +0.000 HD
ENDBRANCH   3   5
BRANCH   1  16
ATOM     12  O1  UNL     1      13.945  16.946  -2.484  0.00  0.00    +0.000 OA
ATOM     13  C1  UNL     1      13.027  17.783  -1.936  0.00  0.00    +0.000 A 
ATOM     14  C2  UNL     1      12.005  17.069  -1.356  0.00  0.00    +0.000 A 
ATOM     15  C3  UNL     1      12.315  15.703  -1.562  0.00  0.00    +0.000 A 
ATOM     16  C4  UNL     1      13.511  15.665  -2.253  0.00  0.00    +0.000 A 
ENDBRANCH   1  16
TORSDOF 2
ENDMDL
MODEL 2
REMARK VINA RESULT:    -4.713     16.357     17.657
REMARK INTER + INTRA:          -5.492
REMARK INTER:                  -5.348
REMARK INTRA:                  -0.144
REMARK UNBOUND:                -0.228
REMARK  Name = /home/anacleto/Desktop/manuscript_Mpro/naturecomm/supplementary_file_S2/6-chemical-library/molecular_docking/3D_ligand_structure/910.pdb
REMARK  2 active torsions:
REMARK  status: ('A' for Active; 'I' for Inactive)
REMARK    1  A    between atoms: C4_5  and  C5_6
REMARK    2  A    between atoms: N1_8  and  C6_9
REMARK                            x       y       z     vdW  Elec       q    Type
REMARK                         _______ _______ _______ _____ _____    ______ ____
ROOT
ATOM      1  C5  UNL     1      17.984   3.162   9.149  0.00  0.00    +0.000 C 
ATOM      2  O2  UNL     1      18.972   2.513   9.483  0.00  0.00    +0.000 OA
ATOM      3  N1  UNL     1      18.012   4.532   8.989  0.00  0.00    +0.000 N 
ATOM      4  H4  UNL     1      17.179   4.948   8.586  0.00  0.00    +0.000 HD
ENDROOT
BRANCH   3   5
ATOM      5  C6  UNL     1      19.245   5.306   9.060  0.00  0.00    +0.000 C 
ATOM      6  C7  UNL     1      19.600   5.641  10.515  0.00  0.00    +0.000 C 
ATOM      7  C8  UNL     1      19.207   7.071  10.868  0.00  0.00    +0.000 C 
ATOM      8  N2  UNL     1      19.892   8.059  10.036  0.00  0.00    +0.000 NA
ATOM      9  C9  UNL     1      20.113   7.635   8.652  0.00  0.00    +0.000 C 
ATOM     10  C10 UNL     1      19.137   6.562   8.186  0.00  0.00    +0.000 C 
ATOM     11  H10 UNL     1      19.375   8.938  10.057  0.00  0.00    +0.000 HD
ENDBRANCH   3   5
BRANCH   1  16
ATOM     12  O1  UNL     1      15.801   2.379   9.901  0.00  0.00    +0.000 OA
ATOM     13  C1  UNL     1      14.688   1.815   9.365  0.00  0.00    +0.000 A 
ATOM     14  C2  UNL     1      14.839   1.637   8.010  0.00  0.00    +0.000 A 
ATOM     15  C3  UNL     1      16.130   2.123   7.692  0.00  0.00    +0.000 A 
ATOM     16  C4  UNL     1      16.692   2.567   8.873  0.00  0.00    +0.000 A 
ENDBRANCH   1  16
TORSDOF 2
ENDMDL
MODEL 3
REMARK VINA RESULT:    -4.615      2.088      2.432
REMARK INTER + INTRA:          -5.383
REMARK INTER:                  -5.158
REMARK INTRA:                  -0.225
REMARK UNBOUND:                -0.228
REMARK  Name = /home/anacleto/Desktop/manuscript_Mpro/naturecomm/supplementary_file_S2/6-chemical-library/molecular_docking/3D_ligand_structure/910.pdb
REMARK  2 active torsions:
REMARK  status: ('A' for Active; 'I' for Inactive)
REMARK    1  A    between atoms: C4_5  and  C5_6
REMARK    2  A    between atoms: N1_8  and  C6_9
REMARK                            x       y       z     vdW  Elec       q    Type
REMARK                         _______ _______ _______ _____ _____    ______ ____
ROOT
ATOM      1  C5  UNL     1      15.143  15.288  -2.141  0.00  0.00    +0.000 C 
ATOM      2  O2  UNL     1      16.279  15.743  -2.035  0.00  0.00    +0.000 OA
ATOM      3  N1  UNL     1      14.894  13.984  -2.520  0.00  0.00    +0.000 N 
ATOM      4  H4  UNL     1      13.930  13.679  -2.449  0.00  0.00    +0.000 HD
ENDROOT
BRANCH   3   5
ATOM      5  C6  UNL     1      15.955  13.000  -2.685  0.00  0.00    +0.000 C 
ATOM      6  C7  UNL     1      16.259  12.762  -4.171  0.00  0.00    +0.000 C 
ATOM      7  C8  UNL     1      15.601  11.482  -4.675  0.00  0.00    +0.000 C 
ATOM      8  N2  UNL     1      16.071  10.295  -3.961  0.00  0.00    +0.000 NA
ATOM      9  C9  UNL     1      16.350  10.516  -2.541  0.00  0.00    +0.000 C 
ATOM     10  C10 UNL     1      15.595  11.701  -1.952  0.00  0.00    +0.000 C 
ATOM     11  H10 UNL     1      15.394   9.541  -4.074  0.00  0.00    +0.000 HD
ENDBRANCH   3   5
BRANCH   1  16
ATOM     12  O1  UNL     1      13.872  17.363  -2.282  0.00  0.00    +0.000 OA
ATOM     13  C1  UNL     1      12.656  17.834  -1.902  0.00  0.00    +0.000 A 
ATOM     14  C2  UNL     1      11.939  16.856  -1.254  0.00  0.00    +0.000 A 
ATOM     15  C3  UNL     1      12.768  15.710  -1.233  0.00  0.00    +0.000 A 
ATOM     16  C4  UNL     1      13.945  16.056  -1.869  0.00  0.00    +0.000 A 
ENDBRANCH   1  16
TORSDOF 2
ENDMDL
MODEL 4
REMARK VINA RESULT:    -4.530      1.861      2.175
REMARK INTER + INTRA:          -5.288
REMARK INTER:                  -5.064
REMARK INTRA:                  -0.224
REMARK UNBOUND:                -0.228
REMARK  Name = /home/anacleto/Desktop/manuscript_Mpro/naturecomm/supplementary_file_S2/6-chemical-library/molecular_docking/3D_ligand_structure/910.pdb
REMARK  2 active torsions:
REMARK  status: ('A' for Active; 'I' for Inactive)
REMARK    1  A    between atoms: C4_5  and  C5_6
REMARK    2  A    between atoms: N1_8  and  C6_9
REMARK                            x       y       z     vdW  Elec       q    Type
REMARK                         _______ _______ _______ _____ _____    ______ ____
ROOT
ATOM      1  C5  UNL     1      15.102  12.826  -2.680  0.00  0.00    +0.000 C 
ATOM      2  O2  UNL     1      15.406  11.807  -2.065  0.00  0.00    +0.000 OA
ATOM      3  N1  UNL     1      14.727  12.810  -4.008  0.00  0.00    +0.000 N 
ATOM      4  H4  UNL     1      14.373  13.685  -4.379  0.00  0.00    +0.000 HD
ENDROOT
BRANCH   3   5
ATOM      5  C6  UNL     1      14.520  11.573  -4.750  0.00  0.00    +0.000 C 
ATOM      6  C7  UNL     1      15.735  11.249  -5.631  0.00  0.00    +0.000 C 
ATOM      7  C8  UNL     1      15.488  11.640  -7.084  0.00  0.00    +0.000 C 
ATOM      8  N2  UNL     1      14.351  10.928  -7.667  0.00  0.00    +0.000 NA
ATOM      9  C9  UNL     1      13.252  10.678  -6.734  0.00  0.00    +0.000 C 
ATOM     10  C10 UNL     1      13.220  11.650  -5.561  0.00  0.00    +0.000 C 
ATOM     11  H10 UNL     1      14.013  11.438  -8.482  0.00  0.00    +0.000 HD
ENDBRANCH   3   5
BRANCH   1  16
ATOM     12  O1  UNL     1      16.070  14.495  -1.191  0.00  0.00    +0.000 OA
ATOM     13  C1  UNL     1      15.818  15.771  -0.798  0.00  0.00    +0.000 A 
ATOM     14  C2  UNL     1      14.693  16.256  -1.423  0.00  0.00    +0.000 A 
ATOM     15  C3  UNL     1      14.224  15.211  -2.254  0.00  0.00    +0.000 A 
ATOM     16  C4  UNL     1      15.089  14.147  -2.085  0.00  0.00    +0.000 A 
ENDBRANCH   1  16
TORSDOF 2
ENDMDL
MODEL 5
REMARK VINA RESULT:    -4.529      4.296      6.874
REMARK INTER + INTRA:          -5.287
REMARK INTER:                  -5.138
REMARK INTRA:                  -0.149
REMARK UNBOUND:                -0.228
REMARK  Name = /home/anacleto/Desktop/manuscript_Mpro/naturecomm/supplementary_file_S2/6-chemical-library/molecular_docking/3D_ligand_structure/910.pdb
REMARK  2 active torsions:
REMARK  status: ('A' for Active; 'I' for Inactive)
REMARK    1  A    between atoms: C4_5  and  C5_6
REMARK    2  A    between atoms: N1_8  and  C6_9
REMARK                            x       y       z     vdW  Elec       q    Type
REMARK                         _______ _______ _______ _____ _____    ______ ____
ROOT
ATOM      1  C5  UNL     1      13.023  18.888  -2.791  0.00  0.00    +0.000 C 
ATOM      2  O2  UNL     1      13.930  19.690  -2.579  0.00  0.00    +0.000 OA
ATOM      3  N1  UNL     1      11.997  19.143  -3.679  0.00  0.00    +0.000 N 
ATOM      4  H4  UNL     1      11.378  18.364  -3.874  0.00  0.00    +0.000 HD
ENDROOT
BRANCH   3   5
ATOM      5  C6  UNL     1      11.981  20.315  -4.545  0.00  0.00    +0.000 C 
ATOM      6  C7  UNL     1      11.414  21.536  -3.806  0.00  0.00    +0.000 C 
ATOM      7  C8  UNL     1       9.959  21.787  -4.183  0.00  0.00    +0.000 C 
ATOM      8  N2  UNL     1       9.791  22.053  -5.612  0.00  0.00    +0.000 NA
ATOM      9  C9  UNL     1      10.696  21.294  -6.477  0.00  0.00    +0.000 C 
ATOM     10  C10 UNL     1      11.213  20.012  -5.837  0.00  0.00    +0.000 C 
ATOM     11  H10 UNL     1       8.822  21.880  -5.878  0.00  0.00    +0.000 HD
ENDBRANCH   3   5
BRANCH   1  16
ATOM     12  O1  UNL     1      13.922  16.663  -2.366  0.00  0.00    +0.000 OA
ATOM     13  C1  UNL     1      13.590  15.556  -1.653  0.00  0.00    +0.000 A 
ATOM     14  C2  UNL     1      12.408  15.751  -0.978  0.00  0.00    +0.000 A 
ATOM     15  C3  UNL     1      11.986  17.063  -1.297  0.00  0.00    +0.000 A 
ATOM     16  C4  UNL     1      12.934  17.592  -2.151  0.00  0.00    +0.000 A 
ENDBRANCH   1  16
TORSDOF 2
ENDMDL
MODEL 6
REMARK VINA RESULT:    -4.369      4.481      5.284
REMARK INTER + INTRA:          -5.107
REMARK INTER:                  -4.887
REMARK INTRA:                  -0.221
REMARK UNBOUND:                -0.228
REMARK  Name = /home/anacleto/Desktop/manuscript_Mpro/naturecomm/supplementary_file_S2/6-chemical-library/molecular_docking/3D_ligand_structure/910.pdb
REMARK  2 active torsions:
REMARK  status: ('A' for Active; 'I' for Inactive)
REMARK    1  A    between atoms: C4_5  and  C5_6
REMARK    2  A    between atoms: N1_8  and  C6_9
REMARK                            x       y       z     vdW  Elec       q    Type
REMARK                         _______ _______ _______ _____ _____    ______ ____
ROOT
ATOM      1  C5  UNL     1      17.199  14.388  -0.508  0.00  0.00    +0.000 C 
ATOM      2  O2  UNL     1      16.162  15.036  -0.391  0.00  0.00    +0.000 OA
ATOM      3  N1  UNL     1      17.231  13.129  -1.072  0.00  0.00    +0.000 N 
ATOM      4  H4  UNL     1      18.154  12.742  -1.237  0.00  0.00    +0.000 HD
ENDROOT
BRANCH   3   5
ATOM      5  C6  UNL     1      16.068  12.523  -1.706  0.00  0.00    +0.000 C 
ATOM      6  C7  UNL     1      16.066  11.000  -1.511  0.00  0.00    +0.000 C 
ATOM      7  C8  UNL     1      16.565  10.280  -2.758  0.00  0.00    +0.000 C 
ATOM      8  N2  UNL     1      15.732  10.549  -3.929  0.00  0.00    +0.000 NA
ATOM      9  C9  UNL     1      15.188  11.907  -3.984  0.00  0.00    +0.000 C 
ATOM     10  C10 UNL     1      16.002  12.918  -3.187  0.00  0.00    +0.000 C 
ATOM     11  H10 UNL     1      16.261  10.347  -4.777  0.00  0.00    +0.000 HD
ENDBRANCH   3   5
BRANCH   1  16
ATOM     12  O1  UNL     1      18.693  16.220   0.088  0.00  0.00    +0.000 OA
ATOM     13  C1  UNL     1      19.981  16.389   0.483  0.00  0.00    +0.000 A 
ATOM     14  C2  UNL     1      20.623  15.177   0.573  0.00  0.00    +0.000 A 
ATOM     15  C3  UNL     1      19.667  14.198   0.209  0.00  0.00    +0.000 A 
ATOM     16  C4  UNL     1      18.497  14.873  -0.084  0.00  0.00    +0.000 A 
ENDBRANCH   1  16
TORSDOF 2
ENDMDL
MODEL 7
REMARK VINA RESULT:    -4.356      2.466      5.775
REMARK INTER + INTRA:          -5.094
REMARK INTER:                  -4.870
REMARK INTRA:                  -0.224
REMARK UNBOUND:                -0.228
REMARK  Name = /home/anacleto/Desktop/manuscript_Mpro/naturecomm/supplementary_file_S2/6-chemical-library/molecular_docking/3D_ligand_structure/910.pdb
REMARK  2 active torsions:
REMARK  status: ('A' for Active; 'I' for Inactive)
REMARK    1  A    between atoms: C4_5  and  C5_6
REMARK    2  A    between atoms: N1_8  and  C6_9
REMARK                            x       y       z     vdW  Elec       q    Type
REMARK                         _______ _______ _______ _____ _____    ______ ____
ROOT
ATOM      1  C5  UNL     1      15.150  13.560  -5.273  0.00  0.00    +0.000 C 
ATOM      2  O2  UNL     1      15.809  14.394  -5.889  0.00  0.00    +0.000 OA
ATOM      3  N1  UNL     1      14.978  13.609  -3.905  0.00  0.00    +0.000 N 
ATOM      4  H4  UNL     1      14.310  12.950  -3.519  0.00  0.00    +0.000 HD
ENDROOT
BRANCH   3   5
ATOM      5  C6  UNL     1      15.440  14.729  -3.095  0.00  0.00    +0.000 C 
ATOM      6  C7  UNL     1      16.804  14.424  -2.461  0.00  0.00    +0.000 C 
ATOM      7  C8  UNL     1      16.658  14.006  -1.002  0.00  0.00    +0.000 C 
ATOM      8  N2  UNL     1      16.044  15.050  -0.182  0.00  0.00    +0.000 NA
ATOM      9  C9  UNL     1      15.017  15.833  -0.871  0.00  0.00    +0.000 C 
ATOM     10  C10 UNL     1      14.383  15.100  -2.046  0.00  0.00    +0.000 C 
ATOM     11  H10 UNL     1      15.660  14.634   0.666  0.00  0.00    +0.000 HD
ENDBRANCH   3   5
BRANCH   1  16
ATOM     12  O1  UNL     1      13.384  11.880  -5.294  0.00  0.00    +0.000 OA
ATOM     13  C1  UNL     1      12.950  10.876  -6.099  0.00  0.00    +0.000 A 
ATOM     14  C2  UNL     1      13.734  10.785  -7.225  0.00  0.00    +0.000 A 
ATOM     15  C3  UNL     1      14.714  11.799  -7.104  0.00  0.00    +0.000 A 
ATOM     16  C4  UNL     1      14.471  12.449  -5.908  0.00  0.00    +0.000 A 
ENDBRANCH   1  16
TORSDOF 2
ENDMDL
MODEL 8
REMARK VINA RESULT:    -4.340     17.237     18.182
REMARK INTER + INTRA:          -5.075
REMARK INTER:                  -4.851
REMARK INTRA:                  -0.224
REMARK UNBOUND:                -0.228
REMARK  Name = /home/anacleto/Desktop/manuscript_Mpro/naturecomm/supplementary_file_S2/6-chemical-library/molecular_docking/3D_ligand_structure/910.pdb
REMARK  2 active torsions:
REMARK  status: ('A' for Active; 'I' for Inactive)
REMARK    1  A    between atoms: C4_5  and  C5_6
REMARK    2  A    between atoms: N1_8  and  C6_9
REMARK                            x       y       z     vdW  Elec       q    Type
REMARK                         _______ _______ _______ _____ _____    ______ ____
ROOT
ATOM      1  C5  UNL     1      18.824   7.505  12.752  0.00  0.00    +0.000 C 
ATOM      2  O2  UNL     1      19.781   8.138  13.193  0.00  0.00    +0.000 OA
ATOM      3  N1  UNL     1      18.779   7.030  11.456  0.00  0.00    +0.000 N 
ATOM      4  H4  UNL     1      18.005   6.412  11.239  0.00  0.00    +0.000 HD
ENDROOT
BRANCH   3   5
ATOM      5  C6  UNL     1      19.916   7.113  10.550  0.00  0.00    +0.000 C 
ATOM      6  C7  UNL     1      19.453   7.365   9.108  0.00  0.00    +0.000 C 
ATOM      7  C8  UNL     1      19.461   6.078   8.289  0.00  0.00    +0.000 C 
ATOM      8  N2  UNL     1      20.794   5.484   8.198  0.00  0.00    +0.000 NA
ATOM      9  C9  UNL     1      21.609   5.640   9.405  0.00  0.00    +0.000 C 
ATOM     10  C10 UNL     1      20.784   5.853  10.668  0.00  0.00    +0.000 C 
ATOM     11  H10 UNL     1      20.710   4.497   7.955  0.00  0.00    +0.000 HD
ENDBRANCH   3   5
BRANCH   1  16
ATOM     12  O1  UNL     1      17.126   8.110  14.392  0.00  0.00    +0.000 OA
ATOM     13  C1  UNL     1      16.048   7.542  14.991  0.00  0.00    +0.000 A 
ATOM     14  C2  UNL     1      15.864   6.256  14.538  0.00  0.00    +0.000 A 
ATOM     15  C3  UNL     1      16.897   6.019  13.600  0.00  0.00    +0.000 A 
ATOM     16  C4  UNL     1      17.653   7.174  13.537  0.00  0.00    +0.000 A 
ENDBRANCH   1  16
TORSDOF 2
ENDMDL
MODEL 9
REMARK VINA RESULT:    -4.105      4.876      6.777
REMARK INTER + INTRA:          -4.814
REMARK INTER:                  -4.585
REMARK INTRA:                  -0.228
REMARK UNBOUND:                -0.228
REMARK  Name = /home/anacleto/Desktop/manuscript_Mpro/naturecomm/supplementary_file_S2/6-chemical-library/molecular_docking/3D_ligand_structure/910.pdb
REMARK  2 active torsions:
REMARK  status: ('A' for Active; 'I' for Inactive)
REMARK    1  A    between atoms: C4_5  and  C5_6
REMARK    2  A    between atoms: N1_8  and  C6_9
REMARK                            x       y       z     vdW  Elec       q    Type
REMARK                         _______ _______ _______ _____ _____    ______ ____
ROOT
ATOM      1  C5  UNL     1      16.979  13.577  -1.297  0.00  0.00    +0.000 C 
ATOM      2  O2  UNL     1      16.921  12.619  -0.530  0.00  0.00    +0.000 OA
ATOM      3  N1  UNL     1      17.750  14.693  -1.039  0.00  0.00    +0.000 N 
ATOM      4  H4  UNL     1      17.826  15.362  -1.797  0.00  0.00    +0.000 HD
ENDROOT
BRANCH   3   5
ATOM      5  C6  UNL     1      18.670  14.767   0.088  0.00  0.00    +0.000 C 
ATOM      6  C7  UNL     1      18.594  16.141   0.769  0.00  0.00    +0.000 C 
ATOM      7  C8  UNL     1      19.750  17.038   0.340  0.00  0.00    +0.000 C 
ATOM      8  N2  UNL     1      21.053  16.474   0.689  0.00  0.00    +0.000 NA
ATOM      9  C9  UNL     1      21.126  15.015   0.589  0.00  0.00    +0.000 C 
ATOM     10  C10 UNL     1      20.095  14.422  -0.363  0.00  0.00    +0.000 C 
ATOM     11  H10 UNL     1      21.775  16.903   0.110  0.00  0.00    +0.000 HD
ENDBRANCH   3   5
BRANCH   1  16
ATOM     12  O1  UNL     1      14.998  13.114  -2.639  0.00  0.00    +0.000 OA
ATOM     13  C1  UNL     1      14.569  13.308  -3.913  0.00  0.00    +0.000 A 
ATOM     14  C2  UNL     1      15.532  13.951  -4.655  0.00  0.00    +0.000 A 
ATOM     15  C3  UNL     1      16.624  14.166  -3.780  0.00  0.00    +0.000 A 
ATOM     16  C4  UNL     1      16.263  13.639  -2.555  0.00  0.00    +0.000 A 
ENDBRANCH   1  16
TORSDOF 2
ENDMDL
