MODEL 1
REMARK VINA RESULT:    -5.036      0.000      0.000
REMARK INTER + INTRA:          -5.861
REMARK INTER:                  -5.617
REMARK INTRA:                  -0.244
REMARK UNBOUND:                -0.235
REMARK  Name = /home/anacleto/Desktop/manuscript_Mpro/naturecomm/supplementary_file_S2/6-chemical-library/molecular_docking/3D_ligand_structure/962.pdb
REMARK  2 active torsions:
REMARK  status: ('A' for Active; 'I' for Inactive)
REMARK    1  A    between atoms: C2_5  and  C3_6
REMARK    2  A    between atoms: N4_8  and  C4_9
REMARK                            x       y       z     vdW  Elec       q    Type
REMARK                         _______ _______ _______ _____ _____    ______ ____
ROOT
ATOM      1  C3  UNL     1      17.414   3.832   9.542  0.00  0.00    +0.000 C 
ATOM      2  O1  UNL     1      17.585   3.913  10.753  0.00  0.00    +0.000 OA
ATOM      3  N4  UNL     1      18.090   4.556   8.571  0.00  0.00    +0.000 N 
ATOM      4  H3  UNL     1      17.795   4.334   7.622  0.00  0.00    +0.000 HD
ENDROOT
BRANCH   1   9
ATOM      5  N1  UNL     1      16.506   2.491   7.653  0.00  0.00    +0.000 NA
ATOM      6  N2  UNL     1      15.426   1.694   7.553  0.00  0.00    +0.000 N 
ATOM      7  C1  UNL     1      14.737   1.642   8.720  0.00  0.00    +0.000 A 
ATOM      8  N3  UNL     1      15.332   2.392   9.613  0.00  0.00    +0.000 NA
ATOM      9  C2  UNL     1      16.421   2.908   8.938  0.00  0.00    +0.000 A 
ATOM     10  H1  UNL     1      15.228   1.229   6.674  0.00  0.00    +0.000 HD
ENDBRANCH   1   9
BRANCH   3  11
ATOM     11  C4  UNL     1      19.097   5.521   8.736  0.00  0.00    +0.000 A 
ATOM     12  C5  UNL     1      20.405   5.055   8.909  0.00  0.00    +0.000 A 
ATOM     13  C6  UNL     1      21.464   5.951   9.079  0.00  0.00    +0.000 A 
ATOM     14  C7  UNL     1      21.223   7.321   9.077  0.00  0.00    +0.000 A 
ATOM     15  C8  UNL     1      19.925   7.794   8.905  0.00  0.00    +0.000 A 
ATOM     16  C9  UNL     1      18.863   6.897   8.734  0.00  0.00    +0.000 A 
ENDBRANCH   3  11
TORSDOF 2
ENDMDL
MODEL 2
REMARK VINA RESULT:    -4.945     16.216     17.147
REMARK INTER + INTRA:          -5.758
REMARK INTER:                  -5.527
REMARK INTRA:                  -0.231
REMARK UNBOUND:                -0.235
REMARK  Name = /home/anacleto/Desktop/manuscript_Mpro/naturecomm/supplementary_file_S2/6-chemical-library/molecular_docking/3D_ligand_structure/962.pdb
REMARK  2 active torsions:
REMARK  status: ('A' for Active; 'I' for Inactive)
REMARK    1  A    between atoms: C2_5  and  C3_6
REMARK    2  A    between atoms: N4_8  and  C4_9
REMARK                            x       y       z     vdW  Elec       q    Type
REMARK                         _______ _______ _______ _____ _____    ______ ____
ROOT
ATOM      1  C3  UNL     1      14.363  14.825  -2.663  0.00  0.00    +0.000 C 
ATOM      2  O1  UNL     1      15.308  14.381  -2.021  0.00  0.00    +0.000 OA
ATOM      3  N4  UNL     1      13.971  14.416  -3.929  0.00  0.00    +0.000 N 
ATOM      4  H3  UNL     1      13.158  14.915  -4.282  0.00  0.00    +0.000 HD
ENDROOT
BRANCH   1   9
ATOM      5  N1  UNL     1      13.761  17.215  -2.322  0.00  0.00    +0.000 NA
ATOM      6  N2  UNL     1      12.721  17.801  -1.702  0.00  0.00    +0.000 N 
ATOM      7  C1  UNL     1      11.868  16.882  -1.183  0.00  0.00    +0.000 A 
ATOM      8  N3  UNL     1      12.315  15.678  -1.441  0.00  0.00    +0.000 NA
ATOM      9  C2  UNL     1      13.483  15.902  -2.144  0.00  0.00    +0.000 A 
ATOM     10  H1  UNL     1      12.660  18.812  -1.674  0.00  0.00    +0.000 HD
ENDBRANCH   1   9
BRANCH   3  11
ATOM     11  C4  UNL     1      14.542  13.429  -4.750  0.00  0.00    +0.000 A 
ATOM     12  C5  UNL     1      15.427  13.860  -5.745  0.00  0.00    +0.000 A 
ATOM     13  C6  UNL     1      16.038  12.942  -6.602  0.00  0.00    +0.000 A 
ATOM     14  C7  UNL     1      15.769  11.583  -6.472  0.00  0.00    +0.000 A 
ATOM     15  C8  UNL     1      14.890  11.145  -5.485  0.00  0.00    +0.000 A 
ATOM     16  C9  UNL     1      14.277  12.064  -4.626  0.00  0.00    +0.000 A 
ENDBRANCH   3  11
TORSDOF 2
ENDMDL
MODEL 3
REMARK VINA RESULT:    -4.784      1.771      5.908
REMARK INTER + INTRA:          -5.579
REMARK INTER:                  -5.344
REMARK INTRA:                  -0.235
REMARK UNBOUND:                -0.235
REMARK  Name = /home/anacleto/Desktop/manuscript_Mpro/naturecomm/supplementary_file_S2/6-chemical-library/molecular_docking/3D_ligand_structure/962.pdb
REMARK  2 active torsions:
REMARK  status: ('A' for Active; 'I' for Inactive)
REMARK    1  A    between atoms: C2_5  and  C3_6
REMARK    2  A    between atoms: N4_8  and  C4_9
REMARK                            x       y       z     vdW  Elec       q    Type
REMARK                         _______ _______ _______ _____ _____    ______ ____
ROOT
ATOM      1  C3  UNL     1      18.525   4.343   9.371  0.00  0.00    +0.000 C 
ATOM      2  O1  UNL     1      19.169   3.412   9.845  0.00  0.00    +0.000 OA
ATOM      3  N4  UNL     1      17.245   4.266   8.843  0.00  0.00    +0.000 N 
ATOM      4  H3  UNL     1      16.894   5.158   8.503  0.00  0.00    +0.000 HD
ENDROOT
BRANCH   1   9
ATOM      5  N1  UNL     1      19.490   6.393  10.400  0.00  0.00    +0.000 NA
ATOM      6  N2  UNL     1      19.871   7.570   9.872  0.00  0.00    +0.000 N 
ATOM      7  C1  UNL     1      19.677   7.600   8.530  0.00  0.00    +0.000 A 
ATOM      8  N3  UNL     1      19.168   6.459   8.137  0.00  0.00    +0.000 NA
ATOM      9  C2  UNL     1      19.059   5.726   9.303  0.00  0.00    +0.000 A 
ATOM     10  H1  UNL     1      20.248   8.291  10.478  0.00  0.00    +0.000 HD
ENDBRANCH   1   9
BRANCH   3  11
ATOM     11  C4  UNL     1      16.409   3.144   8.727  0.00  0.00    +0.000 A 
ATOM     12  C5  UNL     1      15.541   2.882   9.794  0.00  0.00    +0.000 A 
ATOM     13  C6  UNL     1      14.675   1.786   9.757  0.00  0.00    +0.000 A 
ATOM     14  C7  UNL     1      14.671   0.941   8.651  0.00  0.00    +0.000 A 
ATOM     15  C8  UNL     1      15.531   1.193   7.586  0.00  0.00    +0.000 A 
ATOM     16  C9  UNL     1      16.398   2.291   7.622  0.00  0.00    +0.000 A 
ENDBRANCH   3  11
TORSDOF 2
ENDMDL
MODEL 4
REMARK VINA RESULT:    -4.717     14.451     15.667
REMARK INTER + INTRA:          -5.504
REMARK INTER:                  -5.272
REMARK INTRA:                  -0.231
REMARK UNBOUND:                -0.235
REMARK  Name = /home/anacleto/Desktop/manuscript_Mpro/naturecomm/supplementary_file_S2/6-chemical-library/molecular_docking/3D_ligand_structure/962.pdb
REMARK  2 active torsions:
REMARK  status: ('A' for Active; 'I' for Inactive)
REMARK    1  A    between atoms: C2_5  and  C3_6
REMARK    2  A    between atoms: N4_8  and  C4_9
REMARK                            x       y       z     vdW  Elec       q    Type
REMARK                         _______ _______ _______ _____ _____    ______ ____
ROOT
ATOM      1  C3  UNL     1      15.359  16.210  -1.893  0.00  0.00    +0.000 C 
ATOM      2  O1  UNL     1      16.028  16.333  -2.913  0.00  0.00    +0.000 OA
ATOM      3  N4  UNL     1      15.808  15.724  -0.674  0.00  0.00    +0.000 N 
ATOM      4  H3  UNL     1      15.088  15.707   0.044  0.00  0.00    +0.000 HD
ENDROOT
BRANCH   1   9
ATOM      5  N1  UNL     1      13.492  17.848  -2.047  0.00  0.00    +0.000 NA
ATOM      6  N2  UNL     1      12.162  17.713  -1.896  0.00  0.00    +0.000 N 
ATOM      7  C1  UNL     1      11.821  16.432  -1.608  0.00  0.00    +0.000 A 
ATOM      8  N3  UNL     1      12.902  15.693  -1.561  0.00  0.00    +0.000 NA
ATOM      9  C2  UNL     1      13.923  16.582  -1.834  0.00  0.00    +0.000 A 
ATOM     10  H1  UNL     1      11.562  18.523  -2.002  0.00  0.00    +0.000 HD
ENDBRANCH   1   9
BRANCH   3  11
ATOM     11  C4  UNL     1      17.092  15.273  -0.327  0.00  0.00    +0.000 A 
ATOM     12  C5  UNL     1      17.915  16.165   0.371  0.00  0.00    +0.000 A 
ATOM     13  C6  UNL     1      19.206  15.793   0.753  0.00  0.00    +0.000 A 
ATOM     14  C7  UNL     1      19.686  14.525   0.441  0.00  0.00    +0.000 A 
ATOM     15  C8  UNL     1      18.875  13.632  -0.254  0.00  0.00    +0.000 A 
ATOM     16  C9  UNL     1      17.581  14.003  -0.637  0.00  0.00    +0.000 A 
ENDBRANCH   3  11
TORSDOF 2
ENDMDL
MODEL 5
REMARK VINA RESULT:    -4.705     16.078     17.271
REMARK INTER + INTRA:          -5.490
REMARK INTER:                  -5.267
REMARK INTRA:                  -0.223
REMARK UNBOUND:                -0.235
REMARK  Name = /home/anacleto/Desktop/manuscript_Mpro/naturecomm/supplementary_file_S2/6-chemical-library/molecular_docking/3D_ligand_structure/962.pdb
REMARK  2 active torsions:
REMARK  status: ('A' for Active; 'I' for Inactive)
REMARK    1  A    between atoms: C2_5  and  C3_6
REMARK    2  A    between atoms: N4_8  and  C4_9
REMARK                            x       y       z     vdW  Elec       q    Type
REMARK                         _______ _______ _______ _____ _____    ______ ____
ROOT
ATOM      1  C3  UNL     1      14.665  13.525  -3.307  0.00  0.00    +0.000 C 
ATOM      2  O1  UNL     1      15.020  12.491  -2.750  0.00  0.00    +0.000 OA
ATOM      3  N4  UNL     1      14.209  13.636  -4.612  0.00  0.00    +0.000 N 
ATOM      4  H3  UNL     1      13.965  14.587  -4.876  0.00  0.00    +0.000 HD
ENDROOT
BRANCH   1   9
ATOM      5  N1  UNL     1      13.549  15.446  -2.187  0.00  0.00    +0.000 NA
ATOM      6  N2  UNL     1      14.034  16.580  -1.650  0.00  0.00    +0.000 N 
ATOM      7  C1  UNL     1      15.384  16.645  -1.761  0.00  0.00    +0.000 A 
ATOM      8  N3  UNL     1      15.825  15.571  -2.368  0.00  0.00    +0.000 NA
ATOM      9  C2  UNL     1      14.680  14.842  -2.623  0.00  0.00    +0.000 A 
ATOM     10  H1  UNL     1      13.396  17.249  -1.234  0.00  0.00    +0.000 HD
ENDBRANCH   1   9
BRANCH   3  11
ATOM     11  C4  UNL     1      14.050  12.626  -5.576  0.00  0.00    +0.000 A 
ATOM     12  C5  UNL     1      12.906  11.825  -5.478  0.00  0.00    +0.000 A 
ATOM     13  C6  UNL     1      12.672  10.799  -6.398  0.00  0.00    +0.000 A 
ATOM     14  C7  UNL     1      13.582  10.566  -7.424  0.00  0.00    +0.000 A 
ATOM     15  C8  UNL     1      14.723  11.357  -7.529  0.00  0.00    +0.000 A 
ATOM     16  C9  UNL     1      14.958  12.385  -6.608  0.00  0.00    +0.000 A 
ENDBRANCH   3  11
TORSDOF 2
ENDMDL
MODEL 6
REMARK VINA RESULT:    -4.685     14.899     15.892
REMARK INTER + INTRA:          -5.468
REMARK INTER:                  -5.220
REMARK INTRA:                  -0.248
REMARK UNBOUND:                -0.235
REMARK  Name = /home/anacleto/Desktop/manuscript_Mpro/naturecomm/supplementary_file_S2/6-chemical-library/molecular_docking/3D_ligand_structure/962.pdb
REMARK  2 active torsions:
REMARK  status: ('A' for Active; 'I' for Inactive)
REMARK    1  A    between atoms: C2_5  and  C3_6
REMARK    2  A    between atoms: N4_8  and  C4_9
REMARK                            x       y       z     vdW  Elec       q    Type
REMARK                         _______ _______ _______ _____ _____    ______ ____
ROOT
ATOM      1  C3  UNL     1      14.601  13.248  -3.512  0.00  0.00    +0.000 C 
ATOM      2  O1  UNL     1      14.123  13.498  -4.614  0.00  0.00    +0.000 OA
ATOM      3  N4  UNL     1      14.528  14.056  -2.388  0.00  0.00    +0.000 N 
ATOM      4  H3  UNL     1      14.991  13.659  -1.574  0.00  0.00    +0.000 HD
ENDROOT
BRANCH   1   9
ATOM      5  N1  UNL     1      15.804  11.189  -4.221  0.00  0.00    +0.000 NA
ATOM      6  N2  UNL     1      16.399  10.208  -3.519  0.00  0.00    +0.000 N 
ATOM      7  C1  UNL     1      16.300  10.422  -2.183  0.00  0.00    +0.000 A 
ATOM      8  N3  UNL     1      15.645  11.535  -1.967  0.00  0.00    +0.000 NA
ATOM      9  C2  UNL     1      15.347  11.996  -3.234  0.00  0.00    +0.000 A 
ATOM     10  H1  UNL     1      16.843   9.440  -4.010  0.00  0.00    +0.000 HD
ENDBRANCH   1   9
BRANCH   3  11
ATOM     11  C4  UNL     1      13.912  15.310  -2.245  0.00  0.00    +0.000 A 
ATOM     12  C5  UNL     1      14.724  16.441  -2.393  0.00  0.00    +0.000 A 
ATOM     13  C6  UNL     1      14.188  17.725  -2.267  0.00  0.00    +0.000 A 
ATOM     14  C7  UNL     1      12.834  17.890  -1.991  0.00  0.00    +0.000 A 
ATOM     15  C8  UNL     1      12.019  16.771  -1.842  0.00  0.00    +0.000 A 
ATOM     16  C9  UNL     1      12.554  15.484  -1.968  0.00  0.00    +0.000 A 
ENDBRANCH   3  11
TORSDOF 2
ENDMDL
MODEL 7
REMARK VINA RESULT:    -4.638     15.852     16.617
REMARK INTER + INTRA:          -5.416
REMARK INTER:                  -5.183
REMARK INTRA:                  -0.233
REMARK UNBOUND:                -0.235
REMARK  Name = /home/anacleto/Desktop/manuscript_Mpro/naturecomm/supplementary_file_S2/6-chemical-library/molecular_docking/3D_ligand_structure/962.pdb
REMARK  2 active torsions:
REMARK  status: ('A' for Active; 'I' for Inactive)
REMARK    1  A    between atoms: C2_5  and  C3_6
REMARK    2  A    between atoms: N4_8  and  C4_9
REMARK                            x       y       z     vdW  Elec       q    Type
REMARK                         _______ _______ _______ _____ _____    ______ ____
ROOT
ATOM      1  C3  UNL     1      14.828  13.344  -5.343  0.00  0.00    +0.000 C 
ATOM      2  O1  UNL     1      15.605  14.186  -5.782  0.00  0.00    +0.000 OA
ATOM      3  N4  UNL     1      14.328  13.288  -4.051  0.00  0.00    +0.000 N 
ATOM      4  H3  UNL     1      13.695  12.506  -3.896  0.00  0.00    +0.000 HD
ENDROOT
BRANCH   1   9
ATOM      5  N1  UNL     1      14.969  11.764  -7.260  0.00  0.00    +0.000 NA
ATOM      6  N2  UNL     1      14.143  10.792  -7.687  0.00  0.00    +0.000 N 
ATOM      7  C1  UNL     1      13.044  10.690  -6.898  0.00  0.00    +0.000 A 
ATOM      8  N3  UNL     1      13.111  11.580  -5.939  0.00  0.00    +0.000 NA
ATOM      9  C2  UNL     1      14.305  12.234  -6.178  0.00  0.00    +0.000 A 
ATOM     10  H1  UNL     1      14.390  10.251  -8.508  0.00  0.00    +0.000 HD
ENDBRANCH   1   9
BRANCH   3  11
ATOM     11  C4  UNL     1      14.581  14.151  -2.972  0.00  0.00    +0.000 A 
ATOM     12  C5  UNL     1      15.789  13.977  -2.286  0.00  0.00    +0.000 A 
ATOM     13  C6  UNL     1      16.117  14.795  -1.201  0.00  0.00    +0.000 A 
ATOM     14  C7  UNL     1      15.239  15.794  -0.794  0.00  0.00    +0.000 A 
ATOM     15  C8  UNL     1      14.035  15.974  -1.471  0.00  0.00    +0.000 A 
ATOM     16  C9  UNL     1      13.706  15.156  -2.557  0.00  0.00    +0.000 A 
ENDBRANCH   3  11
TORSDOF 2
ENDMDL
MODEL 8
REMARK VINA RESULT:    -4.508     13.975     14.724
REMARK INTER + INTRA:          -5.270
REMARK INTER:                  -5.042
REMARK INTRA:                  -0.228
REMARK UNBOUND:                -0.235
REMARK  Name = /home/anacleto/Desktop/manuscript_Mpro/naturecomm/supplementary_file_S2/6-chemical-library/molecular_docking/3D_ligand_structure/962.pdb
REMARK  2 active torsions:
REMARK  status: ('A' for Active; 'I' for Inactive)
REMARK    1  A    between atoms: C2_5  and  C3_6
REMARK    2  A    between atoms: N4_8  and  C4_9
REMARK                            x       y       z     vdW  Elec       q    Type
REMARK                         _______ _______ _______ _____ _____    ______ ____
ROOT
ATOM      1  C3  UNL     1      15.567  13.029  -3.732  0.00  0.00    +0.000 C 
ATOM      2  O1  UNL     1      15.746  14.148  -4.200  0.00  0.00    +0.000 OA
ATOM      3  N4  UNL     1      16.199  12.498  -2.617  0.00  0.00    +0.000 N 
ATOM      4  H3  UNL     1      15.903  11.550  -2.398  0.00  0.00    +0.000 HD
ENDROOT
BRANCH   1   9
ATOM      5  N1  UNL     1      14.547  10.768  -3.930  0.00  0.00    +0.000 NA
ATOM      6  N2  UNL     1      13.567  10.289  -4.718  0.00  0.00    +0.000 N 
ATOM      7  C1  UNL     1      13.074  11.250  -5.539  0.00  0.00    +0.000 A 
ATOM      8  N3  UNL     1      13.705  12.377  -5.321  0.00  0.00    +0.000 NA
ATOM      9  C2  UNL     1      14.610  12.062  -4.325  0.00  0.00    +0.000 A 
ATOM     10  H1  UNL     1      13.294   9.316  -4.641  0.00  0.00    +0.000 HD
ENDBRANCH   1   9
BRANCH   3  11
ATOM     11  C4  UNL     1      17.162  13.094  -1.786  0.00  0.00    +0.000 A 
ATOM     12  C5  UNL     1      18.469  12.602  -1.870  0.00  0.00    +0.000 A 
ATOM     13  C6  UNL     1      19.486  13.141  -1.077  0.00  0.00    +0.000 A 
ATOM     14  C7  UNL     1      19.203  14.178  -0.193  0.00  0.00    +0.000 A 
ATOM     15  C8  UNL     1      17.905  14.674  -0.104  0.00  0.00    +0.000 A 
ATOM     16  C9  UNL     1      16.886  14.135  -0.897  0.00  0.00    +0.000 A 
ENDBRANCH   3  11
TORSDOF 2
ENDMDL
MODEL 9
REMARK VINA RESULT:    -4.423     13.176     13.836
REMARK INTER + INTRA:          -5.175
REMARK INTER:                  -4.940
REMARK INTRA:                  -0.235
REMARK UNBOUND:                -0.235
REMARK  Name = /home/anacleto/Desktop/manuscript_Mpro/naturecomm/supplementary_file_S2/6-chemical-library/molecular_docking/3D_ligand_structure/962.pdb
REMARK  2 active torsions:
REMARK  status: ('A' for Active; 'I' for Inactive)
REMARK    1  A    between atoms: C2_5  and  C3_6
REMARK    2  A    between atoms: N4_8  and  C4_9
REMARK                            x       y       z     vdW  Elec       q    Type
REMARK                         _______ _______ _______ _____ _____    ______ ____
ROOT
ATOM      1  C3  UNL     1      16.523  12.296  -1.492  0.00  0.00    +0.000 C 
ATOM      2  O1  UNL     1      16.454  11.681  -0.433  0.00  0.00    +0.000 OA
ATOM      3  N4  UNL     1      17.264  13.445  -1.723  0.00  0.00    +0.000 N 
ATOM      4  H3  UNL     1      17.182  13.795  -2.674  0.00  0.00    +0.000 HD
ENDROOT
BRANCH   1   9
ATOM      5  N1  UNL     1      15.906  10.621  -3.225  0.00  0.00    +0.000 NA
ATOM      6  N2  UNL     1      15.088  10.689  -4.291  0.00  0.00    +0.000 N 
ATOM      7  C1  UNL     1      14.516  11.914  -4.402  0.00  0.00    +0.000 A 
ATOM      8  N3  UNL     1      14.934  12.681  -3.426  0.00  0.00    +0.000 NA
ATOM      9  C2  UNL     1      15.791  11.868  -2.709  0.00  0.00    +0.000 A 
ATOM     10  H1  UNL     1      14.973   9.876  -4.885  0.00  0.00    +0.000 HD
ENDBRANCH   1   9
BRANCH   3  11
ATOM     11  C4  UNL     1      18.085  14.155  -0.831  0.00  0.00    +0.000 A 
ATOM     12  C5  UNL     1      17.560  15.329  -0.278  0.00  0.00    +0.000 A 
ATOM     13  C6  UNL     1      18.313  16.094   0.618  0.00  0.00    +0.000 A 
ATOM     14  C7  UNL     1      19.597  15.690   0.969  0.00  0.00    +0.000 A 
ATOM     15  C8  UNL     1      20.127  14.523   0.423  0.00  0.00    +0.000 A 
ATOM     16  C9  UNL     1      19.374  13.757  -0.474  0.00  0.00    +0.000 A 
ENDBRANCH   3  11
TORSDOF 2
ENDMDL
