MODEL 1
REMARK VINA RESULT:    -3.799      0.000      0.000
REMARK INTER + INTRA:          -3.799
REMARK INTER:                  -3.799
REMARK INTRA:                   0.000
REMARK UNBOUND:                 0.000
REMARK  Name = /home/anacleto/Desktop/manuscript_Mpro/naturecomm/supplementary_file_S2/6-chemical-library/molecular_docking/3D_ligand_structure/3.pdb
REMARK  0 active torsions:
REMARK  status: ('A' for Active; 'I' for Inactive)
REMARK                            x       y       z     vdW  Elec       q    Type
REMARK                         _______ _______ _______ _____ _____    ______ ____
ROOT
ATOM      1  O1  UNL     1     -22.591   9.765 -36.391  0.00  0.00    +0.000 OA
ATOM      2  S1  UNL     1     -22.900   9.889 -37.802  0.00  0.00    +0.000 S 
ATOM      3  O2  UNL     1     -24.046  10.664 -38.240  0.00  0.00    +0.000 OA
ATOM      4  C1  UNL     1     -21.478  10.506 -38.661  0.00  0.00    +0.000 C 
ATOM      5  C2  UNL     1     -20.312   9.603 -38.434  0.00  0.00    +0.000 C 
ATOM      6  C3  UNL     1     -19.085  10.085 -38.159  0.00  0.00    +0.000 C 
ATOM      7  C4  UNL     1     -20.443   8.116 -38.531  0.00  0.00    +0.000 C 
ATOM      8  O3  UNL     1     -19.471   7.416 -38.804  0.00  0.00    +0.000 OA
ATOM      9  C5  UNL     1     -21.786   7.502 -38.296  0.00  0.00    +0.000 C 
ATOM     10  C6  UNL     1     -21.801   6.215 -37.903  0.00  0.00    +0.000 C 
ATOM     11  C7  UNL     1     -23.045   8.272 -38.513  0.00  0.00    +0.000 C 
ENDROOT
TORSDOF 0
ENDMDL
MODEL 2
REMARK VINA RESULT:    -3.798      2.417      3.081
REMARK INTER + INTRA:          -3.798
REMARK INTER:                  -3.798
REMARK INTRA:                   0.000
REMARK UNBOUND:                 0.000
REMARK  Name = /home/anacleto/Desktop/manuscript_Mpro/naturecomm/supplementary_file_S2/6-chemical-library/molecular_docking/3D_ligand_structure/3.pdb
REMARK  0 active torsions:
REMARK  status: ('A' for Active; 'I' for Inactive)
REMARK                            x       y       z     vdW  Elec       q    Type
REMARK                         _______ _______ _______ _____ _____    ______ ____
ROOT
ATOM      1  O1  UNL     1     -22.108   5.895 -37.582  0.00  0.00    +0.000 OA
ATOM      2  S1  UNL     1     -22.578   6.578 -38.772  0.00  0.00    +0.000 S 
ATOM      3  O2  UNL     1     -23.635   6.001 -39.582  0.00  0.00    +0.000 OA
ATOM      4  C1  UNL     1     -23.069   8.226 -38.346  0.00  0.00    +0.000 C 
ATOM      5  C2  UNL     1     -21.929   8.952 -37.714  0.00  0.00    +0.000 C 
ATOM      6  C3  UNL     1     -22.095   9.714 -36.616  0.00  0.00    +0.000 C 
ATOM      7  C4  UNL     1     -20.548   8.893 -38.287  0.00  0.00    +0.000 C 
ATOM      8  O3  UNL     1     -19.744   9.798 -38.084  0.00  0.00    +0.000 OA
ATOM      9  C5  UNL     1     -20.174   7.709 -39.120  0.00  0.00    +0.000 C 
ATOM     10  C6  UNL     1     -18.861   7.423 -39.207  0.00  0.00    +0.000 C 
ATOM     11  C7  UNL     1     -21.202   6.904 -39.841  0.00  0.00    +0.000 C 
ENDROOT
TORSDOF 0
ENDMDL
MODEL 3
REMARK VINA RESULT:    -3.665      2.060      3.556
REMARK INTER + INTRA:          -3.665
REMARK INTER:                  -3.665
REMARK INTRA:                   0.000
REMARK UNBOUND:                 0.000
REMARK  Name = /home/anacleto/Desktop/manuscript_Mpro/naturecomm/supplementary_file_S2/6-chemical-library/molecular_docking/3D_ligand_structure/3.pdb
REMARK  0 active torsions:
REMARK  status: ('A' for Active; 'I' for Inactive)
REMARK                            x       y       z     vdW  Elec       q    Type
REMARK                         _______ _______ _______ _____ _____    ______ ____
ROOT
ATOM      1  O1  UNL     1     -20.578   8.016 -41.002  0.00  0.00    +0.000 OA
ATOM      2  S1  UNL     1     -19.927   7.143 -40.045  0.00  0.00    +0.000 S 
ATOM      3  O2  UNL     1     -19.171   5.989 -40.498  0.00  0.00    +0.000 OA
ATOM      4  C1  UNL     1     -18.864   8.104 -39.003  0.00  0.00    +0.000 C 
ATOM      5  C2  UNL     1     -19.648   9.174 -38.320  0.00  0.00    +0.000 C 
ATOM      6  C3  UNL     1     -19.190  10.435 -38.221  0.00  0.00    +0.000 C 
ATOM      7  C4  UNL     1     -20.973   8.889 -37.686  0.00  0.00    +0.000 C 
ATOM      8  O3  UNL     1     -21.392   9.587 -36.765  0.00  0.00    +0.000 OA
ATOM      9  C5  UNL     1     -21.772   7.731 -38.193  0.00  0.00    +0.000 C 
ATOM     10  C6  UNL     1     -23.101   7.778 -37.986  0.00  0.00    +0.000 C 
ATOM     11  C7  UNL     1     -21.122   6.570 -38.868  0.00  0.00    +0.000 C 
ENDROOT
TORSDOF 0
ENDMDL
MODEL 4
REMARK VINA RESULT:    -3.616     16.433     18.075
REMARK INTER + INTRA:          -3.616
REMARK INTER:                  -3.616
REMARK INTRA:                   0.000
REMARK UNBOUND:                 0.000
REMARK  Name = /home/anacleto/Desktop/manuscript_Mpro/naturecomm/supplementary_file_S2/6-chemical-library/molecular_docking/3D_ligand_structure/3.pdb
REMARK  0 active torsions:
REMARK  status: ('A' for Active; 'I' for Inactive)
REMARK                            x       y       z     vdW  Elec       q    Type
REMARK                         _______ _______ _______ _____ _____    ______ ____
ROOT
ATOM      1  O1  UNL     1     -23.993  -2.939 -24.529  0.00  0.00    +0.000 OA
ATOM      2  S1  UNL     1     -24.011  -4.372 -24.753  0.00  0.00    +0.000 S 
ATOM      3  O2  UNL     1     -23.765  -5.291 -23.657  0.00  0.00    +0.000 OA
ATOM      4  C1  UNL     1     -25.551  -4.830 -25.500  0.00  0.00    +0.000 C 
ATOM      5  C2  UNL     1     -25.746  -4.076 -26.773  0.00  0.00    +0.000 C 
ATOM      6  C3  UNL     1     -26.929  -3.517 -27.092  0.00  0.00    +0.000 C 
ATOM      7  C4  UNL     1     -24.643  -3.928 -27.773  0.00  0.00    +0.000 C 
ATOM      8  O3  UNL     1     -24.893  -3.738 -28.961  0.00  0.00    +0.000 OA
ATOM      9  C5  UNL     1     -23.230  -4.024 -27.293  0.00  0.00    +0.000 C 
ATOM     10  C6  UNL     1     -22.294  -3.422 -28.050  0.00  0.00    +0.000 C 
ATOM     11  C7  UNL     1     -22.875  -4.775 -26.054  0.00  0.00    +0.000 C 
ENDROOT
TORSDOF 0
ENDMDL
MODEL 5
REMARK VINA RESULT:    -3.600      2.471      3.514
REMARK INTER + INTRA:          -3.600
REMARK INTER:                  -3.600
REMARK INTRA:                   0.000
REMARK UNBOUND:                 0.000
REMARK  Name = /home/anacleto/Desktop/manuscript_Mpro/naturecomm/supplementary_file_S2/6-chemical-library/molecular_docking/3D_ligand_structure/3.pdb
REMARK  0 active torsions:
REMARK  status: ('A' for Active; 'I' for Inactive)
REMARK                            x       y       z     vdW  Elec       q    Type
REMARK                         _______ _______ _______ _____ _____    ______ ____
ROOT
ATOM      1  O1  UNL     1     -23.153   7.373 -40.413  0.00  0.00    +0.000 OA
ATOM      2  S1  UNL     1     -23.337   6.597 -39.202  0.00  0.00    +0.000 S 
ATOM      3  O2  UNL     1     -23.963   5.289 -39.253  0.00  0.00    +0.000 OA
ATOM      4  C1  UNL     1     -21.777   6.410 -38.383  0.00  0.00    +0.000 C 
ATOM      5  C2  UNL     1     -21.190   7.751 -38.089  0.00  0.00    +0.000 C 
ATOM      6  C3  UNL     1     -19.888   8.018 -38.306  0.00  0.00    +0.000 C 
ATOM      7  C4  UNL     1     -22.015   8.857 -37.511  0.00  0.00    +0.000 C 
ATOM      8  O3  UNL     1     -21.491   9.756 -36.858  0.00  0.00    +0.000 OA
ATOM      9  C5  UNL     1     -23.492   8.839 -37.742  0.00  0.00    +0.000 C 
ATOM     10  C6  UNL     1     -24.129  10.022 -37.666  0.00  0.00    +0.000 C 
ATOM     11  C7  UNL     1     -24.224   7.568 -38.014  0.00  0.00    +0.000 C 
ENDROOT
TORSDOF 0
ENDMDL
MODEL 6
REMARK VINA RESULT:    -3.592      7.361      8.742
REMARK INTER + INTRA:          -3.592
REMARK INTER:                  -3.592
REMARK INTRA:                   0.000
REMARK UNBOUND:                 0.000
REMARK  Name = /home/anacleto/Desktop/manuscript_Mpro/naturecomm/supplementary_file_S2/6-chemical-library/molecular_docking/3D_ligand_structure/3.pdb
REMARK  0 active torsions:
REMARK  status: ('A' for Active; 'I' for Inactive)
REMARK                            x       y       z     vdW  Elec       q    Type
REMARK                         _______ _______ _______ _____ _____    ______ ____
ROOT
ATOM      1  O1  UNL     1     -28.980   5.605 -37.983  0.00  0.00    +0.000 OA
ATOM      2  S1  UNL     1     -28.019   5.702 -39.065  0.00  0.00    +0.000 S 
ATOM      3  O2  UNL     1     -27.358   6.962 -39.352  0.00  0.00    +0.000 OA
ATOM      4  C1  UNL     1     -26.759   4.477 -38.842  0.00  0.00    +0.000 C 
ATOM      5  C2  UNL     1     -27.373   3.118 -38.776  0.00  0.00    +0.000 C 
ATOM      6  C3  UNL     1     -26.988   2.209 -37.860  0.00  0.00    +0.000 C 
ATOM      7  C4  UNL     1     -28.429   2.688 -39.745  0.00  0.00    +0.000 C 
ATOM      8  O3  UNL     1     -28.600   1.499 -40.001  0.00  0.00    +0.000 OA
ATOM      9  C5  UNL     1     -29.266   3.740 -40.399  0.00  0.00    +0.000 C 
ATOM     10  C6  UNL     1     -30.474   3.357 -40.851  0.00  0.00    +0.000 C 
ATOM     11  C7  UNL     1     -28.772   5.138 -40.567  0.00  0.00    +0.000 C 
ENDROOT
TORSDOF 0
ENDMDL
MODEL 7
REMARK VINA RESULT:    -3.575     15.036     16.601
REMARK INTER + INTRA:          -3.575
REMARK INTER:                  -3.575
REMARK INTRA:                   0.000
REMARK UNBOUND:                 0.000
REMARK  Name = /home/anacleto/Desktop/manuscript_Mpro/naturecomm/supplementary_file_S2/6-chemical-library/molecular_docking/3D_ligand_structure/3.pdb
REMARK  0 active torsions:
REMARK  status: ('A' for Active; 'I' for Inactive)
REMARK                            x       y       z     vdW  Elec       q    Type
REMARK                         _______ _______ _______ _____ _____    ______ ____
ROOT
ATOM      1  O1  UNL     1     -37.620  13.877 -31.251  0.00  0.00    +0.000 OA
ATOM      2  S1  UNL     1     -37.136  12.966 -30.232  0.00  0.00    +0.000 S 
ATOM      3  O2  UNL     1     -37.729  12.960 -28.907  0.00  0.00    +0.000 OA
ATOM      4  C1  UNL     1     -37.196  11.307 -30.851  0.00  0.00    +0.000 C 
ATOM      5  C2  UNL     1     -36.395  11.200 -32.106  0.00  0.00    +0.000 C 
ATOM      6  C3  UNL     1     -36.849  10.532 -33.182  0.00  0.00    +0.000 C 
ATOM      7  C4  UNL     1     -35.032  11.808 -32.218  0.00  0.00    +0.000 C 
ATOM      8  O3  UNL     1     -34.208  11.360 -33.011  0.00  0.00    +0.000 OA
ATOM      9  C5  UNL     1     -34.694  12.967 -31.336  0.00  0.00    +0.000 C 
ATOM     10  C6  UNL     1     -33.716  13.786 -31.764  0.00  0.00    +0.000 C 
ATOM     11  C7  UNL     1     -35.388  13.186 -30.033  0.00  0.00    +0.000 C 
ENDROOT
TORSDOF 0
ENDMDL
MODEL 8
REMARK VINA RESULT:    -3.566      1.883      3.188
REMARK INTER + INTRA:          -3.566
REMARK INTER:                  -3.566
REMARK INTRA:                   0.000
REMARK UNBOUND:                 0.000
REMARK  Name = /home/anacleto/Desktop/manuscript_Mpro/naturecomm/supplementary_file_S2/6-chemical-library/molecular_docking/3D_ligand_structure/3.pdb
REMARK  0 active torsions:
REMARK  status: ('A' for Active; 'I' for Inactive)
REMARK                            x       y       z     vdW  Elec       q    Type
REMARK                         _______ _______ _______ _____ _____    ______ ____
ROOT
ATOM      1  O1  UNL     1     -22.245   8.915 -39.976  0.00  0.00    +0.000 OA
ATOM      2  S1  UNL     1     -22.112   8.274 -38.682  0.00  0.00    +0.000 S 
ATOM      3  O2  UNL     1     -23.290   7.893 -37.924  0.00  0.00    +0.000 OA
ATOM      4  C1  UNL     1     -21.091   6.835 -38.842  0.00  0.00    +0.000 C 
ATOM      5  C2  UNL     1     -19.761   7.211 -39.405  0.00  0.00    +0.000 C 
ATOM      6  C3  UNL     1     -19.170   6.485 -40.373  0.00  0.00    +0.000 C 
ATOM      7  C4  UNL     1     -19.005   8.399 -38.900  0.00  0.00    +0.000 C 
ATOM      8  O3  UNL     1     -17.782   8.455 -39.000  0.00  0.00    +0.000 OA
ATOM      9  C5  UNL     1     -19.773   9.514 -38.265  0.00  0.00    +0.000 C 
ATOM     10  C6  UNL     1     -19.191  10.728 -38.271  0.00  0.00    +0.000 C 
ATOM     11  C7  UNL     1     -21.103   9.284 -37.630  0.00  0.00    +0.000 C 
ENDROOT
TORSDOF 0
ENDMDL
MODEL 9
REMARK VINA RESULT:    -3.540     16.688     18.343
REMARK INTER + INTRA:          -3.540
REMARK INTER:                  -3.540
REMARK INTRA:                   0.000
REMARK UNBOUND:                 0.000
REMARK  Name = /home/anacleto/Desktop/manuscript_Mpro/naturecomm/supplementary_file_S2/6-chemical-library/molecular_docking/3D_ligand_structure/3.pdb
REMARK  0 active torsions:
REMARK  status: ('A' for Active; 'I' for Inactive)
REMARK                            x       y       z     vdW  Elec       q    Type
REMARK                         _______ _______ _______ _____ _____    ______ ____
ROOT
ATOM      1  O1  UNL     1     -24.998  -5.420 -29.052  0.00  0.00    +0.000 OA
ATOM      2  S1  UNL     1     -24.885  -4.086 -28.495  0.00  0.00    +0.000 S 
ATOM      3  O2  UNL     1     -24.406  -2.985 -29.311  0.00  0.00    +0.000 OA
ATOM      4  C1  UNL     1     -26.446  -3.602 -27.810  0.00  0.00    +0.000 C 
ATOM      5  C2  UNL     1     -26.880  -4.590 -26.779  0.00  0.00    +0.000 C 
ATOM      6  C3  UNL     1     -28.148  -5.040 -26.717  0.00  0.00    +0.000 C 
ATOM      7  C4  UNL     1     -25.933  -5.108 -25.743  0.00  0.00    +0.000 C 
ATOM      8  O3  UNL     1     -26.347  -5.525 -24.665  0.00  0.00    +0.000 OA
ATOM      9  C5  UNL     1     -24.469  -5.100 -26.049  0.00  0.00    +0.000 C 
ATOM     10  C6  UNL     1     -23.706  -5.978 -25.373  0.00  0.00    +0.000 C 
ATOM     11  C7  UNL     1     -23.883  -4.145 -27.034  0.00  0.00    +0.000 C 
ENDROOT
TORSDOF 0
ENDMDL
