MODEL 1
REMARK VINA RESULT:    -4.246      0.000      0.000
REMARK INTER + INTRA:          -4.246
REMARK INTER:                  -4.246
REMARK INTRA:                   0.000
REMARK UNBOUND:                 0.000
REMARK  Name = /home/anacleto/Desktop/manuscript_Mpro/naturecomm/supplementary_file_S2/6-chemical-library/molecular_docking/3D_ligand_structure/156.pdb
REMARK  0 active torsions:
REMARK  status: ('A' for Active; 'I' for Inactive)
REMARK                            x       y       z     vdW  Elec       q    Type
REMARK                         _______ _______ _______ _____ _____    ______ ____
ROOT
ATOM      1  C1  UNL     1      17.086  12.390  -5.148  0.00  0.00    +0.000 C 
ATOM      2  C2  UNL     1      17.187  12.316  -3.811  0.00  0.00    +0.000 C 
ATOM      3  S1  UNL     1      15.794  11.562  -3.088  0.00  0.00    +0.000 S 
ATOM      4  O1  UNL     1      16.149  10.264  -2.555  0.00  0.00    +0.000 OA
ATOM      5  O2  UNL     1      15.026  12.538  -2.345  0.00  0.00    +0.000 OA
ATOM      6  C3  UNL     1      15.022  11.323  -4.635  0.00  0.00    +0.000 A 
ATOM      7  C4  UNL     1      15.838  11.820  -5.649  0.00  0.00    +0.000 A 
ATOM      8  C5  UNL     1      13.790  10.736  -4.860  0.00  0.00    +0.000 A 
ATOM      9  C6  UNL     1      13.363  10.648  -6.184  0.00  0.00    +0.000 A 
ATOM     10  C7  UNL     1      14.168  11.141  -7.227  0.00  0.00    +0.000 A 
ATOM     11  C8  UNL     1      15.412  11.730  -6.964  0.00  0.00    +0.000 A 
ENDROOT
TORSDOF 0
ENDMDL
MODEL 2
REMARK VINA RESULT:    -4.203     15.404     16.632
REMARK INTER + INTRA:          -4.203
REMARK INTER:                  -4.203
REMARK INTRA:                   0.000
REMARK UNBOUND:                 0.000
REMARK  Name = /home/anacleto/Desktop/manuscript_Mpro/naturecomm/supplementary_file_S2/6-chemical-library/molecular_docking/3D_ligand_structure/156.pdb
REMARK  0 active torsions:
REMARK  status: ('A' for Active; 'I' for Inactive)
REMARK                            x       y       z     vdW  Elec       q    Type
REMARK                         _______ _______ _______ _____ _____    ______ ____
ROOT
ATOM      1  C1  UNL     1      20.863   3.749   9.283  0.00  0.00    +0.000 C 
ATOM      2  C2  UNL     1      22.085   3.671   9.836  0.00  0.00    +0.000 C 
ATOM      3  S1  UNL     1      22.784   5.242  10.109  0.00  0.00    +0.000 S 
ATOM      4  O1  UNL     1      22.851   5.519  11.528  0.00  0.00    +0.000 OA
ATOM      5  O2  UNL     1      23.896   5.458   9.209  0.00  0.00    +0.000 OA
ATOM      6  C3  UNL     1      21.388   6.064   9.458  0.00  0.00    +0.000 A 
ATOM      7  C4  UNL     1      20.438   5.127   9.055  0.00  0.00    +0.000 A 
ATOM      8  C5  UNL     1      21.215   7.431   9.344  0.00  0.00    +0.000 A 
ATOM      9  C6  UNL     1      20.014   7.873   8.791  0.00  0.00    +0.000 A 
ATOM     10  C7  UNL     1      19.038   6.949   8.375  0.00  0.00    +0.000 A 
ATOM     11  C8  UNL     1      19.246   5.569   8.506  0.00  0.00    +0.000 A 
ENDROOT
TORSDOF 0
ENDMDL
MODEL 3
REMARK VINA RESULT:    -4.136      1.703      2.005
REMARK INTER + INTRA:          -4.136
REMARK INTER:                  -4.136
REMARK INTRA:                   0.000
REMARK UNBOUND:                 0.000
REMARK  Name = /home/anacleto/Desktop/manuscript_Mpro/naturecomm/supplementary_file_S2/6-chemical-library/molecular_docking/3D_ligand_structure/156.pdb
REMARK  0 active torsions:
REMARK  status: ('A' for Active; 'I' for Inactive)
REMARK                            x       y       z     vdW  Elec       q    Type
REMARK                         _______ _______ _______ _____ _____    ______ ____
ROOT
ATOM      1  C1  UNL     1      16.729  11.834  -7.451  0.00  0.00    +0.000 C 
ATOM      2  C2  UNL     1      17.777  11.953  -6.619  0.00  0.00    +0.000 C 
ATOM      3  S1  UNL     1      17.343  11.619  -4.966  0.00  0.00    +0.000 S 
ATOM      4  O1  UNL     1      17.946  10.377  -4.532  0.00  0.00    +0.000 OA
ATOM      5  O2  UNL     1      17.389  12.835  -4.182  0.00  0.00    +0.000 OA
ATOM      6  C3  UNL     1      15.678  11.301  -5.383  0.00  0.00    +0.000 A 
ATOM      7  C4  UNL     1      15.501  11.457  -6.756  0.00  0.00    +0.000 A 
ATOM      8  C5  UNL     1      14.664  10.947  -4.513  0.00  0.00    +0.000 A 
ATOM      9  C6  UNL     1      13.401  10.739  -5.065  0.00  0.00    +0.000 A 
ATOM     10  C7  UNL     1      13.193  10.889  -6.447  0.00  0.00    +0.000 A 
ATOM     11  C8  UNL     1      14.245  11.249  -7.302  0.00  0.00    +0.000 A 
ENDROOT
TORSDOF 0
ENDMDL
MODEL 4
REMARK VINA RESULT:    -4.095     15.858     17.231
REMARK INTER + INTRA:          -4.095
REMARK INTER:                  -4.095
REMARK INTRA:                   0.000
REMARK UNBOUND:                 0.000
REMARK  Name = /home/anacleto/Desktop/manuscript_Mpro/naturecomm/supplementary_file_S2/6-chemical-library/molecular_docking/3D_ligand_structure/156.pdb
REMARK  0 active torsions:
REMARK  status: ('A' for Active; 'I' for Inactive)
REMARK                            x       y       z     vdW  Elec       q    Type
REMARK                         _______ _______ _______ _____ _____    ______ ____
ROOT
ATOM      1  C1  UNL     1      18.943   7.570  11.717  0.00  0.00    +0.000 C 
ATOM      2  C2  UNL     1      19.781   7.429  12.757  0.00  0.00    +0.000 C 
ATOM      3  S1  UNL     1      21.222   6.552  12.324  0.00  0.00    +0.000 S 
ATOM      4  O1  UNL     1      22.368   7.437  12.334  0.00  0.00    +0.000 OA
ATOM      5  O2  UNL     1      21.224   5.250  12.957  0.00  0.00    +0.000 OA
ATOM      6  C3  UNL     1      20.700   6.353  10.670  0.00  0.00    +0.000 A 
ATOM      7  C4  UNL     1      19.455   6.954  10.495  0.00  0.00    +0.000 A 
ATOM      8  C5  UNL     1      21.389   5.706   9.661  0.00  0.00    +0.000 A 
ATOM      9  C6  UNL     1      20.782   5.665   8.407  0.00  0.00    +0.000 A 
ATOM     10  C7  UNL     1      19.526   6.263   8.202  0.00  0.00    +0.000 A 
ATOM     11  C8  UNL     1      18.855   6.912   9.248  0.00  0.00    +0.000 A 
ENDROOT
TORSDOF 0
ENDMDL
MODEL 5
REMARK VINA RESULT:    -4.028     15.654     16.972
REMARK INTER + INTRA:          -4.028
REMARK INTER:                  -4.028
REMARK INTRA:                   0.000
REMARK UNBOUND:                 0.000
REMARK  Name = /home/anacleto/Desktop/manuscript_Mpro/naturecomm/supplementary_file_S2/6-chemical-library/molecular_docking/3D_ligand_structure/156.pdb
REMARK  0 active torsions:
REMARK  status: ('A' for Active; 'I' for Inactive)
REMARK                            x       y       z     vdW  Elec       q    Type
REMARK                         _______ _______ _______ _____ _____    ______ ____
ROOT
ATOM      1  C1  UNL     1      18.287   4.514  11.333  0.00  0.00    +0.000 C 
ATOM      2  C2  UNL     1      18.331   5.108  12.537  0.00  0.00    +0.000 C 
ATOM      3  S1  UNL     1      18.933   6.739  12.443  0.00  0.00    +0.000 S 
ATOM      4  O1  UNL     1      17.869   7.682  12.718  0.00  0.00    +0.000 OA
ATOM      5  O2  UNL     1      20.242   6.825  13.054  0.00  0.00    +0.000 OA
ATOM      6  C3  UNL     1      19.144   6.646  10.712  0.00  0.00    +0.000 A 
ATOM      7  C4  UNL     1      18.754   5.387  10.259  0.00  0.00    +0.000 A 
ATOM      8  C5  UNL     1      19.622   7.645   9.885  0.00  0.00    +0.000 A 
ATOM      9  C6  UNL     1      19.710   7.352   8.525  0.00  0.00    +0.000 A 
ATOM     10  C7  UNL     1      19.322   6.090   8.041  0.00  0.00    +0.000 A 
ATOM     11  C8  UNL     1      18.842   5.099   8.908  0.00  0.00    +0.000 A 
ENDROOT
TORSDOF 0
ENDMDL
MODEL 6
REMARK VINA RESULT:    -3.862     17.191     18.332
REMARK INTER + INTRA:          -3.862
REMARK INTER:                  -3.862
REMARK INTRA:                   0.000
REMARK UNBOUND:                 0.000
REMARK  Name = /home/anacleto/Desktop/manuscript_Mpro/naturecomm/supplementary_file_S2/6-chemical-library/molecular_docking/3D_ligand_structure/156.pdb
REMARK  0 active torsions:
REMARK  status: ('A' for Active; 'I' for Inactive)
REMARK                            x       y       z     vdW  Elec       q    Type
REMARK                         _______ _______ _______ _____ _____    ______ ____
ROOT
ATOM      1  C1  UNL     1      21.713   7.010  12.071  0.00  0.00    +0.000 C 
ATOM      2  C2  UNL     1      21.450   6.589  10.823  0.00  0.00    +0.000 C 
ATOM      3  S1  UNL     1      19.742   6.561  10.486  0.00  0.00    +0.000 S 
ATOM      4  O1  UNL     1      19.403   7.596   9.532  0.00  0.00    +0.000 OA
ATOM      5  O2  UNL     1      19.278   5.195  10.368  0.00  0.00    +0.000 OA
ATOM      6  C3  UNL     1      19.337   7.139  12.083  0.00  0.00    +0.000 A 
ATOM      7  C4  UNL     1      20.503   7.335  12.821  0.00  0.00    +0.000 A 
ATOM      8  C5  UNL     1      18.067   7.377  12.576  0.00  0.00    +0.000 A 
ATOM      9  C6  UNL     1      17.975   7.838  13.889  0.00  0.00    +0.000 A 
ATOM     10  C7  UNL     1      19.136   8.045  14.655  0.00  0.00    +0.000 A 
ATOM     11  C8  UNL     1      20.408   7.794  14.124  0.00  0.00    +0.000 A 
ENDROOT
TORSDOF 0
ENDMDL
MODEL 7
REMARK VINA RESULT:    -3.834     15.539     16.958
REMARK INTER + INTRA:          -3.834
REMARK INTER:                  -3.834
REMARK INTRA:                   0.000
REMARK UNBOUND:                 0.000
REMARK  Name = /home/anacleto/Desktop/manuscript_Mpro/naturecomm/supplementary_file_S2/6-chemical-library/molecular_docking/3D_ligand_structure/156.pdb
REMARK  0 active torsions:
REMARK  status: ('A' for Active; 'I' for Inactive)
REMARK                            x       y       z     vdW  Elec       q    Type
REMARK                         _______ _______ _______ _____ _____    ______ ____
ROOT
ATOM      1  C1  UNL     1      21.521   6.968  11.688  0.00  0.00    +0.000 C 
ATOM      2  C2  UNL     1      22.581   6.145  11.747  0.00  0.00    +0.000 C 
ATOM      3  S1  UNL     1      22.682   5.106  10.353  0.00  0.00    +0.000 S 
ATOM      4  O1  UNL     1      23.814   5.479   9.532  0.00  0.00    +0.000 OA
ATOM      5  O2  UNL     1      22.395   3.738  10.728  0.00  0.00    +0.000 OA
ATOM      6  C3  UNL     1      21.243   5.790   9.640  0.00  0.00    +0.000 A 
ATOM      7  C4  UNL     1      20.730   6.780  10.475  0.00  0.00    +0.000 A 
ATOM      8  C5  UNL     1      20.669   5.429   8.434  0.00  0.00    +0.000 A 
ATOM      9  C6  UNL     1      19.513   6.110   8.055  0.00  0.00    +0.000 A 
ATOM     10  C7  UNL     1      18.975   7.114   8.879  0.00  0.00    +0.000 A 
ATOM     11  C8  UNL     1      19.582   7.455  10.095  0.00  0.00    +0.000 A 
ENDROOT
TORSDOF 0
ENDMDL
MODEL 8
REMARK VINA RESULT:    -3.804      2.885      3.969
REMARK INTER + INTRA:          -3.804
REMARK INTER:                  -3.804
REMARK INTRA:                   0.000
REMARK UNBOUND:                 0.000
REMARK  Name = /home/anacleto/Desktop/manuscript_Mpro/naturecomm/supplementary_file_S2/6-chemical-library/molecular_docking/3D_ligand_structure/156.pdb
REMARK  0 active torsions:
REMARK  status: ('A' for Active; 'I' for Inactive)
REMARK                            x       y       z     vdW  Elec       q    Type
REMARK                         _______ _______ _______ _____ _____    ______ ____
ROOT
ATOM      1  C1  UNL     1      14.504  11.931  -4.248  0.00  0.00    +0.000 C 
ATOM      2  C2  UNL     1      13.895  12.348  -5.370  0.00  0.00    +0.000 C 
ATOM      3  S1  UNL     1      14.858  12.049  -6.790  0.00  0.00    +0.000 S 
ATOM      4  O1  UNL     1      14.249  11.013  -7.597  0.00  0.00    +0.000 OA
ATOM      5  O2  UNL     1      15.340  13.298  -7.340  0.00  0.00    +0.000 OA
ATOM      6  C3  UNL     1      16.148  11.328  -5.860  0.00  0.00    +0.000 A 
ATOM      7  C4  UNL     1      15.812  11.336  -4.507  0.00  0.00    +0.000 A 
ATOM      8  C5  UNL     1      17.334  10.818  -6.353  0.00  0.00    +0.000 A 
ATOM      9  C6  UNL     1      18.229  10.287  -5.425  0.00  0.00    +0.000 A 
ATOM     10  C7  UNL     1      17.916  10.282  -4.055  0.00  0.00    +0.000 A 
ATOM     11  C8  UNL     1      16.703  10.808  -3.588  0.00  0.00    +0.000 A 
ENDROOT
TORSDOF 0
ENDMDL
MODEL 9
REMARK VINA RESULT:    -3.719      6.296      7.286
REMARK INTER + INTRA:          -3.719
REMARK INTER:                  -3.719
REMARK INTRA:                   0.000
REMARK UNBOUND:                 0.000
REMARK  Name = /home/anacleto/Desktop/manuscript_Mpro/naturecomm/supplementary_file_S2/6-chemical-library/molecular_docking/3D_ligand_structure/156.pdb
REMARK  0 active torsions:
REMARK  status: ('A' for Active; 'I' for Inactive)
REMARK                            x       y       z     vdW  Elec       q    Type
REMARK                         _______ _______ _______ _____ _____    ______ ____
ROOT
ATOM      1  C1  UNL     1      12.244  17.073  -1.683  0.00  0.00    +0.000 C 
ATOM      2  C2  UNL     1      12.742  15.884  -1.305  0.00  0.00    +0.000 C 
ATOM      3  S1  UNL     1      14.459  15.778  -1.572  0.00  0.00    +0.000 S 
ATOM      4  O1  UNL     1      15.162  15.764  -0.307  0.00  0.00    +0.000 OA
ATOM      5  O2  UNL     1      14.742  14.845  -2.643  0.00  0.00    +0.000 OA
ATOM      6  C3  UNL     1      14.539  17.396  -2.223  0.00  0.00    +0.000 A 
ATOM      7  C4  UNL     1      13.267  17.966  -2.219  0.00  0.00    +0.000 A 
ATOM      8  C5  UNL     1      15.670  18.045  -2.681  0.00  0.00    +0.000 A 
ATOM      9  C6  UNL     1      15.504  19.343  -3.163  0.00  0.00    +0.000 A 
ATOM     10  C7  UNL     1      14.232  19.943  -3.170  0.00  0.00    +0.000 A 
ATOM     11  C8  UNL     1      13.105  19.256  -2.697  0.00  0.00    +0.000 A 
ENDROOT
TORSDOF 0
ENDMDL
