MODEL 1
REMARK VINA RESULT:    -4.862      0.000      0.000
REMARK INTER + INTRA:          -6.797
REMARK INTER:                  -6.265
REMARK INTRA:                  -0.532
REMARK UNBOUND:                -0.514
REMARK  Name = /home/anacleto/Desktop/manuscript_Mpro/naturecomm/supplementary_file_S2/6-chemical-library/molecular_docking/3D_ligand_structure/621.pdb
REMARK  5 active torsions:
REMARK  status: ('A' for Active; 'I' for Inactive)
REMARK    1  A    between atoms: N2_5  and  C4_6
REMARK    2  A    between atoms: C4_6  and  C5_7
REMARK    3  A    between atoms: N3_9  and  C6_10
REMARK    4  A    between atoms: C6_10  and  C7_11
REMARK    5  A    between atoms: C7_11  and  C8_12
REMARK                            x       y       z     vdW  Elec       q    Type
REMARK                         _______ _______ _______ _____ _____    ______ ____
ROOT
ATOM      1  C5  UNL     1      15.731  14.567  -2.356  0.00  0.00    +0.000 C 
ATOM      2  O1  UNL     1      15.852  14.933  -3.523  0.00  0.00    +0.000 OA
ATOM      3  N3  UNL     1      16.123  13.316  -1.916  0.00  0.00    +0.000 N 
ATOM      4  H6  UNL     1      15.731  12.987  -1.041  0.00  0.00    +0.000 HD
ENDROOT
BRANCH   1   5
ATOM      5  C4  UNL     1      15.209  15.506  -1.286  0.00  0.00    +0.000 C 
BRANCH   5  10
ATOM      6  C1  UNL     1      12.722  15.525  -1.588  0.00  0.00    +0.000 A 
ATOM      7  N1  UNL     1      11.771  16.361  -1.937  0.00  0.00    +0.000 NA
ATOM      8  C2  UNL     1      12.410  17.530  -2.259  0.00  0.00    +0.000 A 
ATOM      9  C3  UNL     1      13.768  17.405  -2.085  0.00  0.00    +0.000 A 
ATOM     10  N2  UNL     1      13.949  16.123  -1.645  0.00  0.00    +0.000 N 
ENDBRANCH   5  10
ENDBRANCH   1   5
BRANCH   3  11
ATOM     11  C6  UNL     1      16.533  12.298  -2.871  0.00  0.00    +0.000 C 
BRANCH  11  12
ATOM     12  C7  UNL     1      15.422  11.279  -3.118  0.00  0.00    +0.000 C 
BRANCH  12  13
ATOM     13  C8  UNL     1      15.011  11.231  -4.566  0.00  0.00    +0.000 A 
ATOM     14  C9  UNL     1      13.738  10.772  -4.931  0.00  0.00    +0.000 A 
ATOM     15  C10 UNL     1      13.353  10.747  -6.272  0.00  0.00    +0.000 A 
ATOM     16  C11 UNL     1      14.233  11.184  -7.260  0.00  0.00    +0.000 A 
ATOM     17  C12 UNL     1      15.499  11.647  -6.908  0.00  0.00    +0.000 A 
ATOM     18  C13 UNL     1      15.887  11.673  -5.567  0.00  0.00    +0.000 A 
ENDBRANCH  12  13
ENDBRANCH  11  12
ENDBRANCH   3  11
TORSDOF 5
ENDMDL
MODEL 2
REMARK VINA RESULT:    -4.857     15.319     16.953
REMARK INTER + INTRA:          -6.790
REMARK INTER:                  -6.423
REMARK INTRA:                  -0.367
REMARK UNBOUND:                -0.514
REMARK  Name = /home/anacleto/Desktop/manuscript_Mpro/naturecomm/supplementary_file_S2/6-chemical-library/molecular_docking/3D_ligand_structure/621.pdb
REMARK  5 active torsions:
REMARK  status: ('A' for Active; 'I' for Inactive)
REMARK    1  A    between atoms: N2_5  and  C4_6
REMARK    2  A    between atoms: C4_6  and  C5_7
REMARK    3  A    between atoms: N3_9  and  C6_10
REMARK    4  A    between atoms: C6_10  and  C7_11
REMARK    5  A    between atoms: C7_11  and  C8_12
REMARK                            x       y       z     vdW  Elec       q    Type
REMARK                         _______ _______ _______ _____ _____    ______ ____
ROOT
ATOM      1  C5  UNL     1      17.625   3.598   9.436  0.00  0.00    +0.000 C 
ATOM      2  O1  UNL     1      16.961   3.391  10.449  0.00  0.00    +0.000 OA
ATOM      3  N3  UNL     1      17.099   3.507   8.160  0.00  0.00    +0.000 N 
ATOM      4  H6  UNL     1      17.754   3.398   7.394  0.00  0.00    +0.000 HD
ENDROOT
BRANCH   1   5
ATOM      5  C4  UNL     1      19.069   4.051   9.520  0.00  0.00    +0.000 C 
BRANCH   5  10
ATOM      6  C1  UNL     1      19.199   6.356  10.491  0.00  0.00    +0.000 A 
ATOM      7  N1  UNL     1      19.398   7.592  10.092  0.00  0.00    +0.000 NA
ATOM      8  C2  UNL     1      19.516   7.522   8.728  0.00  0.00    +0.000 A 
ATOM      9  C3  UNL     1      19.404   6.222   8.297  0.00  0.00    +0.000 A 
ATOM     10  N2  UNL     1      19.214   5.490   9.436  0.00  0.00    +0.000 N 
ENDBRANCH   5  10
ENDBRANCH   1   5
BRANCH   3  11
ATOM     11  C6  UNL     1      15.761   2.974   7.954  0.00  0.00    +0.000 C 
BRANCH  11  12
ATOM     12  C7  UNL     1      15.795   1.486   7.611  0.00  0.00    +0.000 C 
BRANCH  12  13
ATOM     13  C8  UNL     1      14.623   0.744   8.200  0.00  0.00    +0.000 A 
ATOM     14  C9  UNL     1      13.636   1.430   8.920  0.00  0.00    +0.000 A 
ATOM     15  C10 UNL     1      12.541   0.745   9.448  0.00  0.00    +0.000 A 
ATOM     16  C11 UNL     1      12.420  -0.631   9.258  0.00  0.00    +0.000 A 
ATOM     17  C12 UNL     1      13.393  -1.321   8.539  0.00  0.00    +0.000 A 
ATOM     18  C13 UNL     1      14.490  -0.638   8.010  0.00  0.00    +0.000 A 
ENDBRANCH  12  13
ENDBRANCH  11  12
ENDBRANCH   3  11
TORSDOF 5
ENDMDL
MODEL 3
REMARK VINA RESULT:    -4.824      2.611      6.312
REMARK INTER + INTRA:          -6.748
REMARK INTER:                  -6.270
REMARK INTRA:                  -0.478
REMARK UNBOUND:                -0.514
REMARK  Name = /home/anacleto/Desktop/manuscript_Mpro/naturecomm/supplementary_file_S2/6-chemical-library/molecular_docking/3D_ligand_structure/621.pdb
REMARK  5 active torsions:
REMARK  status: ('A' for Active; 'I' for Inactive)
REMARK    1  A    between atoms: N2_5  and  C4_6
REMARK    2  A    between atoms: C4_6  and  C5_7
REMARK    3  A    between atoms: N3_9  and  C6_10
REMARK    4  A    between atoms: C6_10  and  C7_11
REMARK    5  A    between atoms: C7_11  and  C8_12
REMARK                            x       y       z     vdW  Elec       q    Type
REMARK                         _______ _______ _______ _____ _____    ______ ____
ROOT
ATOM      1  C5  UNL     1      14.730  13.798  -3.882  0.00  0.00    +0.000 C 
ATOM      2  O1  UNL     1      15.173  13.026  -3.035  0.00  0.00    +0.000 OA
ATOM      3  N3  UNL     1      13.960  14.902  -3.565  0.00  0.00    +0.000 N 
ATOM      4  H6  UNL     1      13.398  15.306  -4.306  0.00  0.00    +0.000 HD
ENDROOT
BRANCH   1   5
ATOM      5  C4  UNL     1      15.070  13.635  -5.351  0.00  0.00    +0.000 C 
BRANCH   5  10
ATOM      6  C1  UNL     1      14.759  11.862  -7.092  0.00  0.00    +0.000 A 
ATOM      7  N1  UNL     1      13.923  10.891  -7.383  0.00  0.00    +0.000 NA
ATOM      8  C2  UNL     1      12.934  10.964  -6.436  0.00  0.00    +0.000 A 
ATOM      9  C3  UNL     1      13.186  11.982  -5.548  0.00  0.00    +0.000 A 
ATOM     10  N2  UNL     1      14.360  12.537  -5.975  0.00  0.00    +0.000 N 
ENDBRANCH   5  10
ENDBRANCH   1   5
BRANCH   3  11
ATOM     11  C6  UNL     1      13.479  15.094  -2.206  0.00  0.00    +0.000 C 
BRANCH  11  12
ATOM     12  C7  UNL     1      14.012  16.391  -1.598  0.00  0.00    +0.000 C 
BRANCH  12  13
ATOM     13  C8  UNL     1      15.489  16.315  -1.312  0.00  0.00    +0.000 A 
ATOM     14  C9  UNL     1      15.986  15.396  -0.377  0.00  0.00    +0.000 A 
ATOM     15  C10 UNL     1      17.356  15.313  -0.127  0.00  0.00    +0.000 A 
ATOM     16  C11 UNL     1      18.243  16.143  -0.812  0.00  0.00    +0.000 A 
ATOM     17  C12 UNL     1      17.760  17.055  -1.748  0.00  0.00    +0.000 A 
ATOM     18  C13 UNL     1      16.389  17.140  -1.999  0.00  0.00    +0.000 A 
ENDBRANCH  12  13
ENDBRANCH  11  12
ENDBRANCH   3  11
TORSDOF 5
ENDMDL
MODEL 4
REMARK VINA RESULT:    -4.810     15.469     17.482
REMARK INTER + INTRA:          -6.730
REMARK INTER:                  -6.378
REMARK INTRA:                  -0.352
REMARK UNBOUND:                -0.514
REMARK  Name = /home/anacleto/Desktop/manuscript_Mpro/naturecomm/supplementary_file_S2/6-chemical-library/molecular_docking/3D_ligand_structure/621.pdb
REMARK  5 active torsions:
REMARK  status: ('A' for Active; 'I' for Inactive)
REMARK    1  A    between atoms: N2_5  and  C4_6
REMARK    2  A    between atoms: C4_6  and  C5_7
REMARK    3  A    between atoms: N3_9  and  C6_10
REMARK    4  A    between atoms: C6_10  and  C7_11
REMARK    5  A    between atoms: C7_11  and  C8_12
REMARK                            x       y       z     vdW  Elec       q    Type
REMARK                         _______ _______ _______ _____ _____    ______ ____
ROOT
ATOM      1  C5  UNL     1      16.258   2.060   8.836  0.00  0.00    +0.000 C 
ATOM      2  O1  UNL     1      16.737   1.343   9.712  0.00  0.00    +0.000 OA
ATOM      3  N3  UNL     1      16.665   3.364   8.626  0.00  0.00    +0.000 N 
ATOM      4  H6  UNL     1      16.039   3.969   8.105  0.00  0.00    +0.000 HD
ENDROOT
BRANCH   1   5
ATOM      5  C4  UNL     1      15.226   1.528   7.861  0.00  0.00    +0.000 C 
BRANCH   5  10
ATOM      6  C1  UNL     1      13.126   1.493   9.225  0.00  0.00    +0.000 A 
ATOM      7  N1  UNL     1      12.239   0.628   9.662  0.00  0.00    +0.000 NA
ATOM      8  C2  UNL     1      12.690  -0.599   9.247  0.00  0.00    +0.000 A 
ATOM      9  C3  UNL     1      13.857  -0.471   8.532  0.00  0.00    +0.000 A 
ATOM     10  N2  UNL     1      14.115   0.872   8.518  0.00  0.00    +0.000 N 
ENDBRANCH   5  10
ENDBRANCH   1   5
BRANCH   3  11
ATOM     11  C6  UNL     1      17.564   4.013   9.567  0.00  0.00    +0.000 C 
BRANCH  11  12
ATOM     12  C7  UNL     1      19.018   3.932   9.105  0.00  0.00    +0.000 C 
BRANCH  12  13
ATOM     13  C8  UNL     1      19.679   5.286   9.084  0.00  0.00    +0.000 A 
ATOM     14  C9  UNL     1      21.019   5.429   9.471  0.00  0.00    +0.000 A 
ATOM     15  C10 UNL     1      21.635   6.680   9.432  0.00  0.00    +0.000 A 
ATOM     16  C11 UNL     1      20.922   7.798   9.002  0.00  0.00    +0.000 A 
ATOM     17  C12 UNL     1      19.592   7.665   8.609  0.00  0.00    +0.000 A 
ATOM     18  C13 UNL     1      18.973   6.414   8.648  0.00  0.00    +0.000 A 
ENDBRANCH  12  13
ENDBRANCH  11  12
ENDBRANCH   3  11
TORSDOF 5
ENDMDL
MODEL 5
REMARK VINA RESULT:    -4.764      2.033      6.193
REMARK INTER + INTRA:          -6.670
REMARK INTER:                  -6.201
REMARK INTRA:                  -0.469
REMARK UNBOUND:                -0.514
REMARK  Name = /home/anacleto/Desktop/manuscript_Mpro/naturecomm/supplementary_file_S2/6-chemical-library/molecular_docking/3D_ligand_structure/621.pdb
REMARK  5 active torsions:
REMARK  status: ('A' for Active; 'I' for Inactive)
REMARK    1  A    between atoms: N2_5  and  C4_6
REMARK    2  A    between atoms: C4_6  and  C5_7
REMARK    3  A    between atoms: N3_9  and  C6_10
REMARK    4  A    between atoms: C6_10  and  C7_11
REMARK    5  A    between atoms: C7_11  and  C8_12
REMARK                            x       y       z     vdW  Elec       q    Type
REMARK                         _______ _______ _______ _____ _____    ______ ____
ROOT
ATOM      1  C5  UNL     1      15.106  13.069  -3.385  0.00  0.00    +0.000 C 
ATOM      2  O1  UNL     1      14.361  13.932  -3.846  0.00  0.00    +0.000 OA
ATOM      3  N3  UNL     1      16.135  13.354  -2.508  0.00  0.00    +0.000 N 
ATOM      4  H6  UNL     1      16.869  12.661  -2.410  0.00  0.00    +0.000 HD
ENDROOT
BRANCH   1   5
ATOM      5  C4  UNL     1      14.893  11.600  -3.693  0.00  0.00    +0.000 C 
BRANCH   5  10
ATOM      6  C1  UNL     1      13.332  10.795  -5.479  0.00  0.00    +0.000 A 
ATOM      7  N1  UNL     1      13.258  10.758  -6.790  0.00  0.00    +0.000 NA
ATOM      8  C2  UNL     1      14.437  11.293  -7.239  0.00  0.00    +0.000 A 
ATOM      9  C3  UNL     1      15.229  11.677  -6.183  0.00  0.00    +0.000 A 
ATOM     10  N2  UNL     1      14.504  11.362  -5.068  0.00  0.00    +0.000 N 
ENDBRANCH   5  10
ENDBRANCH   1   5
BRANCH   3  11
ATOM     11  C6  UNL     1      16.502  14.734  -2.231  0.00  0.00    +0.000 C 
BRANCH  11  12
ATOM     12  C7  UNL     1      15.800  15.264  -0.982  0.00  0.00    +0.000 C 
BRANCH  12  13
ATOM     13  C8  UNL     1      14.658  16.184  -1.324  0.00  0.00    +0.000 A 
ATOM     14  C9  UNL     1      14.860  17.287  -2.166  0.00  0.00    +0.000 A 
ATOM     15  C10 UNL     1      13.796  18.126  -2.498  0.00  0.00    +0.000 A 
ATOM     16  C11 UNL     1      12.521  17.871  -1.996  0.00  0.00    +0.000 A 
ATOM     17  C12 UNL     1      12.308  16.774  -1.164  0.00  0.00    +0.000 A 
ATOM     18  C13 UNL     1      13.371  15.933  -0.830  0.00  0.00    +0.000 A 
ENDBRANCH  12  13
ENDBRANCH  11  12
ENDBRANCH   3  11
TORSDOF 5
ENDMDL
MODEL 6
REMARK VINA RESULT:    -4.735     15.873     17.029
REMARK INTER + INTRA:          -6.632
REMARK INTER:                  -6.339
REMARK INTRA:                  -0.293
REMARK UNBOUND:                -0.514
REMARK  Name = /home/anacleto/Desktop/manuscript_Mpro/naturecomm/supplementary_file_S2/6-chemical-library/molecular_docking/3D_ligand_structure/621.pdb
REMARK  5 active torsions:
REMARK  status: ('A' for Active; 'I' for Inactive)
REMARK    1  A    between atoms: N2_5  and  C4_6
REMARK    2  A    between atoms: C4_6  and  C5_7
REMARK    3  A    between atoms: N3_9  and  C6_10
REMARK    4  A    between atoms: C6_10  and  C7_11
REMARK    5  A    between atoms: C7_11  and  C8_12
REMARK                            x       y       z     vdW  Elec       q    Type
REMARK                         _______ _______ _______ _____ _____    ______ ____
ROOT
ATOM      1  C5  UNL     1      18.891   4.590   9.083  0.00  0.00    +0.000 C 
ATOM      2  O1  UNL     1      19.796   3.772   9.229  0.00  0.00    +0.000 OA
ATOM      3  N3  UNL     1      17.570   4.225   8.899  0.00  0.00    +0.000 N 
ATOM      4  H6  UNL     1      16.947   4.917   8.498  0.00  0.00    +0.000 HD
ENDROOT
BRANCH   1   5
ATOM      5  C4  UNL     1      19.154   6.080   9.174  0.00  0.00    +0.000 C 
BRANCH   5  10
ATOM      6  C1  UNL     1      18.923   6.696  11.591  0.00  0.00    +0.000 A 
ATOM      7  N1  UNL     1      19.686   7.009  12.614  0.00  0.00    +0.000 NA
ATOM      8  C2  UNL     1      20.966   7.029  12.123  0.00  0.00    +0.000 A 
ATOM      9  C3  UNL     1      20.979   6.704  10.787  0.00  0.00    +0.000 A 
ATOM     10  N2  UNL     1      19.668   6.483  10.467  0.00  0.00    +0.000 N 
ENDBRANCH   5  10
ENDBRANCH   1   5
BRANCH   3  11
ATOM     11  C6  UNL     1      17.217   2.830   8.684  0.00  0.00    +0.000 C 
BRANCH  11  12
ATOM     12  C7  UNL     1      16.100   2.685   7.652  0.00  0.00    +0.000 C 
BRANCH  12  13
ATOM     13  C8  UNL     1      15.247   1.470   7.911  0.00  0.00    +0.000 A 
ATOM     14  C9  UNL     1      14.006   1.596   8.551  0.00  0.00    +0.000 A 
ATOM     15  C10 UNL     1      13.209   0.472   8.773  0.00  0.00    +0.000 A 
ATOM     16  C11 UNL     1      13.641  -0.785   8.355  0.00  0.00    +0.000 A 
ATOM     17  C12 UNL     1      14.870  -0.920   7.712  0.00  0.00    +0.000 A 
ATOM     18  C13 UNL     1      15.670   0.203   7.490  0.00  0.00    +0.000 A 
ENDBRANCH  12  13
ENDBRANCH  11  12
ENDBRANCH   3  11
TORSDOF 5
ENDMDL
MODEL 7
REMARK VINA RESULT:    -4.728     15.806     17.110
REMARK INTER + INTRA:          -6.624
REMARK INTER:                  -6.307
REMARK INTRA:                  -0.317
REMARK UNBOUND:                -0.514
REMARK  Name = /home/anacleto/Desktop/manuscript_Mpro/naturecomm/supplementary_file_S2/6-chemical-library/molecular_docking/3D_ligand_structure/621.pdb
REMARK  5 active torsions:
REMARK  status: ('A' for Active; 'I' for Inactive)
REMARK    1  A    between atoms: N2_5  and  C4_6
REMARK    2  A    between atoms: C4_6  and  C5_7
REMARK    3  A    between atoms: N3_9  and  C6_10
REMARK    4  A    between atoms: C6_10  and  C7_11
REMARK    5  A    between atoms: C7_11  and  C8_12
REMARK                            x       y       z     vdW  Elec       q    Type
REMARK                         _______ _______ _______ _____ _____    ______ ____
ROOT
ATOM      1  C5  UNL     1      18.358   4.803   9.344  0.00  0.00    +0.000 C 
ATOM      2  O1  UNL     1      18.349   4.504  10.536  0.00  0.00    +0.000 OA
ATOM      3  N3  UNL     1      17.515   4.221   8.416  0.00  0.00    +0.000 N 
ATOM      4  H6  UNL     1      17.776   4.295   7.439  0.00  0.00    +0.000 HD
ENDROOT
BRANCH   1   5
ATOM      5  C4  UNL     1      19.255   5.906   8.816  0.00  0.00    +0.000 C 
BRANCH   5  10
ATOM      6  C1  UNL     1      21.533   6.365   9.750  0.00  0.00    +0.000 A 
ATOM      7  N1  UNL     1      22.730   5.826   9.758  0.00  0.00    +0.000 NA
ATOM      8  C2  UNL     1      22.636   4.714   8.962  0.00  0.00    +0.000 A 
ATOM      9  C3  UNL     1      21.357   4.568   8.481  0.00  0.00    +0.000 A 
ATOM     10  N2  UNL     1      20.663   5.624   9.003  0.00  0.00    +0.000 N 
ENDBRANCH   5  10
ENDBRANCH   1   5
BRANCH   3  11
ATOM     11  C6  UNL     1      16.694   3.078   8.785  0.00  0.00    +0.000 C 
BRANCH  11  12
ATOM     12  C7  UNL     1      16.198   2.319   7.555  0.00  0.00    +0.000 C 
BRANCH  12  13
ATOM     13  C8  UNL     1      15.179   1.269   7.913  0.00  0.00    +0.000 A 
ATOM     14  C9  UNL     1      15.364  -0.064   7.524  0.00  0.00    +0.000 A 
ATOM     15  C10 UNL     1      14.429  -1.039   7.873  0.00  0.00    +0.000 A 
ATOM     16  C11 UNL     1      13.303  -0.692   8.617  0.00  0.00    +0.000 A 
ATOM     17  C12 UNL     1      13.112   0.630   9.015  0.00  0.00    +0.000 A 
ATOM     18  C13 UNL     1      14.047   1.607   8.666  0.00  0.00    +0.000 A 
ENDBRANCH  12  13
ENDBRANCH  11  12
ENDBRANCH   3  11
TORSDOF 5
ENDMDL
MODEL 8
REMARK VINA RESULT:    -4.722      3.372      6.587
REMARK INTER + INTRA:          -6.616
REMARK INTER:                  -6.102
REMARK INTRA:                  -0.514
REMARK UNBOUND:                -0.514
REMARK  Name = /home/anacleto/Desktop/manuscript_Mpro/naturecomm/supplementary_file_S2/6-chemical-library/molecular_docking/3D_ligand_structure/621.pdb
REMARK  5 active torsions:
REMARK  status: ('A' for Active; 'I' for Inactive)
REMARK    1  A    between atoms: N2_5  and  C4_6
REMARK    2  A    between atoms: C4_6  and  C5_7
REMARK    3  A    between atoms: N3_9  and  C6_10
REMARK    4  A    between atoms: C6_10  and  C7_11
REMARK    5  A    between atoms: C7_11  and  C8_12
REMARK                            x       y       z     vdW  Elec       q    Type
REMARK                         _______ _______ _______ _____ _____    ______ ____
ROOT
ATOM      1  C5  UNL     1      15.066  11.673  -3.210  0.00  0.00    +0.000 C 
ATOM      2  O1  UNL     1      14.924  12.880  -3.030  0.00  0.00    +0.000 OA
ATOM      3  N3  UNL     1      15.573  10.823  -2.244  0.00  0.00    +0.000 N 
ATOM      4  H6  UNL     1      15.933   9.927  -2.554  0.00  0.00    +0.000 HD
ENDROOT
BRANCH   1   5
ATOM      5  C4  UNL     1      14.615  11.009  -4.497  0.00  0.00    +0.000 C 
BRANCH   5  10
ATOM      6  C1  UNL     1      15.243  11.694  -6.823  0.00  0.00    +0.000 A 
ATOM      7  N1  UNL     1      16.316  11.787  -7.575  0.00  0.00    +0.000 NA
ATOM      8  C2  UNL     1      17.345  11.307  -6.806  0.00  0.00    +0.000 A 
ATOM      9  C3  UNL     1      16.891  10.936  -5.563  0.00  0.00    +0.000 A 
ATOM     10  N2  UNL     1      15.549  11.200  -5.587  0.00  0.00    +0.000 N 
ENDBRANCH   5  10
ENDBRANCH   1   5
BRANCH   3  11
ATOM     11  C6  UNL     1      16.141  11.363  -1.018  0.00  0.00    +0.000 C 
BRANCH  11  12
ATOM     12  C7  UNL     1      17.643  11.608  -1.152  0.00  0.00    +0.000 C 
BRANCH  12  13
ATOM     13  C8  UNL     1      18.039  12.971  -0.648  0.00  0.00    +0.000 A 
ATOM     14  C9  UNL     1      17.076  13.976  -0.482  0.00  0.00    +0.000 A 
ATOM     15  C10 UNL     1      17.442  15.232   0.004  0.00  0.00    +0.000 A 
ATOM     16  C11 UNL     1      18.771  15.494   0.332  0.00  0.00    +0.000 A 
ATOM     17  C12 UNL     1      19.735  14.500   0.177  0.00  0.00    +0.000 A 
ATOM     18  C13 UNL     1      19.371  13.243  -0.310  0.00  0.00    +0.000 A 
ENDBRANCH  12  13
ENDBRANCH  11  12
ENDBRANCH   3  11
TORSDOF 5
ENDMDL
MODEL 9
REMARK VINA RESULT:    -4.670      3.290      6.489
REMARK INTER + INTRA:          -6.549
REMARK INTER:                  -6.128
REMARK INTRA:                  -0.421
REMARK UNBOUND:                -0.514
REMARK  Name = /home/anacleto/Desktop/manuscript_Mpro/naturecomm/supplementary_file_S2/6-chemical-library/molecular_docking/3D_ligand_structure/621.pdb
REMARK  5 active torsions:
REMARK  status: ('A' for Active; 'I' for Inactive)
REMARK    1  A    between atoms: N2_5  and  C4_6
REMARK    2  A    between atoms: C4_6  and  C5_7
REMARK    3  A    between atoms: N3_9  and  C6_10
REMARK    4  A    between atoms: C6_10  and  C7_11
REMARK    5  A    between atoms: C7_11  and  C8_12
REMARK                            x       y       z     vdW  Elec       q    Type
REMARK                         _______ _______ _______ _____ _____    ______ ____
ROOT
ATOM      1  C5  UNL     1      16.495  11.211  -2.725  0.00  0.00    +0.000 C 
ATOM      2  O1  UNL     1      15.591  11.786  -2.123  0.00  0.00    +0.000 OA
ATOM      3  N3  UNL     1      17.738  10.974  -2.168  0.00  0.00    +0.000 N 
ATOM      4  H6  UNL     1      18.502  10.772  -2.803  0.00  0.00    +0.000 HD
ENDROOT
BRANCH   1   5
ATOM      5  C4  UNL     1      16.278  10.642  -4.114  0.00  0.00    +0.000 C 
BRANCH   5  10
ATOM      6  C1  UNL     1      15.084  12.345  -5.509  0.00  0.00    +0.000 A 
ATOM      7  N1  UNL     1      13.890  12.554  -6.014  0.00  0.00    +0.000 NA
ATOM      8  C2  UNL     1      13.114  11.518  -5.562  0.00  0.00    +0.000 A 
ATOM      9  C3  UNL     1      13.856  10.658  -4.787  0.00  0.00    +0.000 A 
ATOM     10  N2  UNL     1      15.114  11.195  -4.774  0.00  0.00    +0.000 N 
ENDBRANCH   5  10
ENDBRANCH   1   5
BRANCH   3  11
ATOM     11  C6  UNL     1      18.094  11.570  -0.889  0.00  0.00    +0.000 C 
BRANCH  11  12
ATOM     12  C7  UNL     1      19.124  12.685  -1.056  0.00  0.00    +0.000 C 
BRANCH  12  13
ATOM     13  C8  UNL     1      18.692  13.959  -0.377  0.00  0.00    +0.000 A 
ATOM     14  C9  UNL     1      17.346  14.353  -0.394  0.00  0.00    +0.000 A 
ATOM     15  C10 UNL     1      16.944  15.522   0.252  0.00  0.00    +0.000 A 
ATOM     16  C11 UNL     1      17.880  16.306   0.925  0.00  0.00    +0.000 A 
ATOM     17  C12 UNL     1      19.218  15.920   0.954  0.00  0.00    +0.000 A 
ATOM     18  C13 UNL     1      19.623  14.750   0.307  0.00  0.00    +0.000 A 
ENDBRANCH  12  13
ENDBRANCH  11  12
ENDBRANCH   3  11
TORSDOF 5
ENDMDL
