MODEL 1
REMARK VINA RESULT:    -3.325      0.000      0.000
REMARK INTER + INTRA:          -3.325
REMARK INTER:                  -3.325
REMARK INTRA:                   0.000
REMARK UNBOUND:                 0.000
REMARK  Name = /home/anacleto/Desktop/manuscript_Mpro/naturecomm/supplementary_file_S2/6-chemical-library/molecular_docking/3D_ligand_structure/358.pdb
REMARK  0 active torsions:
REMARK  status: ('A' for Active; 'I' for Inactive)
REMARK                            x       y       z     vdW  Elec       q    Type
REMARK                         _______ _______ _______ _____ _____    ______ ____
ROOT
ATOM      1  N1  UNL     1      14.973  11.008  -3.655  0.00  0.00    +0.000 NA
ATOM      2  C1  UNL     1      16.259  11.300  -3.784  0.00  0.00    +0.000 A 
ATOM      3  S1  UNL     1      16.833  11.614  -5.397  0.00  0.00    +0.000 S 
ATOM      4  C2  UNL     1      15.274  11.340  -5.934  0.00  0.00    +0.000 A 
ATOM      5  C3  UNL     1      14.431  11.038  -4.903  0.00  0.00    +0.000 A 
ATOM      6  C4  UNL     1      14.621  11.359  -7.256  0.00  0.00    +0.000 C 
ATOM      7  C5  UNL     1      13.249  10.684  -6.913  0.00  0.00    +0.000 C 
ATOM      8  C6  UNL     1      13.049  10.797  -5.364  0.00  0.00    +0.000 C 
ENDROOT
TORSDOF 0
ENDMDL
MODEL 2
REMARK VINA RESULT:    -3.269     15.902     17.092
REMARK INTER + INTRA:          -3.269
REMARK INTER:                  -3.269
REMARK INTRA:                   0.000
REMARK UNBOUND:                 0.000
REMARK  Name = /home/anacleto/Desktop/manuscript_Mpro/naturecomm/supplementary_file_S2/6-chemical-library/molecular_docking/3D_ligand_structure/358.pdb
REMARK  0 active torsions:
REMARK  status: ('A' for Active; 'I' for Inactive)
REMARK                            x       y       z     vdW  Elec       q    Type
REMARK                         _______ _______ _______ _____ _____    ______ ____
ROOT
ATOM      1  N1  UNL     1      19.146   7.512  11.606  0.00  0.00    +0.000 NA
ATOM      2  C1  UNL     1      18.741   6.547  12.418  0.00  0.00    +0.000 A 
ATOM      3  S1  UNL     1      18.510   4.973  11.710  0.00  0.00    +0.000 S 
ATOM      4  C2  UNL     1      18.977   5.635  10.248  0.00  0.00    +0.000 A 
ATOM      5  C3  UNL     1      19.274   6.963  10.367  0.00  0.00    +0.000 A 
ATOM      6  C4  UNL     1      19.140   5.105   8.882  0.00  0.00    +0.000 C 
ATOM      7  C5  UNL     1      19.288   6.435   8.068  0.00  0.00    +0.000 C 
ATOM      8  C6  UNL     1      19.692   7.559   9.082  0.00  0.00    +0.000 C 
ENDROOT
TORSDOF 0
ENDMDL
MODEL 3
REMARK VINA RESULT:    -3.228      1.397      1.988
REMARK INTER + INTRA:          -3.228
REMARK INTER:                  -3.228
REMARK INTRA:                   0.000
REMARK UNBOUND:                 0.000
REMARK  Name = /home/anacleto/Desktop/manuscript_Mpro/naturecomm/supplementary_file_S2/6-chemical-library/molecular_docking/3D_ligand_structure/358.pdb
REMARK  0 active torsions:
REMARK  status: ('A' for Active; 'I' for Inactive)
REMARK                            x       y       z     vdW  Elec       q    Type
REMARK                         _______ _______ _______ _____ _____    ______ ____
ROOT
ATOM      1  N1  UNL     1      16.698  12.044  -5.556  0.00  0.00    +0.000 NA
ATOM      2  C1  UNL     1      16.959  11.867  -4.269  0.00  0.00    +0.000 A 
ATOM      3  S1  UNL     1      15.724  11.087  -3.321  0.00  0.00    +0.000 S 
ATOM      4  C2  UNL     1      14.806  10.993  -4.714  0.00  0.00    +0.000 A 
ATOM      5  C3  UNL     1      15.456  11.535  -5.785  0.00  0.00    +0.000 A 
ATOM      6  C4  UNL     1      13.470  10.457  -5.033  0.00  0.00    +0.000 C 
ATOM      7  C5  UNL     1      13.249  11.056  -6.464  0.00  0.00    +0.000 C 
ATOM      8  C6  UNL     1      14.656  11.455  -7.024  0.00  0.00    +0.000 C 
ENDROOT
TORSDOF 0
ENDMDL
MODEL 4
REMARK VINA RESULT:    -3.097     15.658     16.804
REMARK INTER + INTRA:          -3.097
REMARK INTER:                  -3.097
REMARK INTRA:                   0.000
REMARK UNBOUND:                 0.000
REMARK  Name = /home/anacleto/Desktop/manuscript_Mpro/naturecomm/supplementary_file_S2/6-chemical-library/molecular_docking/3D_ligand_structure/358.pdb
REMARK  0 active torsions:
REMARK  status: ('A' for Active; 'I' for Inactive)
REMARK                            x       y       z     vdW  Elec       q    Type
REMARK                         _______ _______ _______ _____ _____    ______ ____
ROOT
ATOM      1  N1  UNL     1      20.525   4.429  10.500  0.00  0.00    +0.000 NA
ATOM      2  C1  UNL     1      19.488   3.644  10.248  0.00  0.00    +0.000 A 
ATOM      3  S1  UNL     1      18.282   4.267   9.157  0.00  0.00    +0.000 S 
ATOM      4  C2  UNL     1      19.209   5.653   9.029  0.00  0.00    +0.000 A 
ATOM      5  C3  UNL     1      20.340   5.575   9.790  0.00  0.00    +0.000 A 
ATOM      6  C4  UNL     1      19.074   6.918   8.284  0.00  0.00    +0.000 C 
ATOM      7  C5  UNL     1      20.187   7.781   8.970  0.00  0.00    +0.000 C 
ATOM      8  C6  UNL     1      21.170   6.793   9.683  0.00  0.00    +0.000 C 
ENDROOT
TORSDOF 0
ENDMDL
MODEL 5
REMARK VINA RESULT:    -3.013      1.966      3.529
REMARK INTER + INTRA:          -3.013
REMARK INTER:                  -3.013
REMARK INTRA:                   0.000
REMARK UNBOUND:                 0.000
REMARK  Name = /home/anacleto/Desktop/manuscript_Mpro/naturecomm/supplementary_file_S2/6-chemical-library/molecular_docking/3D_ligand_structure/358.pdb
REMARK  0 active torsions:
REMARK  status: ('A' for Active; 'I' for Inactive)
REMARK                            x       y       z     vdW  Elec       q    Type
REMARK                         _______ _______ _______ _____ _____    ______ ____
ROOT
ATOM      1  N1  UNL     1      15.577  11.372  -7.053  0.00  0.00    +0.000 NA
ATOM      2  C1  UNL     1      14.254  11.403  -7.121  0.00  0.00    +0.000 A 
ATOM      3  S1  UNL     1      13.390  11.257  -5.617  0.00  0.00    +0.000 S 
ATOM      4  C2  UNL     1      14.872  11.146  -4.852  0.00  0.00    +0.000 A 
ATOM      5  C3  UNL     1      15.906  11.223  -5.741  0.00  0.00    +0.000 A 
ATOM      6  C4  UNL     1      15.299  10.989  -3.449  0.00  0.00    +0.000 C 
ATOM      7  C5  UNL     1      16.816  10.652  -3.641  0.00  0.00    +0.000 C 
ATOM      8  C6  UNL     1      17.221  11.130  -5.076  0.00  0.00    +0.000 C 
ENDROOT
TORSDOF 0
ENDMDL
MODEL 6
REMARK VINA RESULT:    -2.949     19.067     19.957
REMARK INTER + INTRA:          -2.949
REMARK INTER:                  -2.949
REMARK INTRA:                   0.000
REMARK UNBOUND:                 0.000
REMARK  Name = /home/anacleto/Desktop/manuscript_Mpro/naturecomm/supplementary_file_S2/6-chemical-library/molecular_docking/3D_ligand_structure/358.pdb
REMARK  0 active torsions:
REMARK  status: ('A' for Active; 'I' for Inactive)
REMARK                            x       y       z     vdW  Elec       q    Type
REMARK                         _______ _______ _______ _____ _____    ______ ____
ROOT
ATOM      1  N1  UNL     1      25.054  15.519   9.888  0.00  0.00    +0.000 NA
ATOM      2  C1  UNL     1      26.215  15.151  10.411  0.00  0.00    +0.000 A 
ATOM      3  S1  UNL     1      26.213  14.725  12.099  0.00  0.00    +0.000 S 
ATOM      4  C2  UNL     1      24.574  15.057  12.113  0.00  0.00    +0.000 A 
ATOM      5  C3  UNL     1      24.130  15.458  10.886  0.00  0.00    +0.000 A 
ATOM      6  C4  UNL     1      23.522  15.009  13.144  0.00  0.00    +0.000 C 
ATOM      7  C5  UNL     1      22.365  15.775  12.418  0.00  0.00    +0.000 C 
ATOM      8  C6  UNL     1      22.683  15.752  10.884  0.00  0.00    +0.000 C 
ENDROOT
TORSDOF 0
ENDMDL
MODEL 7
REMARK VINA RESULT:    -2.890     19.300     20.120
REMARK INTER + INTRA:          -2.890
REMARK INTER:                  -2.890
REMARK INTRA:                   0.000
REMARK UNBOUND:                 0.000
REMARK  Name = /home/anacleto/Desktop/manuscript_Mpro/naturecomm/supplementary_file_S2/6-chemical-library/molecular_docking/3D_ligand_structure/358.pdb
REMARK  0 active torsions:
REMARK  status: ('A' for Active; 'I' for Inactive)
REMARK                            x       y       z     vdW  Elec       q    Type
REMARK                         _______ _______ _______ _____ _____    ______ ____
ROOT
ATOM      1  N1  UNL     1      24.130  18.817  11.907  0.00  0.00    +0.000 NA
ATOM      2  C1  UNL     1      24.882  18.715  10.821  0.00  0.00    +0.000 A 
ATOM      3  S1  UNL     1      24.746  17.238   9.910  0.00  0.00    +0.000 S 
ATOM      4  C2  UNL     1      23.625  16.723  11.039  0.00  0.00    +0.000 A 
ATOM      5  C3  UNL     1      23.419  17.661  12.010  0.00  0.00    +0.000 A 
ATOM      6  C4  UNL     1      22.822  15.498  11.209  0.00  0.00    +0.000 C 
ATOM      7  C5  UNL     1      22.293  15.696  12.670  0.00  0.00    +0.000 C 
ATOM      8  C6  UNL     1      22.429  17.219  13.012  0.00  0.00    +0.000 C 
ENDROOT
TORSDOF 0
ENDMDL
MODEL 8
REMARK VINA RESULT:    -2.874      2.037      2.472
REMARK INTER + INTRA:          -2.874
REMARK INTER:                  -2.874
REMARK INTRA:                   0.000
REMARK UNBOUND:                 0.000
REMARK  Name = /home/anacleto/Desktop/manuscript_Mpro/naturecomm/supplementary_file_S2/6-chemical-library/molecular_docking/3D_ligand_structure/358.pdb
REMARK  0 active torsions:
REMARK  status: ('A' for Active; 'I' for Inactive)
REMARK                            x       y       z     vdW  Elec       q    Type
REMARK                         _______ _______ _______ _____ _____    ______ ____
ROOT
ATOM      1  N1  UNL     1      15.512  13.140  -2.284  0.00  0.00    +0.000 NA
ATOM      2  C1  UNL     1      16.132  12.114  -1.718  0.00  0.00    +0.000 A 
ATOM      3  S1  UNL     1      16.185  10.632  -2.629  0.00  0.00    +0.000 S 
ATOM      4  C2  UNL     1      15.331  11.419  -3.832  0.00  0.00    +0.000 A 
ATOM      5  C3  UNL     1      15.061  12.714  -3.495  0.00  0.00    +0.000 A 
ATOM      6  C4  UNL     1      14.819  11.025  -5.158  0.00  0.00    +0.000 C 
ATOM      7  C5  UNL     1      13.875  12.234  -5.476  0.00  0.00    +0.000 C 
ATOM      8  C6  UNL     1      14.310  13.421  -4.552  0.00  0.00    +0.000 C 
ENDROOT
TORSDOF 0
ENDMDL
MODEL 9
REMARK VINA RESULT:    -2.831     19.633     20.346
REMARK INTER + INTRA:          -2.831
REMARK INTER:                  -2.831
REMARK INTRA:                   0.000
REMARK UNBOUND:                 0.000
REMARK  Name = /home/anacleto/Desktop/manuscript_Mpro/naturecomm/supplementary_file_S2/6-chemical-library/molecular_docking/3D_ligand_structure/358.pdb
REMARK  0 active torsions:
REMARK  status: ('A' for Active; 'I' for Inactive)
REMARK                            x       y       z     vdW  Elec       q    Type
REMARK                         _______ _______ _______ _____ _____    ______ ____
ROOT
ATOM      1  N1  UNL     1      25.667  14.531  12.569  0.00  0.00    +0.000 NA
ATOM      2  C1  UNL     1      26.085  14.725  11.326  0.00  0.00    +0.000 A 
ATOM      3  S1  UNL     1      24.979  15.521  10.243  0.00  0.00    +0.000 S 
ATOM      4  C2  UNL     1      23.896  15.600  11.514  0.00  0.00    +0.000 A 
ATOM      5  C3  UNL     1      24.408  15.042  12.650  0.00  0.00    +0.000 A 
ATOM      6  C4  UNL     1      22.531  16.136  11.673  0.00  0.00    +0.000 C 
ATOM      7  C5  UNL     1      22.135  15.520  13.057  0.00  0.00    +0.000 C 
ATOM      8  C6  UNL     1      23.461  15.109  13.781  0.00  0.00    +0.000 C 
ENDROOT
TORSDOF 0
ENDMDL
