MODEL 1
REMARK VINA RESULT:    -3.301      0.000      0.000
REMARK INTER + INTRA:          -3.301
REMARK INTER:                  -3.301
REMARK INTRA:                   0.000
REMARK UNBOUND:                 0.000
REMARK  Name = /home/anacleto/Desktop/manuscript_Mpro/naturecomm/supplementary_file_S2/6-chemical-library/molecular_docking/3D_ligand_structure/60.pdb
REMARK  0 active torsions:
REMARK  status: ('A' for Active; 'I' for Inactive)
REMARK                            x       y       z     vdW  Elec       q    Type
REMARK                         _______ _______ _______ _____ _____    ______ ____
ROOT
ATOM      1  N1  UNL     1      15.210  10.574  -3.396  0.00  0.00    +0.000 NA
ATOM      2  C1  UNL     1      14.418  11.092  -4.257  0.00  0.00    +0.000 A 
ATOM      3  N2  UNL     1      13.500  10.319  -4.917  0.00  0.00    +0.000 NA
ATOM      4  C2  UNL     1      12.833  11.118  -5.696  0.00  0.00    +0.000 A 
ATOM      5  N3  UNL     1      13.073  12.468  -5.705  0.00  0.00    +0.000 N 
ATOM      6  S1  UNL     1      14.396  12.787  -4.719  0.00  0.00    +0.000 S 
ATOM      7  H1  UNL     1      14.958   9.580  -3.373  0.00  0.00    +0.000 HD
ATOM      8  H3  UNL     1      12.939  12.979  -6.573  0.00  0.00    +0.000 HD
ENDROOT
TORSDOF 0
ENDMDL
MODEL 2
REMARK VINA RESULT:    -3.234      1.556      2.388
REMARK INTER + INTRA:          -3.234
REMARK INTER:                  -3.234
REMARK INTRA:                   0.000
REMARK UNBOUND:                 0.000
REMARK  Name = /home/anacleto/Desktop/manuscript_Mpro/naturecomm/supplementary_file_S2/6-chemical-library/molecular_docking/3D_ligand_structure/60.pdb
REMARK  0 active torsions:
REMARK  status: ('A' for Active; 'I' for Inactive)
REMARK                            x       y       z     vdW  Elec       q    Type
REMARK                         _______ _______ _______ _____ _____    ______ ____
ROOT
ATOM      1  N1  UNL     1      14.430  14.172  -4.693  0.00  0.00    +0.000 NA
ATOM      2  C1  UNL     1      14.285  12.903  -4.608  0.00  0.00    +0.000 A 
ATOM      3  N2  UNL     1      13.464  12.233  -5.476  0.00  0.00    +0.000 NA
ATOM      4  C2  UNL     1      13.541  10.974  -5.164  0.00  0.00    +0.000 A 
ATOM      5  N3  UNL     1      14.375  10.537  -4.166  0.00  0.00    +0.000 N 
ATOM      6  S1  UNL     1      15.062  11.875  -3.414  0.00  0.00    +0.000 S 
ATOM      7  H1  UNL     1      13.842  14.450  -5.486  0.00  0.00    +0.000 HD
ATOM      8  H3  UNL     1      14.099   9.724  -3.624  0.00  0.00    +0.000 HD
ENDROOT
TORSDOF 0
ENDMDL
MODEL 3
REMARK VINA RESULT:    -3.017      1.748      2.646
REMARK INTER + INTRA:          -3.017
REMARK INTER:                  -3.017
REMARK INTRA:                   0.000
REMARK UNBOUND:                 0.000
REMARK  Name = /home/anacleto/Desktop/manuscript_Mpro/naturecomm/supplementary_file_S2/6-chemical-library/molecular_docking/3D_ligand_structure/60.pdb
REMARK  0 active torsions:
REMARK  status: ('A' for Active; 'I' for Inactive)
REMARK                            x       y       z     vdW  Elec       q    Type
REMARK                         _______ _______ _______ _____ _____    ______ ____
ROOT
ATOM      1  N1  UNL     1      14.212  14.251  -4.350  0.00  0.00    +0.000 NA
ATOM      2  C1  UNL     1      14.303  12.979  -4.447  0.00  0.00    +0.000 A 
ATOM      3  N2  UNL     1      15.007  12.255  -3.522  0.00  0.00    +0.000 NA
ATOM      4  C2  UNL     1      14.898  11.006  -3.867  0.00  0.00    +0.000 A 
ATOM      5  N3  UNL     1      14.141  10.628  -4.944  0.00  0.00    +0.000 N 
ATOM      6  S1  UNL     1      13.590  12.009  -5.728  0.00  0.00    +0.000 S 
ATOM      7  H1  UNL     1      14.737  14.487  -3.502  0.00  0.00    +0.000 HD
ATOM      8  H3  UNL     1      14.425   9.810  -5.476  0.00  0.00    +0.000 HD
ENDROOT
TORSDOF 0
ENDMDL
MODEL 4
REMARK VINA RESULT:    -2.865     19.467     19.873
REMARK INTER + INTRA:          -2.865
REMARK INTER:                  -2.865
REMARK INTRA:                   0.000
REMARK UNBOUND:                 0.000
REMARK  Name = /home/anacleto/Desktop/manuscript_Mpro/naturecomm/supplementary_file_S2/6-chemical-library/molecular_docking/3D_ligand_structure/60.pdb
REMARK  0 active torsions:
REMARK  status: ('A' for Active; 'I' for Inactive)
REMARK                            x       y       z     vdW  Elec       q    Type
REMARK                         _______ _______ _______ _____ _____    ______ ____
ROOT
ATOM      1  N1  UNL     1      23.801  13.964  12.628  0.00  0.00    +0.000 NA
ATOM      2  C1  UNL     1      23.253  15.098  12.406  0.00  0.00    +0.000 A 
ATOM      3  N2  UNL     1      22.765  15.854  13.439  0.00  0.00    +0.000 NA
ATOM      4  C2  UNL     1      22.298  16.947  12.911  0.00  0.00    +0.000 A 
ATOM      5  N3  UNL     1      22.397  17.187  11.565  0.00  0.00    +0.000 N 
ATOM      6  S1  UNL     1      23.032  15.821  10.819  0.00  0.00    +0.000 S 
ATOM      7  H1  UNL     1      23.763  13.850  13.647  0.00  0.00    +0.000 HD
ATOM      8  H3  UNL     1      21.668  17.731  11.114  0.00  0.00    +0.000 HD
ENDROOT
TORSDOF 0
ENDMDL
MODEL 5
REMARK VINA RESULT:    -2.825      1.984      2.599
REMARK INTER + INTRA:          -2.825
REMARK INTER:                  -2.825
REMARK INTRA:                   0.000
REMARK UNBOUND:                 0.000
REMARK  Name = /home/anacleto/Desktop/manuscript_Mpro/naturecomm/supplementary_file_S2/6-chemical-library/molecular_docking/3D_ligand_structure/60.pdb
REMARK  0 active torsions:
REMARK  status: ('A' for Active; 'I' for Inactive)
REMARK                            x       y       z     vdW  Elec       q    Type
REMARK                         _______ _______ _______ _____ _____    ______ ____
ROOT
ATOM      1  N1  UNL     1      15.040  10.699  -3.420  0.00  0.00    +0.000 NA
ATOM      2  C1  UNL     1      14.790  11.942  -3.594  0.00  0.00    +0.000 A 
ATOM      3  N2  UNL     1      14.998  12.845  -2.585  0.00  0.00    +0.000 NA
ATOM      4  C2  UNL     1      14.684  14.013  -3.062  0.00  0.00    +0.000 A 
ATOM      5  N3  UNL     1      14.289  14.168  -4.365  0.00  0.00    +0.000 N 
ATOM      6  S1  UNL     1      14.154  12.648  -5.072  0.00  0.00    +0.000 S 
ATOM      7  H1  UNL     1      15.390  10.635  -2.458  0.00  0.00    +0.000 HD
ATOM      8  H3  UNL     1      13.624  14.902  -4.588  0.00  0.00    +0.000 HD
ENDROOT
TORSDOF 0
ENDMDL
MODEL 6
REMARK VINA RESULT:    -2.823      2.022      2.463
REMARK INTER + INTRA:          -2.823
REMARK INTER:                  -2.823
REMARK INTRA:                   0.000
REMARK UNBOUND:                 0.000
REMARK  Name = /home/anacleto/Desktop/manuscript_Mpro/naturecomm/supplementary_file_S2/6-chemical-library/molecular_docking/3D_ligand_structure/60.pdb
REMARK  0 active torsions:
REMARK  status: ('A' for Active; 'I' for Inactive)
REMARK                            x       y       z     vdW  Elec       q    Type
REMARK                         _______ _______ _______ _____ _____    ______ ____
ROOT
ATOM      1  N1  UNL     1      15.797  11.540  -7.334  0.00  0.00    +0.000 NA
ATOM      2  C1  UNL     1      15.110  11.225  -6.302  0.00  0.00    +0.000 A 
ATOM      3  N2  UNL     1      13.787  10.888  -6.418  0.00  0.00    +0.000 NA
ATOM      4  C2  UNL     1      13.371  10.597  -5.222  0.00  0.00    +0.000 A 
ATOM      5  N3  UNL     1      14.223  10.612  -4.148  0.00  0.00    +0.000 N 
ATOM      6  S1  UNL     1      15.717  11.196  -4.653  0.00  0.00    +0.000 S 
ATOM      7  H1  UNL     1      15.143  11.457  -8.119  0.00  0.00    +0.000 HD
ATOM      8  H3  UNL     1      13.852  10.862  -3.236  0.00  0.00    +0.000 HD
ENDROOT
TORSDOF 0
ENDMDL
MODEL 7
REMARK VINA RESULT:    -2.785     15.416     15.904
REMARK INTER + INTRA:          -2.785
REMARK INTER:                  -2.785
REMARK INTRA:                   0.000
REMARK UNBOUND:                 0.000
REMARK  Name = /home/anacleto/Desktop/manuscript_Mpro/naturecomm/supplementary_file_S2/6-chemical-library/molecular_docking/3D_ligand_structure/60.pdb
REMARK  0 active torsions:
REMARK  status: ('A' for Active; 'I' for Inactive)
REMARK                            x       y       z     vdW  Elec       q    Type
REMARK                         _______ _______ _______ _____ _____    ______ ____
ROOT
ATOM      1  N1  UNL     1      21.679   8.166   9.298  0.00  0.00    +0.000 NA
ATOM      2  C1  UNL     1      20.811   7.260   9.051  0.00  0.00    +0.000 A 
ATOM      3  N2  UNL     1      19.542   7.594   8.660  0.00  0.00    +0.000 NA
ATOM      4  C2  UNL     1      18.908   6.477   8.460  0.00  0.00    +0.000 A 
ATOM      5  N3  UNL     1      19.537   5.266   8.597  0.00  0.00    +0.000 N 
ATOM      6  S1  UNL     1      21.090   5.530   9.185  0.00  0.00    +0.000 S 
ATOM      7  H1  UNL     1      21.190   9.051   9.124  0.00  0.00    +0.000 HD
ATOM      8  H3  UNL     1      18.993   4.469   8.913  0.00  0.00    +0.000 HD
ENDROOT
TORSDOF 0
ENDMDL
MODEL 8
REMARK VINA RESULT:    -2.755     19.646     20.142
REMARK INTER + INTRA:          -2.755
REMARK INTER:                  -2.755
REMARK INTRA:                   0.000
REMARK UNBOUND:                 0.000
REMARK  Name = /home/anacleto/Desktop/manuscript_Mpro/naturecomm/supplementary_file_S2/6-chemical-library/molecular_docking/3D_ligand_structure/60.pdb
REMARK  0 active torsions:
REMARK  status: ('A' for Active; 'I' for Inactive)
REMARK                            x       y       z     vdW  Elec       q    Type
REMARK                         _______ _______ _______ _____ _____    ______ ____
ROOT
ATOM      1  N1  UNL     1      22.148  17.932  12.200  0.00  0.00    +0.000 NA
ATOM      2  C1  UNL     1      22.645  16.759  12.319  0.00  0.00    +0.000 A 
ATOM      3  N2  UNL     1      22.943  16.248  13.554  0.00  0.00    +0.000 NA
ATOM      4  C2  UNL     1      23.401  15.047  13.359  0.00  0.00    +0.000 A 
ATOM      5  N3  UNL     1      23.462  14.504  12.101  0.00  0.00    +0.000 N 
ATOM      6  S1  UNL     1      23.021  15.680  10.984  0.00  0.00    +0.000 S 
ATOM      7  H1  UNL     1      22.062  18.279  13.161  0.00  0.00    +0.000 HD
ATOM      8  H3  UNL     1      24.206  13.845  11.892  0.00  0.00    +0.000 HD
ENDROOT
TORSDOF 0
ENDMDL
MODEL 9
REMARK VINA RESULT:    -2.610      2.551      3.059
REMARK INTER + INTRA:          -2.610
REMARK INTER:                  -2.610
REMARK INTRA:                   0.000
REMARK UNBOUND:                 0.000
REMARK  Name = /home/anacleto/Desktop/manuscript_Mpro/naturecomm/supplementary_file_S2/6-chemical-library/molecular_docking/3D_ligand_structure/60.pdb
REMARK  0 active torsions:
REMARK  status: ('A' for Active; 'I' for Inactive)
REMARK                            x       y       z     vdW  Elec       q    Type
REMARK                         _______ _______ _______ _____ _____    ______ ____
ROOT
ATOM      1  N1  UNL     1      17.683   9.938  -4.624  0.00  0.00    +0.000 NA
ATOM      2  C1  UNL     1      16.694  10.495  -4.035  0.00  0.00    +0.000 A 
ATOM      3  N2  UNL     1      15.674  11.056  -4.757  0.00  0.00    +0.000 NA
ATOM      4  C2  UNL     1      14.816  11.513  -3.895  0.00  0.00    +0.000 A 
ATOM      5  N3  UNL     1      14.999  11.342  -2.547  0.00  0.00    +0.000 N 
ATOM      6  S1  UNL     1      16.505  10.639  -2.293  0.00  0.00    +0.000 S 
ATOM      7  H1  UNL     1      17.478  10.032  -5.625  0.00  0.00    +0.000 HD
ATOM      8  H3  UNL     1      14.648  12.055  -1.915  0.00  0.00    +0.000 HD
ENDROOT
TORSDOF 0
ENDMDL
