MODEL 1
REMARK VINA RESULT:    -5.172      0.000      0.000
REMARK INTER + INTRA:          -6.451
REMARK INTER:                  -6.184
REMARK INTRA:                  -0.268
REMARK UNBOUND:                -0.372
REMARK  Name = /home/anacleto/Desktop/manuscript_Mpro/naturecomm/supplementary_file_S2/6-chemical-library/molecular_docking/3D_ligand_structure/721.pdb
REMARK  3 active torsions:
REMARK  status: ('A' for Active; 'I' for Inactive)
REMARK    1  A    between atoms: C4_6  and  C5_7
REMARK    2  A    between atoms: C5_7  and  C6_8
REMARK    3  A    between atoms: N3_10  and  C7_11
REMARK                            x       y       z     vdW  Elec       q    Type
REMARK                         _______ _______ _______ _____ _____    ______ ____
ROOT
ATOM      1  C6  UNL     1     -23.706   5.769 -38.577  0.00  0.00    +0.000 C 
ATOM      2  O1  UNL     1     -23.316   5.271 -37.526  0.00  0.00    +0.000 OA
ATOM      3  N3  UNL     1     -24.851   5.437 -39.279  0.00  0.00    +0.000 N 
ATOM      4  H6  UNL     1     -24.990   5.890 -40.175  0.00  0.00    +0.000 HD
ENDROOT
BRANCH   3   5
ATOM      5  C7  UNL     1     -25.831   4.486 -38.925  0.00  0.00    +0.000 A 
ATOM      6  C8  UNL     1     -25.548   3.159 -38.596  0.00  0.00    +0.000 A 
ATOM      7  C9  UNL     1     -26.580   2.279 -38.252  0.00  0.00    +0.000 A 
ATOM      8  C10 UNL     1     -27.902   2.718 -38.233  0.00  0.00    +0.000 A 
ATOM      9  C11 UNL     1     -28.194   4.040 -38.558  0.00  0.00    +0.000 A 
ATOM     10  C12 UNL     1     -27.163   4.919 -38.901  0.00  0.00    +0.000 A 
ENDBRANCH   3   5
BRANCH   1  11
ATOM     11  C5  UNL     1     -22.892   6.860 -39.256  0.00  0.00    +0.000 C 
BRANCH  11  17
ATOM     12  C1  UNL     1     -21.365   8.377 -37.931  0.00  0.00    +0.000 A 
ATOM     13  N1  UNL     1     -21.112   9.426 -37.125  0.00  0.00    +0.000 NA
ATOM     14  C2  UNL     1     -22.179  10.142 -36.742  0.00  0.00    +0.000 A 
ATOM     15  N2  UNL     1     -23.453   9.902 -37.088  0.00  0.00    +0.000 NA
ATOM     16  C3  UNL     1     -23.649   8.840 -37.891  0.00  0.00    +0.000 A 
ATOM     17  C4  UNL     1     -22.631   8.035 -38.367  0.00  0.00    +0.000 A 
ENDBRANCH  11  17
ENDBRANCH   1  11
TORSDOF 3
ENDMDL
MODEL 2
REMARK VINA RESULT:    -4.983      1.617      2.077
REMARK INTER + INTRA:          -6.229
REMARK INTER:                  -5.914
REMARK INTRA:                  -0.316
REMARK UNBOUND:                -0.372
REMARK  Name = /home/anacleto/Desktop/manuscript_Mpro/naturecomm/supplementary_file_S2/6-chemical-library/molecular_docking/3D_ligand_structure/721.pdb
REMARK  3 active torsions:
REMARK  status: ('A' for Active; 'I' for Inactive)
REMARK    1  A    between atoms: C4_6  and  C5_7
REMARK    2  A    between atoms: C5_7  and  C6_8
REMARK    3  A    between atoms: N3_10  and  C7_11
REMARK                            x       y       z     vdW  Elec       q    Type
REMARK                         _______ _______ _______ _____ _____    ______ ____
ROOT
ATOM      1  C6  UNL     1     -24.033   5.424 -38.301  0.00  0.00    +0.000 C 
ATOM      2  O1  UNL     1     -24.571   6.309 -38.958  0.00  0.00    +0.000 OA
ATOM      3  N3  UNL     1     -24.474   4.121 -38.145  0.00  0.00    +0.000 N 
ATOM      4  H6  UNL     1     -23.955   3.533 -37.504  0.00  0.00    +0.000 HD
ENDROOT
BRANCH   3   5
ATOM      5  C7  UNL     1     -25.610   3.523 -38.730  0.00  0.00    +0.000 A 
ATOM      6  C8  UNL     1     -25.678   3.114 -40.064  0.00  0.00    +0.000 A 
ATOM      7  C9  UNL     1     -26.844   2.525 -40.565  0.00  0.00    +0.000 A 
ATOM      8  C10 UNL     1     -27.949   2.338 -39.739  0.00  0.00    +0.000 A 
ATOM      9  C11 UNL     1     -27.890   2.740 -38.407  0.00  0.00    +0.000 A 
ATOM     10  C12 UNL     1     -26.726   3.328 -37.907  0.00  0.00    +0.000 A 
ENDBRANCH   3   5
BRANCH   1  11
ATOM     11  C5  UNL     1     -22.754   5.710 -37.531  0.00  0.00    +0.000 C 
BRANCH  11  17
ATOM     12  C1  UNL     1     -21.198   6.644 -39.292  0.00  0.00    +0.000 A 
ATOM     13  N1  UNL     1     -20.454   7.619 -39.848  0.00  0.00    +0.000 NA
ATOM     14  C2  UNL     1     -20.456   8.795 -39.205  0.00  0.00    +0.000 A 
ATOM     15  N2  UNL     1     -21.123   9.073 -38.075  0.00  0.00    +0.000 NA
ATOM     16  C3  UNL     1     -21.847   8.062 -37.560  0.00  0.00    +0.000 A 
ATOM     17  C4  UNL     1     -21.940   6.810 -38.137  0.00  0.00    +0.000 A 
ENDBRANCH  11  17
ENDBRANCH   1  11
TORSDOF 3
ENDMDL
MODEL 3
REMARK VINA RESULT:    -4.948      1.554      6.543
REMARK INTER + INTRA:          -6.188
REMARK INTER:                  -5.823
REMARK INTRA:                  -0.365
REMARK UNBOUND:                -0.372
REMARK  Name = /home/anacleto/Desktop/manuscript_Mpro/naturecomm/supplementary_file_S2/6-chemical-library/molecular_docking/3D_ligand_structure/721.pdb
REMARK  3 active torsions:
REMARK  status: ('A' for Active; 'I' for Inactive)
REMARK    1  A    between atoms: C4_6  and  C5_7
REMARK    2  A    between atoms: C5_7  and  C6_8
REMARK    3  A    between atoms: N3_10  and  C7_11
REMARK                            x       y       z     vdW  Elec       q    Type
REMARK                         _______ _______ _______ _____ _____    ______ ____
ROOT
ATOM      1  C6  UNL     1     -23.863   5.596 -38.621  0.00  0.00    +0.000 C 
ATOM      2  O1  UNL     1     -23.552   5.078 -37.554  0.00  0.00    +0.000 OA
ATOM      3  N3  UNL     1     -23.656   6.912 -38.997  0.00  0.00    +0.000 N 
ATOM      4  H6  UNL     1     -24.043   7.203 -39.887  0.00  0.00    +0.000 HD
ENDROOT
BRANCH   3   5
ATOM      5  C7  UNL     1     -23.018   7.927 -38.255  0.00  0.00    +0.000 A 
ATOM      6  C8  UNL     1     -21.648   7.957 -37.989  0.00  0.00    +0.000 A 
ATOM      7  C9  UNL     1     -21.093   9.005 -37.246  0.00  0.00    +0.000 A 
ATOM      8  C10 UNL     1     -21.903  10.031 -36.763  0.00  0.00    +0.000 A 
ATOM      9  C11 UNL     1     -23.270  10.011 -37.025  0.00  0.00    +0.000 A 
ATOM     10  C12 UNL     1     -23.823   8.965 -37.767  0.00  0.00    +0.000 A 
ENDBRANCH   3   5
BRANCH   1  11
ATOM     11  C5  UNL     1     -24.570   4.780 -39.692  0.00  0.00    +0.000 C 
BRANCH  11  17
ATOM     12  C1  UNL     1     -26.998   4.806 -38.989  0.00  0.00    +0.000 A 
ATOM     13  N1  UNL     1     -28.128   4.230 -38.535  0.00  0.00    +0.000 NA
ATOM     14  C2  UNL     1     -28.052   2.918 -38.273  0.00  0.00    +0.000 A 
ATOM     15  N2  UNL     1     -26.963   2.148 -38.421  0.00  0.00    +0.000 NA
ATOM     16  C3  UNL     1     -25.861   2.775 -38.873  0.00  0.00    +0.000 A 
ATOM     17  C4  UNL     1     -25.817   4.118 -39.195  0.00  0.00    +0.000 A 
ENDBRANCH  11  17
ENDBRANCH   1  11
TORSDOF 3
ENDMDL
MODEL 4
REMARK VINA RESULT:    -4.857      2.237      6.605
REMARK INTER + INTRA:          -6.082
REMARK INTER:                  -5.685
REMARK INTRA:                  -0.396
REMARK UNBOUND:                -0.372
REMARK  Name = /home/anacleto/Desktop/manuscript_Mpro/naturecomm/supplementary_file_S2/6-chemical-library/molecular_docking/3D_ligand_structure/721.pdb
REMARK  3 active torsions:
REMARK  status: ('A' for Active; 'I' for Inactive)
REMARK    1  A    between atoms: C4_6  and  C5_7
REMARK    2  A    between atoms: C5_7  and  C6_8
REMARK    3  A    between atoms: N3_10  and  C7_11
REMARK                            x       y       z     vdW  Elec       q    Type
REMARK                         _______ _______ _______ _____ _____    ______ ____
ROOT
ATOM      1  C6  UNL     1     -24.807   4.473 -39.029  0.00  0.00    +0.000 C 
ATOM      2  O1  UNL     1     -24.651   4.711 -40.222  0.00  0.00    +0.000 OA
ATOM      3  N3  UNL     1     -24.190   5.112 -37.967  0.00  0.00    +0.000 N 
ATOM      4  H6  UNL     1     -24.368   4.743 -37.041  0.00  0.00    +0.000 HD
ENDROOT
BRANCH   3   5
ATOM      5  C7  UNL     1     -23.281   6.190 -38.024  0.00  0.00    +0.000 A 
ATOM      6  C8  UNL     1     -21.894   6.047 -37.956  0.00  0.00    +0.000 A 
ATOM      7  C9  UNL     1     -21.062   7.170 -38.023  0.00  0.00    +0.000 A 
ATOM      8  C10 UNL     1     -21.609   8.444 -38.160  0.00  0.00    +0.000 A 
ATOM      9  C11 UNL     1     -22.991   8.596 -38.230  0.00  0.00    +0.000 A 
ATOM     10  C12 UNL     1     -23.822   7.475 -38.164  0.00  0.00    +0.000 A 
ENDBRANCH   3   5
BRANCH   1  11
ATOM     11  C5  UNL     1     -25.744   3.362 -38.584  0.00  0.00    +0.000 C 
BRANCH  11  17
ATOM     12  C1  UNL     1     -27.786   2.709 -39.924  0.00  0.00    +0.000 A 
ATOM     13  N1  UNL     1     -29.050   2.881 -40.356  0.00  0.00    +0.000 NA
ATOM     14  C2  UNL     1     -29.688   3.963 -39.885  0.00  0.00    +0.000 A 
ATOM     15  N2  UNL     1     -29.177   4.870 -39.039  0.00  0.00    +0.000 NA
ATOM     16  C3  UNL     1     -27.910   4.653 -38.644  0.00  0.00    +0.000 A 
ATOM     17  C4  UNL     1     -27.154   3.567 -39.044  0.00  0.00    +0.000 A 
ENDBRANCH  11  17
ENDBRANCH   1  11
TORSDOF 3
ENDMDL
MODEL 5
REMARK VINA RESULT:    -4.587     25.729     26.981
REMARK INTER + INTRA:          -5.764
REMARK INTER:                  -5.378
REMARK INTRA:                  -0.386
REMARK UNBOUND:                -0.372
REMARK  Name = /home/anacleto/Desktop/manuscript_Mpro/naturecomm/supplementary_file_S2/6-chemical-library/molecular_docking/3D_ligand_structure/721.pdb
REMARK  3 active torsions:
REMARK  status: ('A' for Active; 'I' for Inactive)
REMARK    1  A    between atoms: C4_6  and  C5_7
REMARK    2  A    between atoms: C5_7  and  C6_8
REMARK    3  A    between atoms: N3_10  and  C7_11
REMARK                            x       y       z     vdW  Elec       q    Type
REMARK                         _______ _______ _______ _____ _____    ______ ____
ROOT
ATOM      1  C6  UNL     1     -38.259   3.656 -14.542  0.00  0.00    +0.000 C 
ATOM      2  O1  UNL     1     -37.312   3.467 -13.786  0.00  0.00    +0.000 OA
ATOM      3  N3  UNL     1     -38.572   2.930 -15.679  0.00  0.00    +0.000 N 
ATOM      4  H6  UNL     1     -39.347   3.264 -16.240  0.00  0.00    +0.000 HD
ENDROOT
BRANCH   3   5
ATOM      5  C7  UNL     1     -37.896   1.803 -16.192  0.00  0.00    +0.000 A 
ATOM      6  C8  UNL     1     -38.020   0.513 -15.672  0.00  0.00    +0.000 A 
ATOM      7  C9  UNL     1     -37.316  -0.551 -16.243  0.00  0.00    +0.000 A 
ATOM      8  C10 UNL     1     -36.482  -0.337 -17.339  0.00  0.00    +0.000 A 
ATOM      9  C11 UNL     1     -36.353   0.945 -17.866  0.00  0.00    +0.000 A 
ATOM     10  C12 UNL     1     -37.057   2.009 -17.295  0.00  0.00    +0.000 A 
ENDBRANCH   3   5
BRANCH   1  11
ATOM     11  C5  UNL     1     -39.229   4.799 -14.286  0.00  0.00    +0.000 C 
BRANCH  11  17
ATOM     12  C1  UNL     1     -38.526   6.652 -12.717  0.00  0.00    +0.000 A 
ATOM     13  N1  UNL     1     -37.919   7.818 -12.425  0.00  0.00    +0.000 NA
ATOM     14  C2  UNL     1     -37.318   8.439 -13.450  0.00  0.00    +0.000 A 
ATOM     15  N2  UNL     1     -37.275   8.002 -14.718  0.00  0.00    +0.000 NA
ATOM     16  C3  UNL     1     -37.901   6.835 -14.955  0.00  0.00    +0.000 A 
ATOM     17  C4  UNL     1     -38.540   6.093 -13.981  0.00  0.00    +0.000 A 
ENDBRANCH  11  17
ENDBRANCH   1  11
TORSDOF 3
ENDMDL
MODEL 6
REMARK VINA RESULT:    -4.419     25.983     27.550
REMARK INTER + INTRA:          -5.566
REMARK INTER:                  -5.212
REMARK INTRA:                  -0.355
REMARK UNBOUND:                -0.372
REMARK  Name = /home/anacleto/Desktop/manuscript_Mpro/naturecomm/supplementary_file_S2/6-chemical-library/molecular_docking/3D_ligand_structure/721.pdb
REMARK  3 active torsions:
REMARK  status: ('A' for Active; 'I' for Inactive)
REMARK    1  A    between atoms: C4_6  and  C5_7
REMARK    2  A    between atoms: C5_7  and  C6_8
REMARK    3  A    between atoms: N3_10  and  C7_11
REMARK                            x       y       z     vdW  Elec       q    Type
REMARK                         _______ _______ _______ _____ _____    ______ ____
ROOT
ATOM      1  C6  UNL     1     -38.230   3.646 -14.356  0.00  0.00    +0.000 C 
ATOM      2  O1  UNL     1     -37.280   3.440 -13.609  0.00  0.00    +0.000 OA
ATOM      3  N3  UNL     1     -38.785   4.874 -14.676  0.00  0.00    +0.000 N 
ATOM      4  H6  UNL     1     -39.619   4.867 -15.249  0.00  0.00    +0.000 HD
ENDROOT
BRANCH   3   5
ATOM      5  C7  UNL     1     -38.360   6.147 -14.242  0.00  0.00    +0.000 A 
ATOM      6  C8  UNL     1     -37.656   7.050 -15.041  0.00  0.00    +0.000 A 
ATOM      7  C9  UNL     1     -37.275   8.297 -14.534  0.00  0.00    +0.000 A 
ATOM      8  C10 UNL     1     -37.593   8.652 -13.225  0.00  0.00    +0.000 A 
ATOM      9  C11 UNL     1     -38.296   7.759 -12.421  0.00  0.00    +0.000 A 
ATOM     10  C12 UNL     1     -38.678   6.514 -12.928  0.00  0.00    +0.000 A 
ENDBRANCH   3   5
BRANCH   1  11
ATOM     11  C5  UNL     1     -38.943   2.484 -15.028  0.00  0.00    +0.000 C 
BRANCH  11  17
ATOM     12  C1  UNL     1     -37.292   2.222 -16.925  0.00  0.00    +0.000 A 
ATOM     13  N1  UNL     1     -36.481   1.506 -17.727  0.00  0.00    +0.000 NA
ATOM     14  C2  UNL     1     -36.436   0.188 -17.487  0.00  0.00    +0.000 A 
ATOM     15  N2  UNL     1     -37.122  -0.463 -16.535  0.00  0.00    +0.000 NA
ATOM     16  C3  UNL     1     -37.921   0.300 -15.767  0.00  0.00    +0.000 A 
ATOM     17  C4  UNL     1     -38.040   1.670 -15.903  0.00  0.00    +0.000 A 
ENDBRANCH  11  17
ENDBRANCH   1  11
TORSDOF 3
ENDMDL
MODEL 7
REMARK VINA RESULT:    -4.311     16.901     18.577
REMARK INTER + INTRA:          -5.440
REMARK INTER:                  -5.121
REMARK INTRA:                  -0.319
REMARK UNBOUND:                -0.372
REMARK  Name = /home/anacleto/Desktop/manuscript_Mpro/naturecomm/supplementary_file_S2/6-chemical-library/molecular_docking/3D_ligand_structure/721.pdb
REMARK  3 active torsions:
REMARK  status: ('A' for Active; 'I' for Inactive)
REMARK    1  A    between atoms: C4_6  and  C5_7
REMARK    2  A    between atoms: C5_7  and  C6_8
REMARK    3  A    between atoms: N3_10  and  C7_11
REMARK                            x       y       z     vdW  Elec       q    Type
REMARK                         _______ _______ _______ _____ _____    ______ ____
ROOT
ATOM      1  C6  UNL     1     -24.402  -4.370 -24.123  0.00  0.00    +0.000 C 
ATOM      2  O1  UNL     1     -24.493  -3.155 -23.984  0.00  0.00    +0.000 OA
ATOM      3  N3  UNL     1     -24.994  -5.141 -25.108  0.00  0.00    +0.000 N 
ATOM      4  H6  UNL     1     -24.884  -6.145 -25.036  0.00  0.00    +0.000 HD
ENDROOT
BRANCH   3   5
ATOM      5  C7  UNL     1     -25.797  -4.696 -26.180  0.00  0.00    +0.000 A 
ATOM      6  C8  UNL     1     -25.315  -3.960 -27.264  0.00  0.00    +0.000 A 
ATOM      7  C9  UNL     1     -26.180  -3.561 -28.289  0.00  0.00    +0.000 A 
ATOM      8  C10 UNL     1     -27.531  -3.894 -28.239  0.00  0.00    +0.000 A 
ATOM      9  C11 UNL     1     -28.021  -4.628 -27.163  0.00  0.00    +0.000 A 
ATOM     10  C12 UNL     1     -27.158  -5.028 -26.140  0.00  0.00    +0.000 A 
ENDBRANCH   3   5
BRANCH   1  11
ATOM     11  C5  UNL     1     -23.587  -5.195 -23.139  0.00  0.00    +0.000 C 
BRANCH  11  17
ATOM     12  C1  UNL     1     -25.618  -5.492 -21.663  0.00  0.00    +0.000 A 
ATOM     13  N1  UNL     1     -26.235  -5.617 -20.472  0.00  0.00    +0.000 NA
ATOM     14  C2  UNL     1     -25.440  -5.575 -19.394  0.00  0.00    +0.000 A 
ATOM     15  N2  UNL     1     -24.107  -5.420 -19.404  0.00  0.00    +0.000 NA
ATOM     16  C3  UNL     1     -23.543  -5.296 -20.620  0.00  0.00    +0.000 A 
ATOM     17  C4  UNL     1     -24.252  -5.340 -21.805  0.00  0.00    +0.000 A 
ENDBRANCH  11  17
ENDBRANCH   1  11
TORSDOF 3
ENDMDL
MODEL 8
REMARK VINA RESULT:    -4.311     14.325     16.591
REMARK INTER + INTRA:          -5.439
REMARK INTER:                  -5.067
REMARK INTRA:                  -0.372
REMARK UNBOUND:                -0.372
REMARK  Name = /home/anacleto/Desktop/manuscript_Mpro/naturecomm/supplementary_file_S2/6-chemical-library/molecular_docking/3D_ligand_structure/721.pdb
REMARK  3 active torsions:
REMARK  status: ('A' for Active; 'I' for Inactive)
REMARK    1  A    between atoms: C4_6  and  C5_7
REMARK    2  A    between atoms: C5_7  and  C6_8
REMARK    3  A    between atoms: N3_10  and  C7_11
REMARK                            x       y       z     vdW  Elec       q    Type
REMARK                         _______ _______ _______ _____ _____    ______ ____
ROOT
ATOM      1  C6  UNL     1     -23.382  -3.719 -28.011  0.00  0.00    +0.000 C 
ATOM      2  O1  UNL     1     -22.253  -3.242 -28.057  0.00  0.00    +0.000 OA
ATOM      3  N3  UNL     1     -24.095  -4.058 -26.874  0.00  0.00    +0.000 N 
ATOM      4  H6  UNL     1     -24.989  -4.515 -27.010  0.00  0.00    +0.000 HD
ENDROOT
BRANCH   3   5
ATOM      5  C7  UNL     1     -23.696  -3.898 -25.531  0.00  0.00    +0.000 A 
ATOM      6  C8  UNL     1     -24.235  -2.946 -24.663  0.00  0.00    +0.000 A 
ATOM      7  C9  UNL     1     -23.784  -2.856 -23.342  0.00  0.00    +0.000 A 
ATOM      8  C10 UNL     1     -22.792  -3.717 -22.876  0.00  0.00    +0.000 A 
ATOM      9  C11 UNL     1     -22.250  -4.670 -23.733  0.00  0.00    +0.000 A 
ATOM     10  C12 UNL     1     -22.700  -4.760 -25.052  0.00  0.00    +0.000 A 
ENDBRANCH   3   5
BRANCH   1  11
ATOM     11  C5  UNL     1     -24.141  -4.018 -29.294  0.00  0.00    +0.000 C 
BRANCH  11  17
ATOM     12  C1  UNL     1     -24.981  -6.382 -29.606  0.00  0.00    +0.000 A 
ATOM     13  N1  UNL     1     -24.856  -7.663 -30.002  0.00  0.00    +0.000 NA
ATOM     14  C2  UNL     1     -23.680  -7.994 -30.553  0.00  0.00    +0.000 A 
ATOM     15  N2  UNL     1     -22.637  -7.169 -30.736  0.00  0.00    +0.000 NA
ATOM     16  C3  UNL     1     -22.814  -5.903 -30.317  0.00  0.00    +0.000 A 
ATOM     17  C4  UNL     1     -23.985  -5.436 -29.750  0.00  0.00    +0.000 A 
ENDBRANCH  11  17
ENDBRANCH   1  11
TORSDOF 3
ENDMDL
MODEL 9
REMARK VINA RESULT:    -4.255     16.493     18.417
REMARK INTER + INTRA:          -5.374
REMARK INTER:                  -4.990
REMARK INTRA:                  -0.384
REMARK UNBOUND:                -0.372
REMARK  Name = /home/anacleto/Desktop/manuscript_Mpro/naturecomm/supplementary_file_S2/6-chemical-library/molecular_docking/3D_ligand_structure/721.pdb
REMARK  3 active torsions:
REMARK  status: ('A' for Active; 'I' for Inactive)
REMARK    1  A    between atoms: C4_6  and  C5_7
REMARK    2  A    between atoms: C5_7  and  C6_8
REMARK    3  A    between atoms: N3_10  and  C7_11
REMARK                            x       y       z     vdW  Elec       q    Type
REMARK                         _______ _______ _______ _____ _____    ______ ____
ROOT
ATOM      1  C6  UNL     1     -24.305  -4.451 -24.614  0.00  0.00    +0.000 C 
ATOM      2  O1  UNL     1     -24.213  -3.275 -24.279  0.00  0.00    +0.000 OA
ATOM      3  N3  UNL     1     -24.427  -5.546 -23.776  0.00  0.00    +0.000 N 
ATOM      4  H6  UNL     1     -24.414  -6.462 -24.210  0.00  0.00    +0.000 HD
ENDROOT
BRANCH   3   5
ATOM      5  C7  UNL     1     -24.504  -5.546 -22.368  0.00  0.00    +0.000 A 
ATOM      6  C8  UNL     1     -23.392  -5.485 -21.525  0.00  0.00    +0.000 A 
ATOM      7  C9  UNL     1     -23.556  -5.485 -20.135  0.00  0.00    +0.000 A 
ATOM      8  C10 UNL     1     -24.831  -5.547 -19.577  0.00  0.00    +0.000 A 
ATOM      9  C11 UNL     1     -25.945  -5.607 -20.410  0.00  0.00    +0.000 A 
ATOM     10  C12 UNL     1     -25.782  -5.605 -21.797  0.00  0.00    +0.000 A 
ENDBRANCH   3   5
BRANCH   1  11
ATOM     11  C5  UNL     1     -24.274  -4.834 -26.085  0.00  0.00    +0.000 C 
BRANCH  11  17
ATOM     12  C1  UNL     1     -26.775  -4.952 -26.431  0.00  0.00    +0.000 A 
ATOM     13  N1  UNL     1     -27.919  -4.649 -27.075  0.00  0.00    +0.000 NA
ATOM     14  C2  UNL     1     -27.795  -3.847 -28.142  0.00  0.00    +0.000 A 
ATOM     15  N2  UNL     1     -26.648  -3.335 -28.612  0.00  0.00    +0.000 NA
ATOM     16  C3  UNL     1     -25.536  -3.674 -27.934  0.00  0.00    +0.000 A 
ATOM     17  C4  UNL     1     -25.534  -4.478 -26.810  0.00  0.00    +0.000 A 
ENDBRANCH  11  17
ENDBRANCH   1  11
TORSDOF 3
ENDMDL
