MODEL 1
REMARK VINA RESULT:    -4.354      0.000      0.000
REMARK INTER + INTRA:          -7.740
REMARK INTER:                  -5.644
REMARK INTRA:                  -2.095
REMARK UNBOUND:                -2.113
REMARK  Name = /home/anacleto/Desktop/manuscript_Mpro/naturecomm/supplementary_file_S2/6-chemical-library/molecular_docking/3D_ligand_structure/527.pdb
REMARK  5 active torsions:
REMARK  status: ('A' for Active; 'I' for Inactive)
REMARK    1  A    between atoms: C6_6  and  S1_7
REMARK    2  A    between atoms: S1_7  and  C7_8
REMARK    3  A    between atoms: C8_9  and  C9_10
REMARK    4  A    between atoms: C10_11  and  S2_12
REMARK    5  A    between atoms: S2_12  and  C11_13
REMARK                            x       y       z     vdW  Elec       q    Type
REMARK                         _______ _______ _______ _____ _____    ______ ____
ROOT
ATOM      1  C7  UNL     1      22.356   3.304   9.168  0.00  0.00    +0.000 C 
ATOM      2  C8  UNL     1      22.059   2.439  10.152  0.00  0.00    +0.000 C 
ENDROOT
BRANCH   2   3
ATOM      3  C9  UNL     1      22.141   2.667  11.582  0.00  0.00    +0.000 C 
ATOM      4  C10 UNL     1      21.160   3.078  12.402  0.00  0.00    +0.000 C 
BRANCH   4   5
ATOM      5  S2  UNL     1      19.536   3.437  11.917  0.00  0.00    +0.000 S 
BRANCH   5   6
ATOM      6  C11 UNL     1      19.517   5.187  12.253  0.00  0.00    +0.000 A 
ATOM      7  C12 UNL     1      18.354   5.933  12.038  0.00  0.00    +0.000 A 
ATOM      8  C13 UNL     1      18.337   7.303  12.305  0.00  0.00    +0.000 A 
ATOM      9  C14 UNL     1      19.482   7.932  12.791  0.00  0.00    +0.000 A 
ATOM     10  C15 UNL     1      20.643   7.194  13.014  0.00  0.00    +0.000 A 
ATOM     11  C16 UNL     1      20.660   5.823  12.748  0.00  0.00    +0.000 A 
ENDBRANCH   5   6
ENDBRANCH   4   5
ENDBRANCH   2   3
BRANCH   1  12
ATOM     12  S1  UNL     1      22.918   4.927   9.399  0.00  0.00    +0.000 S 
BRANCH  12  18
ATOM     13  C1  UNL     1      21.325   7.184   9.290  0.00  0.00    +0.000 A 
ATOM     14  C2  UNL     1      20.136   7.872   9.035  0.00  0.00    +0.000 A 
ATOM     15  C3  UNL     1      19.021   7.183   8.561  0.00  0.00    +0.000 A 
ATOM     16  C4  UNL     1      19.092   5.808   8.339  0.00  0.00    +0.000 A 
ATOM     17  C5  UNL     1      20.280   5.120   8.594  0.00  0.00    +0.000 A 
ATOM     18  C6  UNL     1      21.400   5.804   9.077  0.00  0.00    +0.000 A 
ENDBRANCH  12  18
ENDBRANCH   1  12
TORSDOF 5
ENDMDL
MODEL 2
REMARK VINA RESULT:    -4.265      1.942      2.908
REMARK INTER + INTRA:          -7.625
REMARK INTER:                  -5.611
REMARK INTRA:                  -2.014
REMARK UNBOUND:                -2.113
REMARK  Name = /home/anacleto/Desktop/manuscript_Mpro/naturecomm/supplementary_file_S2/6-chemical-library/molecular_docking/3D_ligand_structure/527.pdb
REMARK  5 active torsions:
REMARK  status: ('A' for Active; 'I' for Inactive)
REMARK    1  A    between atoms: C6_6  and  S1_7
REMARK    2  A    between atoms: S1_7  and  C7_8
REMARK    3  A    between atoms: C8_9  and  C9_10
REMARK    4  A    between atoms: C10_11  and  S2_12
REMARK    5  A    between atoms: S2_12  and  C11_13
REMARK                            x       y       z     vdW  Elec       q    Type
REMARK                         _______ _______ _______ _____ _____    ______ ____
ROOT
ATOM      1  C7  UNL     1      17.659   3.363   9.590  0.00  0.00    +0.000 C 
ATOM      2  C8  UNL     1      16.801   3.084  10.586  0.00  0.00    +0.000 C 
ENDROOT
BRANCH   2   3
ATOM      3  C9  UNL     1      17.123   2.642  11.930  0.00  0.00    +0.000 C 
ATOM      4  C10 UNL     1      17.006   3.343  13.070  0.00  0.00    +0.000 C 
BRANCH   4   5
ATOM      5  S2  UNL     1      16.433   4.973  13.188  0.00  0.00    +0.000 S 
BRANCH   5   6
ATOM      6  C11 UNL     1      17.978   5.836  12.980  0.00  0.00    +0.000 A 
ATOM      7  C12 UNL     1      17.987   7.183  12.605  0.00  0.00    +0.000 A 
ATOM      8  C13 UNL     1      19.198   7.861  12.446  0.00  0.00    +0.000 A 
ATOM      9  C14 UNL     1      20.403   7.195  12.665  0.00  0.00    +0.000 A 
ATOM     10  C15 UNL     1      20.401   5.854  13.046  0.00  0.00    +0.000 A 
ATOM     11  C16 UNL     1      19.190   5.176  13.206  0.00  0.00    +0.000 A 
ENDBRANCH   5   6
ENDBRANCH   4   5
ENDBRANCH   2   3
BRANCH   1  12
ATOM     12  S1  UNL     1      19.385   3.253   9.697  0.00  0.00    +0.000 S 
BRANCH  12  18
ATOM     13  C1  UNL     1      21.130   5.384   9.461  0.00  0.00    +0.000 A 
ATOM     14  C2  UNL     1      21.456   6.719   9.211  0.00  0.00    +0.000 A 
ATOM     15  C3  UNL     1      20.455   7.630   8.878  0.00  0.00    +0.000 A 
ATOM     16  C4  UNL     1      19.128   7.209   8.790  0.00  0.00    +0.000 A 
ATOM     17  C5  UNL     1      18.802   5.874   9.040  0.00  0.00    +0.000 A 
ATOM     18  C6  UNL     1      19.801   4.957   9.382  0.00  0.00    +0.000 A 
ENDBRANCH  12  18
ENDBRANCH   1  12
TORSDOF 5
ENDMDL
MODEL 3
REMARK VINA RESULT:    -4.262      1.955      4.802
REMARK INTER + INTRA:          -7.621
REMARK INTER:                  -5.579
REMARK INTRA:                  -2.042
REMARK UNBOUND:                -2.113
REMARK  Name = /home/anacleto/Desktop/manuscript_Mpro/naturecomm/supplementary_file_S2/6-chemical-library/molecular_docking/3D_ligand_structure/527.pdb
REMARK  5 active torsions:
REMARK  status: ('A' for Active; 'I' for Inactive)
REMARK    1  A    between atoms: C6_6  and  S1_7
REMARK    2  A    between atoms: S1_7  and  C7_8
REMARK    3  A    between atoms: C8_9  and  C9_10
REMARK    4  A    between atoms: C10_11  and  S2_12
REMARK    5  A    between atoms: S2_12  and  C11_13
REMARK                            x       y       z     vdW  Elec       q    Type
REMARK                         _______ _______ _______ _____ _____    ______ ____
ROOT
ATOM      1  C7  UNL     1      16.956   3.297  13.013  0.00  0.00    +0.000 C 
ATOM      2  C8  UNL     1      17.099   2.595  11.877  0.00  0.00    +0.000 C 
ENDROOT
BRANCH   2   3
ATOM      3  C9  UNL     1      16.816   3.037  10.525  0.00  0.00    +0.000 C 
ATOM      4  C10 UNL     1      17.701   3.332   9.559  0.00  0.00    +0.000 C 
BRANCH   4   5
ATOM      5  S2  UNL     1      19.424   3.250   9.723  0.00  0.00    +0.000 S 
BRANCH   5   6
ATOM      6  C11 UNL     1      19.825   4.956   9.396  0.00  0.00    +0.000 A 
ATOM      7  C12 UNL     1      21.154   5.388   9.441  0.00  0.00    +0.000 A 
ATOM      8  C13 UNL     1      21.469   6.723   9.182  0.00  0.00    +0.000 A 
ATOM      9  C14 UNL     1      20.456   7.630   8.872  0.00  0.00    +0.000 A 
ATOM     10  C15 UNL     1      19.130   7.204   8.819  0.00  0.00    +0.000 A 
ATOM     11  C16 UNL     1      18.815   5.869   9.078  0.00  0.00    +0.000 A 
ENDBRANCH   5   6
ENDBRANCH   4   5
ENDBRANCH   2   3
BRANCH   1  12
ATOM     12  S1  UNL     1      16.385   4.931  13.114  0.00  0.00    +0.000 S 
BRANCH  12  18
ATOM     13  C1  UNL     1      19.144   5.109  13.155  0.00  0.00    +0.000 A 
ATOM     14  C2  UNL     1      20.362   5.780  13.020  0.00  0.00    +0.000 A 
ATOM     15  C3  UNL     1      20.379   7.129  12.670  0.00  0.00    +0.000 A 
ATOM     16  C4  UNL     1      19.181   7.809  12.450  0.00  0.00    +0.000 A 
ATOM     17  C5  UNL     1      17.964   7.139  12.586  0.00  0.00    +0.000 A 
ATOM     18  C6  UNL     1      17.939   5.788  12.945  0.00  0.00    +0.000 A 
ENDBRANCH  12  18
ENDBRANCH   1  12
TORSDOF 5
ENDMDL
MODEL 4
REMARK VINA RESULT:    -4.210     13.977     16.537
REMARK INTER + INTRA:          -7.554
REMARK INTER:                  -7.034
REMARK INTRA:                  -0.521
REMARK UNBOUND:                -2.113
REMARK  Name = /home/anacleto/Desktop/manuscript_Mpro/naturecomm/supplementary_file_S2/6-chemical-library/molecular_docking/3D_ligand_structure/527.pdb
REMARK  5 active torsions:
REMARK  status: ('A' for Active; 'I' for Inactive)
REMARK    1  A    between atoms: C6_6  and  S1_7
REMARK    2  A    between atoms: S1_7  and  C7_8
REMARK    3  A    between atoms: C8_9  and  C9_10
REMARK    4  A    between atoms: C10_11  and  S2_12
REMARK    5  A    between atoms: S2_12  and  C11_13
REMARK                            x       y       z     vdW  Elec       q    Type
REMARK                         _______ _______ _______ _____ _____    ______ ____
ROOT
ATOM      1  C7  UNL     1      17.032  12.119  -0.865  0.00  0.00    +0.000 C 
ATOM      2  C8  UNL     1      16.424  11.154  -1.573  0.00  0.00    +0.000 C 
ENDROOT
BRANCH   2   3
ATOM      3  C9  UNL     1      17.037  10.209  -2.486  0.00  0.00    +0.000 C 
ATOM      4  C10 UNL     1      17.352  10.406  -3.777  0.00  0.00    +0.000 C 
BRANCH   4   5
ATOM      5  S2  UNL     1      17.086  11.874  -4.658  0.00  0.00    +0.000 S 
BRANCH   5   6
ATOM      6  C11 UNL     1      15.544  11.458  -5.448  0.00  0.00    +0.000 A 
ATOM      7  C12 UNL     1      15.427  11.519  -6.841  0.00  0.00    +0.000 A 
ATOM      8  C13 UNL     1      14.220  11.189  -7.461  0.00  0.00    +0.000 A 
ATOM      9  C14 UNL     1      13.127  10.794  -6.691  0.00  0.00    +0.000 A 
ATOM     10  C15 UNL     1      13.238  10.724  -5.304  0.00  0.00    +0.000 A 
ATOM     11  C16 UNL     1      14.445  11.053  -4.683  0.00  0.00    +0.000 A 
ENDBRANCH   5   6
ENDBRANCH   4   5
ENDBRANCH   2   3
BRANCH   1  12
ATOM     12  S1  UNL     1      18.732  12.456  -0.889  0.00  0.00    +0.000 S 
BRANCH  12  18
ATOM     13  C1  UNL     1      17.510  14.814  -0.120  0.00  0.00    +0.000 A 
ATOM     14  C2  UNL     1      17.491  16.098   0.431  0.00  0.00    +0.000 A 
ATOM     15  C3  UNL     1      18.668  16.665   0.918  0.00  0.00    +0.000 A 
ATOM     16  C4  UNL     1      19.864  15.950   0.858  0.00  0.00    +0.000 A 
ATOM     17  C5  UNL     1      19.884  14.667   0.307  0.00  0.00    +0.000 A 
ATOM     18  C6  UNL     1      18.708  14.096  -0.190  0.00  0.00    +0.000 A 
ENDBRANCH  12  18
ENDBRANCH   1  12
TORSDOF 5
ENDMDL
MODEL 5
REMARK VINA RESULT:    -4.180      1.352      3.653
REMARK INTER + INTRA:          -7.516
REMARK INTER:                  -5.470
REMARK INTRA:                  -2.046
REMARK UNBOUND:                -2.113
REMARK  Name = /home/anacleto/Desktop/manuscript_Mpro/naturecomm/supplementary_file_S2/6-chemical-library/molecular_docking/3D_ligand_structure/527.pdb
REMARK  5 active torsions:
REMARK  status: ('A' for Active; 'I' for Inactive)
REMARK    1  A    between atoms: C6_6  and  S1_7
REMARK    2  A    between atoms: S1_7  and  C7_8
REMARK    3  A    between atoms: C8_9  and  C9_10
REMARK    4  A    between atoms: C10_11  and  S2_12
REMARK    5  A    between atoms: S2_12  and  C11_13
REMARK                            x       y       z     vdW  Elec       q    Type
REMARK                         _______ _______ _______ _____ _____    ______ ____
ROOT
ATOM      1  C7  UNL     1      22.572   4.045  12.894  0.00  0.00    +0.000 C 
ATOM      2  C8  UNL     1      23.076   3.409  11.823  0.00  0.00    +0.000 C 
ENDROOT
BRANCH   2   3
ATOM      3  C9  UNL     1      23.778   3.996  10.698  0.00  0.00    +0.000 C 
ATOM      4  C10 UNL     1      23.318   4.165   9.447  0.00  0.00    +0.000 C 
BRANCH   4   5
ATOM      5  S2  UNL     1      21.744   3.704   8.889  0.00  0.00    +0.000 S 
BRANCH   5   6
ATOM      6  C11 UNL     1      20.972   5.310   8.850  0.00  0.00    +0.000 A 
ATOM      7  C12 UNL     1      19.633   5.439   8.469  0.00  0.00    +0.000 A 
ATOM      8  C13 UNL     1      19.027   6.697   8.442  0.00  0.00    +0.000 A 
ATOM      9  C14 UNL     1      19.757   7.830   8.799  0.00  0.00    +0.000 A 
ATOM     10  C15 UNL     1      21.090   7.707   9.187  0.00  0.00    +0.000 A 
ATOM     11  C16 UNL     1      21.697   6.450   9.215  0.00  0.00    +0.000 A 
ENDBRANCH   5   6
ENDBRANCH   4   5
ENDBRANCH   2   3
BRANCH   1  12
ATOM     12  S1  UNL     1      22.650   5.754  13.170  0.00  0.00    +0.000 S 
BRANCH  12  18
ATOM     13  C1  UNL     1      20.530   7.509  12.898  0.00  0.00    +0.000 A 
ATOM     14  C2  UNL     1      19.210   7.846  12.591  0.00  0.00    +0.000 A 
ATOM     15  C3  UNL     1      18.322   6.862  12.162  0.00  0.00    +0.000 A 
ATOM     16  C4  UNL     1      18.750   5.540  12.036  0.00  0.00    +0.000 A 
ATOM     17  C5  UNL     1      20.070   5.203  12.344  0.00  0.00    +0.000 A 
ATOM     18  C6  UNL     1      20.964   6.184  12.782  0.00  0.00    +0.000 A 
ENDBRANCH  12  18
ENDBRANCH   1  12
TORSDOF 5
ENDMDL
MODEL 6
REMARK VINA RESULT:    -4.169      1.816      2.768
REMARK INTER + INTRA:          -7.501
REMARK INTER:                  -6.258
REMARK INTRA:                  -1.242
REMARK UNBOUND:                -2.113
REMARK  Name = /home/anacleto/Desktop/manuscript_Mpro/naturecomm/supplementary_file_S2/6-chemical-library/molecular_docking/3D_ligand_structure/527.pdb
REMARK  5 active torsions:
REMARK  status: ('A' for Active; 'I' for Inactive)
REMARK    1  A    between atoms: C6_6  and  S1_7
REMARK    2  A    between atoms: S1_7  and  C7_8
REMARK    3  A    between atoms: C8_9  and  C9_10
REMARK    4  A    between atoms: C10_11  and  S2_12
REMARK    5  A    between atoms: S2_12  and  C11_13
REMARK                            x       y       z     vdW  Elec       q    Type
REMARK                         _______ _______ _______ _____ _____    ______ ____
ROOT
ATOM      1  C7  UNL     1      22.896   4.537  10.978  0.00  0.00    +0.000 C 
ATOM      2  C8  UNL     1      22.896   5.171  12.162  0.00  0.00    +0.000 C 
ENDROOT
BRANCH   2   3
ATOM      3  C9  UNL     1      23.113   6.584  12.407  0.00  0.00    +0.000 C 
ATOM      4  C10 UNL     1      22.670   7.311  13.446  0.00  0.00    +0.000 C 
BRANCH   4   5
ATOM      5  S2  UNL     1      21.715   6.703  14.757  0.00  0.00    +0.000 S 
BRANCH   5   6
ATOM      6  C11 UNL     1      20.090   7.061  14.118  0.00  0.00    +0.000 A 
ATOM      7  C12 UNL     1      19.736   6.657  12.827  0.00  0.00    +0.000 A 
ATOM      8  C13 UNL     1      18.463   6.935  12.327  0.00  0.00    +0.000 A 
ATOM      9  C14 UNL     1      17.537   7.614  13.117  0.00  0.00    +0.000 A 
ATOM     10  C15 UNL     1      17.880   8.014  14.408  0.00  0.00    +0.000 A 
ATOM     11  C16 UNL     1      19.154   7.736  14.909  0.00  0.00    +0.000 A 
ENDBRANCH   5   6
ENDBRANCH   4   5
ENDBRANCH   2   3
BRANCH   1  12
ATOM     12  S1  UNL     1      23.165   5.291   9.441  0.00  0.00    +0.000 S 
BRANCH  12  18
ATOM     13  C1  UNL     1      20.470   5.052   8.870  0.00  0.00    +0.000 A 
ATOM     14  C2  UNL     1      19.186   5.551   8.641  0.00  0.00    +0.000 A 
ATOM     15  C3  UNL     1      18.952   6.924   8.689  0.00  0.00    +0.000 A 
ATOM     16  C4  UNL     1      20.000   7.801   8.970  0.00  0.00    +0.000 A 
ATOM     17  C5  UNL     1      21.284   7.303   9.199  0.00  0.00    +0.000 A 
ATOM     18  C6  UNL     1      21.526   5.927   9.144  0.00  0.00    +0.000 A 
ENDBRANCH  12  18
ENDBRANCH   1  12
TORSDOF 5
ENDMDL
MODEL 7
REMARK VINA RESULT:    -4.165      3.661      5.677
REMARK INTER + INTRA:          -7.496
REMARK INTER:                  -6.494
REMARK INTRA:                  -1.002
REMARK UNBOUND:                -2.113
REMARK  Name = /home/anacleto/Desktop/manuscript_Mpro/naturecomm/supplementary_file_S2/6-chemical-library/molecular_docking/3D_ligand_structure/527.pdb
REMARK  5 active torsions:
REMARK  status: ('A' for Active; 'I' for Inactive)
REMARK    1  A    between atoms: C6_6  and  S1_7
REMARK    2  A    between atoms: S1_7  and  C7_8
REMARK    3  A    between atoms: C8_9  and  C9_10
REMARK    4  A    between atoms: C10_11  and  S2_12
REMARK    5  A    between atoms: S2_12  and  C11_13
REMARK                            x       y       z     vdW  Elec       q    Type
REMARK                         _______ _______ _______ _____ _____    ______ ____
ROOT
ATOM      1  C7  UNL     1      16.310   2.952  12.404  0.00  0.00    +0.000 C 
ATOM      2  C8  UNL     1      17.109   3.867  12.976  0.00  0.00    +0.000 C 
ENDROOT
BRANCH   2   3
ATOM      3  C9  UNL     1      16.861   5.289  13.119  0.00  0.00    +0.000 C 
ATOM      4  C10 UNL     1      17.751   6.289  13.011  0.00  0.00    +0.000 C 
BRANCH   4   5
ATOM      5  S2  UNL     1      19.438   6.093  12.669  0.00  0.00    +0.000 S 
BRANCH   5   6
ATOM      6  C11 UNL     1      19.380   6.161  10.889  0.00  0.00    +0.000 A 
ATOM      7  C12 UNL     1      19.498   7.387  10.227  0.00  0.00    +0.000 A 
ATOM      8  C13 UNL     1      19.455   7.441   8.832  0.00  0.00    +0.000 A 
ATOM      9  C14 UNL     1      19.299   6.268   8.094  0.00  0.00    +0.000 A 
ATOM     10  C15 UNL     1      19.187   5.042   8.748  0.00  0.00    +0.000 A 
ATOM     11  C16 UNL     1      19.231   4.988  10.143  0.00  0.00    +0.000 A 
ENDBRANCH   5   6
ENDBRANCH   4   5
ENDBRANCH   2   3
BRANCH   1  12
ATOM     12  S1  UNL     1      14.765   3.279  11.690  0.00  0.00    +0.000 S 
BRANCH  12  18
ATOM     13  C1  UNL     1      16.086   3.161   9.264  0.00  0.00    +0.000 A 
ATOM     14  C2  UNL     1      16.321   2.652   7.985  0.00  0.00    +0.000 A 
ATOM     15  C3  UNL     1      15.537   1.609   7.495  0.00  0.00    +0.000 A 
ATOM     16  C4  UNL     1      14.519   1.071   8.283  0.00  0.00    +0.000 A 
ATOM     17  C5  UNL     1      14.284   1.581   9.562  0.00  0.00    +0.000 A 
ATOM     18  C6  UNL     1      15.062   2.632  10.056  0.00  0.00    +0.000 A 
ENDBRANCH  12  18
ENDBRANCH   1  12
TORSDOF 5
ENDMDL
MODEL 8
REMARK VINA RESULT:    -4.016     13.843     15.914
REMARK INTER + INTRA:          -7.303
REMARK INTER:                  -5.214
REMARK INTRA:                  -2.089
REMARK UNBOUND:                -2.113
REMARK  Name = /home/anacleto/Desktop/manuscript_Mpro/naturecomm/supplementary_file_S2/6-chemical-library/molecular_docking/3D_ligand_structure/527.pdb
REMARK  5 active torsions:
REMARK  status: ('A' for Active; 'I' for Inactive)
REMARK    1  A    between atoms: C6_6  and  S1_7
REMARK    2  A    between atoms: S1_7  and  C7_8
REMARK    3  A    between atoms: C8_9  and  C9_10
REMARK    4  A    between atoms: C10_11  and  S2_12
REMARK    5  A    between atoms: S2_12  and  C11_13
REMARK                            x       y       z     vdW  Elec       q    Type
REMARK                         _______ _______ _______ _____ _____    ______ ____
ROOT
ATOM      1  C7  UNL     1      18.264  12.731  -3.253  0.00  0.00    +0.000 C 
ATOM      2  C8  UNL     1      17.247  13.316  -3.907  0.00  0.00    +0.000 C 
ENDROOT
BRANCH   2   3
ATOM      3  C9  UNL     1      16.015  13.832  -3.342  0.00  0.00    +0.000 C 
ATOM      4  C10 UNL     1      15.764  15.088  -2.938  0.00  0.00    +0.000 C 
BRANCH   4   5
ATOM      5  S2  UNL     1      16.890  16.403  -3.005  0.00  0.00    +0.000 S 
BRANCH   5   6
ATOM      6  C11 UNL     1      17.233  16.575  -1.265  0.00  0.00    +0.000 A 
ATOM      7  C12 UNL     1      18.164  17.520  -0.821  0.00  0.00    +0.000 A 
ATOM      8  C13 UNL     1      18.431  17.657   0.543  0.00  0.00    +0.000 A 
ATOM      9  C14 UNL     1      17.765  16.854   1.468  0.00  0.00    +0.000 A 
ATOM     10  C15 UNL     1      16.831  15.915   1.032  0.00  0.00    +0.000 A 
ATOM     11  C16 UNL     1      16.563  15.778  -0.332  0.00  0.00    +0.000 A 
ENDBRANCH   5   6
ENDBRANCH   4   5
ENDBRANCH   2   3
BRANCH   1  12
ATOM     12  S1  UNL     1      18.327  12.456  -1.543  0.00  0.00    +0.000 S 
BRANCH  12  18
ATOM     13  C1  UNL     1      20.194  14.420  -2.097  0.00  0.00    +0.000 A 
ATOM     14  C2  UNL     1      21.145  15.381  -1.750  0.00  0.00    +0.000 A 
ATOM     15  C3  UNL     1      21.449  15.611  -0.410  0.00  0.00    +0.000 A 
ATOM     16  C4  UNL     1      20.800  14.882   0.587  0.00  0.00    +0.000 A 
ATOM     17  C5  UNL     1      19.849  13.920   0.242  0.00  0.00    +0.000 A 
ATOM     18  C6  UNL     1      19.545  13.681  -1.102  0.00  0.00    +0.000 A 
ENDBRANCH  12  18
ENDBRANCH   1  12
TORSDOF 5
ENDMDL
MODEL 9
REMARK VINA RESULT:    -3.978     14.549     16.988
REMARK INTER + INTRA:          -7.254
REMARK INTER:                  -5.141
REMARK INTRA:                  -2.113
REMARK UNBOUND:                -2.113
REMARK  Name = /home/anacleto/Desktop/manuscript_Mpro/naturecomm/supplementary_file_S2/6-chemical-library/molecular_docking/3D_ligand_structure/527.pdb
REMARK  5 active torsions:
REMARK  status: ('A' for Active; 'I' for Inactive)
REMARK    1  A    between atoms: C6_6  and  S1_7
REMARK    2  A    between atoms: S1_7  and  C7_8
REMARK    3  A    between atoms: C8_9  and  C9_10
REMARK    4  A    between atoms: C10_11  and  S2_12
REMARK    5  A    between atoms: S2_12  and  C11_13
REMARK                            x       y       z     vdW  Elec       q    Type
REMARK                         _______ _______ _______ _____ _____    ______ ____
ROOT
ATOM      1  C7  UNL     1      16.720  13.375  -0.876  0.00  0.00    +0.000 C 
ATOM      2  C8  UNL     1      17.939  13.938  -0.840  0.00  0.00    +0.000 C 
ENDROOT
BRANCH   2   3
ATOM      3  C9  UNL     1      19.206  13.321  -1.183  0.00  0.00    +0.000 C 
ATOM      4  C10 UNL     1      19.850  13.377  -2.361  0.00  0.00    +0.000 C 
BRANCH   4   5
ATOM      5  S2  UNL     1      19.290  14.220  -3.767  0.00  0.00    +0.000 S 
BRANCH   5   6
ATOM      6  C11 UNL     1      18.673  12.836  -4.705  0.00  0.00    +0.000 A 
ATOM      7  C12 UNL     1      17.990  13.047  -5.907  0.00  0.00    +0.000 A 
ATOM      8  C13 UNL     1      17.510  11.963  -6.643  0.00  0.00    +0.000 A 
ATOM      9  C14 UNL     1      17.714  10.663  -6.183  0.00  0.00    +0.000 A 
ATOM     10  C15 UNL     1      18.399  10.445  -4.989  0.00  0.00    +0.000 A 
ATOM     11  C16 UNL     1      18.881  11.529  -4.252  0.00  0.00    +0.000 A 
ENDBRANCH   5   6
ENDBRANCH   4   5
ENDBRANCH   2   3
BRANCH   1  12
ATOM     12  S1  UNL     1      16.386  11.743  -1.353  0.00  0.00    +0.000 S 
BRANCH  12  18
ATOM     13  C1  UNL     1      15.285  13.378  -3.292  0.00  0.00    +0.000 A 
ATOM     14  C2  UNL     1      14.585  13.628  -4.474  0.00  0.00    +0.000 A 
ATOM     15  C3  UNL     1      14.091  12.567  -5.230  0.00  0.00    +0.000 A 
ATOM     16  C4  UNL     1      14.298  11.254  -4.808  0.00  0.00    +0.000 A 
ATOM     17  C5  UNL     1      14.997  11.002  -3.626  0.00  0.00    +0.000 A 
ATOM     18  C6  UNL     1      15.489  12.063  -2.860  0.00  0.00    +0.000 A 
ENDBRANCH  12  18
ENDBRANCH   1  12
TORSDOF 5
ENDMDL
