MODEL 1
REMARK VINA RESULT:    -5.048      0.000      0.000
REMARK INTER + INTRA:          -6.544
REMARK INTER:                  -6.192
REMARK INTRA:                  -0.352
REMARK UNBOUND:                -0.315
REMARK  Name = /home/anacleto/Desktop/manuscript_Mpro/naturecomm/supplementary_file_S2/6-chemical-library/molecular_docking/3D_ligand_structure/673.pdb
REMARK  4 active torsions:
REMARK  status: ('A' for Active; 'I' for Inactive)
REMARK    1  A    between atoms: C4_5  and  C5_6
REMARK    2  A    between atoms: C5_6  and  N1_7
REMARK    3  A    between atoms: C6_8  and  C7_10
REMARK    4  A    between atoms: C7_10  and  C8_11
REMARK                            x       y       z     vdW  Elec       q    Type
REMARK                         _______ _______ _______ _____ _____    ______ ____
ROOT
ATOM      1  N1  UNL     1     -24.324   5.757 -38.404  0.00  0.00    +0.000 N 
ATOM      2  C6  UNL     1     -23.088   6.064 -38.931  0.00  0.00    +0.000 C 
ATOM      3  O2  UNL     1     -22.892   6.270 -40.125  0.00  0.00    +0.000 OA
ATOM      4  H10 UNL     1     -24.438   5.752 -37.398  0.00  0.00    +0.000 HD
ENDROOT
BRANCH   1   5
ATOM      5  C5  UNL     1     -25.527   5.740 -39.217  0.00  0.00    +0.000 C 
BRANCH   5  10
ATOM      6  O1  UNL     1     -27.572   4.424 -39.080  0.00  0.00    +0.000 OA
ATOM      7  C1  UNL     1     -27.952   3.285 -38.291  0.00  0.00    +0.000 C 
ATOM      8  C2  UNL     1     -26.762   2.350 -38.265  0.00  0.00    +0.000 C 
ATOM      9  C3  UNL     1     -25.608   3.316 -38.361  0.00  0.00    +0.000 C 
ATOM     10  C4  UNL     1     -26.155   4.349 -39.334  0.00  0.00    +0.000 C 
ENDBRANCH   5  10
ENDBRANCH   1   5
BRANCH   2  11
ATOM     11  C7  UNL     1     -21.969   6.126 -37.907  0.00  0.00    +0.000 C 
BRANCH  11  12
ATOM     12  C8  UNL     1     -21.229   7.435 -37.942  0.00  0.00    +0.000 A 
ATOM     13  C9  UNL     1     -20.011   7.565 -38.615  0.00  0.00    +0.000 A 
ATOM     14  C10 UNL     1     -19.364   8.796 -38.639  0.00  0.00    +0.000 A 
ATOM     15  C11 UNL     1     -19.959   9.862 -37.986  0.00  0.00    +0.000 A 
ATOM     16  N2  UNL     1     -21.133   9.775 -37.323  0.00  0.00    +0.000 NA
ATOM     17  C12 UNL     1     -21.735   8.566 -37.310  0.00  0.00    +0.000 A 
ENDBRANCH  11  12
ENDBRANCH   2  11
TORSDOF 4
ENDMDL
MODEL 2
REMARK VINA RESULT:    -4.815     25.283     27.362
REMARK INTER + INTRA:          -6.255
REMARK INTER:                  -6.160
REMARK INTRA:                  -0.096
REMARK UNBOUND:                -0.315
REMARK  Name = /home/anacleto/Desktop/manuscript_Mpro/naturecomm/supplementary_file_S2/6-chemical-library/molecular_docking/3D_ligand_structure/673.pdb
REMARK  4 active torsions:
REMARK  status: ('A' for Active; 'I' for Inactive)
REMARK    1  A    between atoms: C4_5  and  C5_6
REMARK    2  A    between atoms: C5_6  and  N1_7
REMARK    3  A    between atoms: C6_8  and  C7_10
REMARK    4  A    between atoms: C7_10  and  C8_11
REMARK                            x       y       z     vdW  Elec       q    Type
REMARK                         _______ _______ _______ _____ _____    ______ ____
ROOT
ATOM      1  N1  UNL     1     -37.373   3.929 -15.771  0.00  0.00    +0.000 N 
ATOM      2  C6  UNL     1     -37.817   2.625 -15.722  0.00  0.00    +0.000 C 
ATOM      3  O2  UNL     1     -38.166   2.065 -14.686  0.00  0.00    +0.000 OA
ATOM      4  H10 UNL     1     -37.250   4.369 -16.674  0.00  0.00    +0.000 HD
ENDROOT
BRANCH   1   5
ATOM      5  C5  UNL     1     -37.366   4.785 -14.598  0.00  0.00    +0.000 C 
BRANCH   5  10
ATOM      6  O1  UNL     1     -36.774   7.122 -14.247  0.00  0.00    +0.000 OA
ATOM      7  C1  UNL     1     -37.503   8.251 -13.741  0.00  0.00    +0.000 C 
ATOM      8  C2  UNL     1     -38.894   8.179 -14.332  0.00  0.00    +0.000 C 
ATOM      9  C3  UNL     1     -39.089   6.692 -14.483  0.00  0.00    +0.000 C 
ATOM     10  C4  UNL     1     -37.702   6.245 -14.917  0.00  0.00    +0.000 C 
ENDBRANCH   5  10
ENDBRANCH   1   5
BRANCH   2  11
ATOM     11  C7  UNL     1     -37.840   1.921 -17.067  0.00  0.00    +0.000 C 
BRANCH  11  12
ATOM     12  C8  UNL     1     -36.837   0.804 -17.149  0.00  0.00    +0.000 A 
ATOM     13  C9  UNL     1     -35.708   0.899 -17.968  0.00  0.00    +0.000 A 
ATOM     14  C10 UNL     1     -34.793  -0.148 -18.005  0.00  0.00    +0.000 A 
ATOM     15  C11 UNL     1     -35.039  -1.261 -17.220  0.00  0.00    +0.000 A 
ATOM     16  N2  UNL     1     -36.119  -1.391 -16.420  0.00  0.00    +0.000 NA
ATOM     17  C12 UNL     1     -36.995  -0.363 -16.409  0.00  0.00    +0.000 A 
ENDBRANCH  11  12
ENDBRANCH   2  11
TORSDOF 4
ENDMDL
MODEL 3
REMARK VINA RESULT:    -4.663      1.917      7.012
REMARK INTER + INTRA:          -6.068
REMARK INTER:                  -5.707
REMARK INTRA:                  -0.361
REMARK UNBOUND:                -0.315
REMARK  Name = /home/anacleto/Desktop/manuscript_Mpro/naturecomm/supplementary_file_S2/6-chemical-library/molecular_docking/3D_ligand_structure/673.pdb
REMARK  4 active torsions:
REMARK  status: ('A' for Active; 'I' for Inactive)
REMARK    1  A    between atoms: C4_5  and  C5_6
REMARK    2  A    between atoms: C5_6  and  N1_7
REMARK    3  A    between atoms: C6_8  and  C7_10
REMARK    4  A    between atoms: C7_10  and  C8_11
REMARK                            x       y       z     vdW  Elec       q    Type
REMARK                         _______ _______ _______ _____ _____    ______ ____
ROOT
ATOM      1  N1  UNL     1     -23.581   5.618 -38.858  0.00  0.00    +0.000 N 
ATOM      2  C6  UNL     1     -24.330   5.583 -40.014  0.00  0.00    +0.000 C 
ATOM      3  O2  UNL     1     -24.642   6.585 -40.651  0.00  0.00    +0.000 OA
ATOM      4  H10 UNL     1     -23.234   4.748 -38.474  0.00  0.00    +0.000 HD
ENDROOT
BRANCH   1   5
ATOM      5  C5  UNL     1     -23.018   6.852 -38.340  0.00  0.00    +0.000 C 
BRANCH   5  10
ATOM      6  O1  UNL     1     -21.014   8.018 -37.592  0.00  0.00    +0.000 OA
ATOM      7  C1  UNL     1     -19.835   8.472 -38.274  0.00  0.00    +0.000 C 
ATOM      8  C2  UNL     1     -19.436   7.380 -39.243  0.00  0.00    +0.000 C 
ATOM      9  C3  UNL     1     -20.772   6.774 -39.591  0.00  0.00    +0.000 C 
ATOM     10  C4  UNL     1     -21.490   6.827 -38.252  0.00  0.00    +0.000 C 
ENDBRANCH   5  10
ENDBRANCH   1   5
BRANCH   2  11
ATOM     11  C7  UNL     1     -24.748   4.189 -40.447  0.00  0.00    +0.000 C 
BRANCH  11  12
ATOM     12  C8  UNL     1     -25.894   3.654 -39.635  0.00  0.00    +0.000 A 
ATOM     13  C9  UNL     1     -25.699   2.676 -38.655  0.00  0.00    +0.000 A 
ATOM     14  C10 UNL     1     -26.781   2.218 -37.912  0.00  0.00    +0.000 A 
ATOM     15  C11 UNL     1     -28.030   2.753 -38.175  0.00  0.00    +0.000 A 
ATOM     16  N2  UNL     1     -28.260   3.696 -39.115  0.00  0.00    +0.000 NA
ATOM     17  C12 UNL     1     -27.192   4.117 -39.826  0.00  0.00    +0.000 A 
ENDBRANCH  11  12
ENDBRANCH   2  11
TORSDOF 4
ENDMDL
MODEL 4
REMARK VINA RESULT:    -4.486     14.427     17.267
REMARK INTER + INTRA:          -5.850
REMARK INTER:                  -5.207
REMARK INTRA:                  -0.643
REMARK UNBOUND:                -0.315
REMARK  Name = /home/anacleto/Desktop/manuscript_Mpro/naturecomm/supplementary_file_S2/6-chemical-library/molecular_docking/3D_ligand_structure/673.pdb
REMARK  4 active torsions:
REMARK  status: ('A' for Active; 'I' for Inactive)
REMARK    1  A    between atoms: C4_5  and  C5_6
REMARK    2  A    between atoms: C5_6  and  N1_7
REMARK    3  A    between atoms: C6_8  and  C7_10
REMARK    4  A    between atoms: C7_10  and  C8_11
REMARK                            x       y       z     vdW  Elec       q    Type
REMARK                         _______ _______ _______ _____ _____    ______ ____
ROOT
ATOM      1  N1  UNL     1     -25.286  -3.352 -28.446  0.00  0.00    +0.000 N 
ATOM      2  C6  UNL     1     -26.162  -4.415 -28.501  0.00  0.00    +0.000 C 
ATOM      3  O2  UNL     1     -25.902  -5.480 -29.053  0.00  0.00    +0.000 OA
ATOM      4  H10 UNL     1     -25.508  -2.567 -27.846  0.00  0.00    +0.000 HD
ENDROOT
BRANCH   1   5
ATOM      5  C5  UNL     1     -23.934  -3.439 -28.967  0.00  0.00    +0.000 C 
BRANCH   5  10
ATOM      6  O1  UNL     1     -22.685  -5.386 -28.200  0.00  0.00    +0.000 OA
ATOM      7  C1  UNL     1     -22.614  -6.067 -26.937  0.00  0.00    +0.000 C 
ATOM      8  C2  UNL     1     -22.575  -5.002 -25.863  0.00  0.00    +0.000 C 
ATOM      9  C3  UNL     1     -23.376  -3.893 -26.497  0.00  0.00    +0.000 C 
ATOM     10  C4  UNL     1     -22.930  -3.987 -27.948  0.00  0.00    +0.000 C 
ENDBRANCH   5  10
ENDBRANCH   1   5
BRANCH   2  11
ATOM     11  C7  UNL     1     -27.495  -4.163 -27.818  0.00  0.00    +0.000 C 
BRANCH  11  12
ATOM     12  C8  UNL     1     -27.694  -5.033 -26.608  0.00  0.00    +0.000 A 
ATOM     13  C9  UNL     1     -26.647  -5.296 -25.720  0.00  0.00    +0.000 A 
ATOM     14  C10 UNL     1     -26.874  -6.092 -24.602  0.00  0.00    +0.000 A 
ATOM     15  C11 UNL     1     -28.146  -6.602 -24.408  0.00  0.00    +0.000 A 
ATOM     16  N2  UNL     1     -29.181  -6.374 -25.245  0.00  0.00    +0.000 NA
ATOM     17  C12 UNL     1     -28.931  -5.604 -26.326  0.00  0.00    +0.000 A 
ENDBRANCH  11  12
ENDBRANCH   2  11
TORSDOF 4
ENDMDL
MODEL 5
REMARK VINA RESULT:    -4.413     14.203     16.352
REMARK INTER + INTRA:          -5.760
REMARK INTER:                  -5.447
REMARK INTRA:                  -0.314
REMARK UNBOUND:                -0.315
REMARK  Name = /home/anacleto/Desktop/manuscript_Mpro/naturecomm/supplementary_file_S2/6-chemical-library/molecular_docking/3D_ligand_structure/673.pdb
REMARK  4 active torsions:
REMARK  status: ('A' for Active; 'I' for Inactive)
REMARK    1  A    between atoms: C4_5  and  C5_6
REMARK    2  A    between atoms: C5_6  and  N1_7
REMARK    3  A    between atoms: C6_8  and  C7_10
REMARK    4  A    between atoms: C7_10  and  C8_11
REMARK                            x       y       z     vdW  Elec       q    Type
REMARK                         _______ _______ _______ _____ _____    ______ ____
ROOT
ATOM      1  N1  UNL     1     -22.235  -4.443 -28.867  0.00  0.00    +0.000 N 
ATOM      2  C6  UNL     1     -23.509  -4.521 -29.387  0.00  0.00    +0.000 C 
ATOM      3  O2  UNL     1     -23.890  -5.433 -30.115  0.00  0.00    +0.000 OA
ATOM      4  H10 UNL     1     -22.039  -3.750 -28.155  0.00  0.00    +0.000 HD
ENDROOT
BRANCH   1   5
ATOM      5  C5  UNL     1     -21.254  -5.494 -29.069  0.00  0.00    +0.000 C 
BRANCH   5  10
ATOM      6  O1  UNL     1     -19.289  -6.154 -27.789  0.00  0.00    +0.000 OA
ATOM      7  C1  UNL     1     -18.589  -5.549 -26.690  0.00  0.00    +0.000 C 
ATOM      8  C2  UNL     1     -18.515  -4.065 -26.976  0.00  0.00    +0.000 C 
ATOM      9  C3  UNL     1     -19.781  -3.839 -27.763  0.00  0.00    +0.000 C 
ATOM     10  C4  UNL     1     -19.848  -5.104 -28.604  0.00  0.00    +0.000 C 
ENDBRANCH   5  10
ENDBRANCH   1   5
BRANCH   2  11
ATOM     11  C7  UNL     1     -24.419  -3.374 -28.986  0.00  0.00    +0.000 C 
BRANCH  11  12
ATOM     12  C8  UNL     1     -25.631  -3.839 -28.227  0.00  0.00    +0.000 A 
ATOM     13  C9  UNL     1     -26.912  -3.380 -28.547  0.00  0.00    +0.000 A 
ATOM     14  C10 UNL     1     -28.010  -3.846 -27.832  0.00  0.00    +0.000 A 
ATOM     15  C11 UNL     1     -27.791  -4.760 -26.816  0.00  0.00    +0.000 A 
ATOM     16  N2  UNL     1     -26.569  -5.224 -26.475  0.00  0.00    +0.000 NA
ATOM     17  C12 UNL     1     -25.520  -4.749 -27.180  0.00  0.00    +0.000 A 
ENDBRANCH  11  12
ENDBRANCH   2  11
TORSDOF 4
ENDMDL
MODEL 6
REMARK VINA RESULT:    -4.335      3.258      4.167
REMARK INTER + INTRA:          -5.664
REMARK INTER:                  -5.349
REMARK INTRA:                  -0.315
REMARK UNBOUND:                -0.315
REMARK  Name = /home/anacleto/Desktop/manuscript_Mpro/naturecomm/supplementary_file_S2/6-chemical-library/molecular_docking/3D_ligand_structure/673.pdb
REMARK  4 active torsions:
REMARK  status: ('A' for Active; 'I' for Inactive)
REMARK    1  A    between atoms: C4_5  and  C5_6
REMARK    2  A    between atoms: C5_6  and  N1_7
REMARK    3  A    between atoms: C6_8  and  C7_10
REMARK    4  A    between atoms: C7_10  and  C8_11
REMARK                            x       y       z     vdW  Elec       q    Type
REMARK                         _______ _______ _______ _____ _____    ______ ____
ROOT
ATOM      1  N1  UNL     1     -24.404  10.021 -37.229  0.00  0.00    +0.000 N 
ATOM      2  C6  UNL     1     -23.184  10.420 -37.733  0.00  0.00    +0.000 C 
ATOM      3  O2  UNL     1     -23.052  11.015 -38.798  0.00  0.00    +0.000 OA
ATOM      4  H10 UNL     1     -24.451   9.674 -36.279  0.00  0.00    +0.000 HD
ENDROOT
BRANCH   1   5
ATOM      5  C5  UNL     1     -25.655  10.354 -37.886  0.00  0.00    +0.000 C 
BRANCH   5  10
ATOM      6  O1  UNL     1     -26.316   8.116 -38.585  0.00  0.00    +0.000 OA
ATOM      7  C1  UNL     1     -27.487   7.601 -39.238  0.00  0.00    +0.000 C 
ATOM      8  C2  UNL     1     -28.680   8.295 -38.618  0.00  0.00    +0.000 C 
ATOM      9  C3  UNL     1     -28.099   9.636 -38.247  0.00  0.00    +0.000 C 
ATOM     10  C4  UNL     1     -26.706   9.246 -37.778  0.00  0.00    +0.000 C 
ENDBRANCH   5  10
ENDBRANCH   1   5
BRANCH   2  11
ATOM     11  C7  UNL     1     -21.998  10.061 -36.856  0.00  0.00    +0.000 C 
BRANCH  11  12
ATOM     12  C8  UNL     1     -20.909   9.361 -37.621  0.00  0.00    +0.000 A 
ATOM     13  C9  UNL     1     -19.746  10.031 -38.011  0.00  0.00    +0.000 A 
ATOM     14  C10 UNL     1     -18.753   9.346 -38.703  0.00  0.00    +0.000 A 
ATOM     15  C11 UNL     1     -18.957   8.006 -38.985  0.00  0.00    +0.000 A 
ATOM     16  N2  UNL     1     -20.068   7.325 -38.628  0.00  0.00    +0.000 NA
ATOM     17  C12 UNL     1     -21.018   8.017 -37.964  0.00  0.00    +0.000 A 
ENDBRANCH  11  12
ENDBRANCH   2  11
TORSDOF 4
ENDMDL
MODEL 7
REMARK VINA RESULT:    -4.313     25.296     27.429
REMARK INTER + INTRA:          -5.637
REMARK INTER:                  -5.260
REMARK INTRA:                  -0.377
REMARK UNBOUND:                -0.315
REMARK  Name = /home/anacleto/Desktop/manuscript_Mpro/naturecomm/supplementary_file_S2/6-chemical-library/molecular_docking/3D_ligand_structure/673.pdb
REMARK  4 active torsions:
REMARK  status: ('A' for Active; 'I' for Inactive)
REMARK    1  A    between atoms: C4_5  and  C5_6
REMARK    2  A    between atoms: C5_6  and  N1_7
REMARK    3  A    between atoms: C6_8  and  C7_10
REMARK    4  A    between atoms: C7_10  and  C8_11
REMARK                            x       y       z     vdW  Elec       q    Type
REMARK                         _______ _______ _______ _____ _____    ______ ____
ROOT
ATOM      1  N1  UNL     1     -37.541   2.415 -16.310  0.00  0.00    +0.000 N 
ATOM      2  C6  UNL     1     -38.299   2.723 -15.201  0.00  0.00    +0.000 C 
ATOM      3  O2  UNL     1     -39.481   2.416 -15.080  0.00  0.00    +0.000 OA
ATOM      4  H10 UNL     1     -36.541   2.563 -16.275  0.00  0.00    +0.000 HD
ENDROOT
BRANCH   1   5
ATOM      5  C5  UNL     1     -38.065   1.615 -17.403  0.00  0.00    +0.000 C 
BRANCH   5  10
ATOM      6  O1  UNL     1     -37.027  -0.532 -16.905  0.00  0.00    +0.000 OA
ATOM      7  C1  UNL     1     -35.660  -0.953 -16.786  0.00  0.00    +0.000 C 
ATOM      8  C2  UNL     1     -34.892  -0.284 -17.905  0.00  0.00    +0.000 C 
ATOM      9  C3  UNL     1     -35.660   1.002 -18.080  0.00  0.00    +0.000 C 
ATOM     10  C4  UNL     1     -37.092   0.532 -17.876  0.00  0.00    +0.000 C 
ENDBRANCH   5  10
ENDBRANCH   1   5
BRANCH   2  11
ATOM     11  C7  UNL     1     -37.548   3.483 -14.122  0.00  0.00    +0.000 C 
BRANCH  11  12
ATOM     12  C8  UNL     1     -37.988   4.918 -14.017  0.00  0.00    +0.000 A 
ATOM     13  C9  UNL     1     -37.644   5.858 -14.993  0.00  0.00    +0.000 A 
ATOM     14  C10 UNL     1     -38.084   7.172 -14.870  0.00  0.00    +0.000 A 
ATOM     15  C11 UNL     1     -38.855   7.504 -13.770  0.00  0.00    +0.000 A 
ATOM     16  N2  UNL     1     -39.205   6.625 -12.805  0.00  0.00    +0.000 NA
ATOM     17  C12 UNL     1     -38.758   5.359 -12.947  0.00  0.00    +0.000 A 
ENDBRANCH  11  12
ENDBRANCH   2  11
TORSDOF 4
ENDMDL
MODEL 8
REMARK VINA RESULT:    -4.311     15.579     18.127
REMARK INTER + INTRA:          -5.634
REMARK INTER:                  -5.341
REMARK INTRA:                  -0.293
REMARK UNBOUND:                -0.315
REMARK  Name = /home/anacleto/Desktop/manuscript_Mpro/naturecomm/supplementary_file_S2/6-chemical-library/molecular_docking/3D_ligand_structure/673.pdb
REMARK  4 active torsions:
REMARK  status: ('A' for Active; 'I' for Inactive)
REMARK    1  A    between atoms: C4_5  and  C5_6
REMARK    2  A    between atoms: C5_6  and  N1_7
REMARK    3  A    between atoms: C6_8  and  C7_10
REMARK    4  A    between atoms: C7_10  and  C8_11
REMARK                            x       y       z     vdW  Elec       q    Type
REMARK                         _______ _______ _______ _____ _____    ______ ____
ROOT
ATOM      1  N1  UNL     1     -38.020  -2.850 -33.348  0.00  0.00    +0.000 N 
ATOM      2  C6  UNL     1     -38.737  -3.251 -32.242  0.00  0.00    +0.000 C 
ATOM      3  O2  UNL     1     -39.898  -3.648 -32.293  0.00  0.00    +0.000 OA
ATOM      4  H10 UNL     1     -37.026  -2.683 -33.252  0.00  0.00    +0.000 HD
ENDROOT
BRANCH   1   5
ATOM      5  C5  UNL     1     -38.558  -2.948 -34.693  0.00  0.00    +0.000 C 
BRANCH   5  10
ATOM      6  O1  UNL     1     -36.350  -2.414 -35.576  0.00  0.00    +0.000 OA
ATOM      7  C1  UNL     1     -35.633  -1.181 -35.735  0.00  0.00    +0.000 C 
ATOM      8  C2  UNL     1     -36.625  -0.155 -36.238  0.00  0.00    +0.000 C 
ATOM      9  C3  UNL     1     -37.910  -0.634 -35.611  0.00  0.00    +0.000 C 
ATOM     10  C4  UNL     1     -37.759  -2.143 -35.722  0.00  0.00    +0.000 C 
ENDBRANCH   5  10
ENDBRANCH   1   5
BRANCH   2  11
ATOM     11  C7  UNL     1     -37.971  -3.163 -30.934  0.00  0.00    +0.000 C 
BRANCH  11  12
ATOM     12  C8  UNL     1     -38.087  -1.810 -30.290  0.00  0.00    +0.000 A 
ATOM     13  C9  UNL     1     -37.070  -1.300 -29.477  0.00  0.00    +0.000 A 
ATOM     14  C10 UNL     1     -37.206  -0.037 -28.911  0.00  0.00    +0.000 A 
ATOM     15  C11 UNL     1     -38.361   0.679 -29.177  0.00  0.00    +0.000 A 
ATOM     16  N2  UNL     1     -39.366   0.220 -29.954  0.00  0.00    +0.000 NA
ATOM     17  C12 UNL     1     -39.210  -1.013 -30.484  0.00  0.00    +0.000 A 
ENDBRANCH  11  12
ENDBRANCH   2  11
TORSDOF 4
ENDMDL
MODEL 9
REMARK VINA RESULT:    -4.302     26.297     28.594
REMARK INTER + INTRA:          -5.623
REMARK INTER:                  -5.165
REMARK INTRA:                  -0.458
REMARK UNBOUND:                -0.315
REMARK  Name = /home/anacleto/Desktop/manuscript_Mpro/naturecomm/supplementary_file_S2/6-chemical-library/molecular_docking/3D_ligand_structure/673.pdb
REMARK  4 active torsions:
REMARK  status: ('A' for Active; 'I' for Inactive)
REMARK    1  A    between atoms: C4_5  and  C5_6
REMARK    2  A    between atoms: C5_6  and  N1_7
REMARK    3  A    between atoms: C6_8  and  C7_10
REMARK    4  A    between atoms: C7_10  and  C8_11
REMARK                            x       y       z     vdW  Elec       q    Type
REMARK                         _______ _______ _______ _____ _____    ______ ____
ROOT
ATOM      1  N1  UNL     1     -38.819   5.008 -14.673  0.00  0.00    +0.000 N 
ATOM      2  C6  UNL     1     -38.987   3.863 -13.925  0.00  0.00    +0.000 C 
ATOM      3  O2  UNL     1     -39.769   3.775 -12.983  0.00  0.00    +0.000 OA
ATOM      4  H10 UNL     1     -38.274   4.961 -15.524  0.00  0.00    +0.000 HD
ENDROOT
BRANCH   1   5
ATOM      5  C5  UNL     1     -39.631   6.193 -14.459  0.00  0.00    +0.000 C 
BRANCH   5  10
ATOM      6  O1  UNL     1     -37.661   7.553 -14.915  0.00  0.00    +0.000 OA
ATOM      7  C1  UNL     1     -36.537   7.946 -14.113  0.00  0.00    +0.000 C 
ATOM      8  C2  UNL     1     -37.074   8.302 -12.744  0.00  0.00    +0.000 C 
ATOM      9  C3  UNL     1     -38.268   7.387 -12.633  0.00  0.00    +0.000 C 
ATOM     10  C4  UNL     1     -38.810   7.421 -14.054  0.00  0.00    +0.000 C 
ENDBRANCH   5  10
ENDBRANCH   1   5
BRANCH   2  11
ATOM     11  C7  UNL     1     -38.114   2.699 -14.360  0.00  0.00    +0.000 C 
BRANCH  11  12
ATOM     12  C8  UNL     1     -38.464   2.201 -15.735  0.00  0.00    +0.000 A 
ATOM     13  C9  UNL     1     -37.488   2.051 -16.726  0.00  0.00    +0.000 A 
ATOM     14  C10 UNL     1     -37.847   1.571 -17.981  0.00  0.00    +0.000 A 
ATOM     15  C11 UNL     1     -39.176   1.258 -18.207  0.00  0.00    +0.000 A 
ATOM     16  N2  UNL     1     -40.148   1.392 -17.277  0.00  0.00    +0.000 NA
ATOM     17  C12 UNL     1     -39.772   1.867 -16.070  0.00  0.00    +0.000 A 
ENDBRANCH  11  12
ENDBRANCH   2  11
TORSDOF 4
ENDMDL
