MODEL 1
REMARK VINA RESULT:    -5.218      0.000      0.000
REMARK INTER + INTRA:          -5.703
REMARK INTER:                  -5.533
REMARK INTRA:                  -0.169
REMARK UNBOUND:                -0.180
REMARK  Name = /home/anacleto/Desktop/manuscript_Mpro/naturecomm/supplementary_file_S2/6-chemical-library/molecular_docking/3D_ligand_structure/934.pdb
REMARK  1 active torsions:
REMARK  status: ('A' for Active; 'I' for Inactive)
REMARK    1  A    between atoms: N2_8  and  C6_9
REMARK                            x       y       z     vdW  Elec       q    Type
REMARK                         _______ _______ _______ _____ _____    ______ ____
ROOT
ATOM      1  C1  UNL     1      16.249   2.640   7.574  0.00  0.00    +0.000 C 
ATOM      2  C2  UNL     1      15.415   1.366   7.635  0.00  0.00    +0.000 C 
ATOM      3  C3  UNL     1      14.644   1.525   8.938  0.00  0.00    +0.000 C 
ATOM      4  C4  UNL     1      15.665   2.182   9.854  0.00  0.00    +0.000 C 
ATOM      5  N1  UNL     1      16.477   2.998   8.966  0.00  0.00    +0.000 N 
ATOM      6  C5  UNL     1      17.383   3.902   9.488  0.00  0.00    +0.000 C 
ATOM      7  O1  UNL     1      17.539   4.006  10.701  0.00  0.00    +0.000 OA
ATOM      8  N2  UNL     1      18.052   4.638   8.537  0.00  0.00    +0.000 N 
ATOM      9  H9  UNL     1      17.702   4.562   7.597  0.00  0.00    +0.000 HD
ENDROOT
BRANCH   8  10
ATOM     10  C6  UNL     1      19.079   5.583   8.746  0.00  0.00    +0.000 A 
ATOM     11  C7  UNL     1      18.890   6.961   8.797  0.00  0.00    +0.000 A 
ATOM     12  C8  UNL     1      19.981   7.804   9.016  0.00  0.00    +0.000 A 
ATOM     13  C9  UNL     1      21.233   7.239   9.184  0.00  0.00    +0.000 A 
ATOM     14  N3  UNL     1      21.463   5.910   9.148  0.00  0.00    +0.000 NA
ATOM     15  C10 UNL     1      20.383   5.121   8.931  0.00  0.00    +0.000 A 
ENDBRANCH   8  10
TORSDOF 1
ENDMDL
MODEL 2
REMARK VINA RESULT:    -5.108      1.128      5.923
REMARK INTER + INTRA:          -5.586
REMARK INTER:                  -5.430
REMARK INTRA:                  -0.156
REMARK UNBOUND:                -0.180
REMARK  Name = /home/anacleto/Desktop/manuscript_Mpro/naturecomm/supplementary_file_S2/6-chemical-library/molecular_docking/3D_ligand_structure/934.pdb
REMARK  1 active torsions:
REMARK  status: ('A' for Active; 'I' for Inactive)
REMARK    1  A    between atoms: N2_8  and  C6_9
REMARK                            x       y       z     vdW  Elec       q    Type
REMARK                         _______ _______ _______ _____ _____    ______ ____
ROOT
ATOM      1  C1  UNL     1      19.079   6.653   8.489  0.00  0.00    +0.000 C 
ATOM      2  C2  UNL     1      20.116   7.676   8.937  0.00  0.00    +0.000 C 
ATOM      3  C3  UNL     1      21.356   6.825   9.172  0.00  0.00    +0.000 C 
ATOM      4  C4  UNL     1      20.780   5.550   9.770  0.00  0.00    +0.000 C 
ATOM      5  N1  UNL     1      19.473   5.417   9.148  0.00  0.00    +0.000 N 
ATOM      6  C5  UNL     1      18.745   4.252   9.306  0.00  0.00    +0.000 C 
ATOM      7  O1  UNL     1      19.173   3.332   9.995  0.00  0.00    +0.000 OA
ATOM      8  N2  UNL     1      17.547   4.244   8.630  0.00  0.00    +0.000 N 
ATOM      9  H9  UNL     1      17.406   4.996   7.975  0.00  0.00    +0.000 HD
ENDROOT
BRANCH   8  10
ATOM     10  C6  UNL     1      16.555   3.240   8.646  0.00  0.00    +0.000 A 
ATOM     11  C7  UNL     1      16.353   2.309   7.630  0.00  0.00    +0.000 A 
ATOM     12  C8  UNL     1      15.345   1.353   7.756  0.00  0.00    +0.000 A 
ATOM     13  C9  UNL     1      14.568   1.353   8.901  0.00  0.00    +0.000 A 
ATOM     14  N3  UNL     1      14.731   2.231   9.913  0.00  0.00    +0.000 NA
ATOM     15  C10 UNL     1      15.718   3.148   9.758  0.00  0.00    +0.000 A 
ENDBRANCH   8  10
TORSDOF 1
ENDMDL
MODEL 3
REMARK VINA RESULT:    -4.880     15.778     17.140
REMARK INTER + INTRA:          -5.345
REMARK INTER:                  -5.221
REMARK INTRA:                  -0.124
REMARK UNBOUND:                -0.180
REMARK  Name = /home/anacleto/Desktop/manuscript_Mpro/naturecomm/supplementary_file_S2/6-chemical-library/molecular_docking/3D_ligand_structure/934.pdb
REMARK  1 active torsions:
REMARK  status: ('A' for Active; 'I' for Inactive)
REMARK    1  A    between atoms: N2_8  and  C6_9
REMARK                            x       y       z     vdW  Elec       q    Type
REMARK                         _______ _______ _______ _____ _____    ______ ____
ROOT
ATOM      1  C1  UNL     1      13.426  15.481  -2.452  0.00  0.00    +0.000 C 
ATOM      2  C2  UNL     1      13.503  16.117  -1.070  0.00  0.00    +0.000 C 
ATOM      3  C3  UNL     1      14.998  16.131  -0.783  0.00  0.00    +0.000 C 
ATOM      4  C4  UNL     1      15.467  14.814  -1.385  0.00  0.00    +0.000 C 
ATOM      5  N1  UNL     1      14.580  14.596  -2.515  0.00  0.00    +0.000 N 
ATOM      6  C5  UNL     1      14.847  13.588  -3.423  0.00  0.00    +0.000 C 
ATOM      7  O1  UNL     1      15.811  12.845  -3.271  0.00  0.00    +0.000 OA
ATOM      8  N2  UNL     1      13.952  13.521  -4.466  0.00  0.00    +0.000 N 
ATOM      9  H9  UNL     1      13.313  14.295  -4.547  0.00  0.00    +0.000 HD
ENDROOT
BRANCH   8  10
ATOM     10  C6  UNL     1      13.912  12.568  -5.506  0.00  0.00    +0.000 A 
ATOM     11  C7  UNL     1      14.877  12.441  -6.502  0.00  0.00    +0.000 A 
ATOM     12  C8  UNL     1      14.740  11.455  -7.480  0.00  0.00    +0.000 A 
ATOM     13  C9  UNL     1      13.637  10.620  -7.431  0.00  0.00    +0.000 A 
ATOM     14  N3  UNL     1      12.680  10.703  -6.483  0.00  0.00    +0.000 NA
ATOM     15  C10 UNL     1      12.844  11.672  -5.549  0.00  0.00    +0.000 A 
ENDBRANCH   8  10
TORSDOF 1
ENDMDL
MODEL 4
REMARK VINA RESULT:    -4.625     14.832     16.338
REMARK INTER + INTRA:          -5.075
REMARK INTER:                  -4.899
REMARK INTRA:                  -0.177
REMARK UNBOUND:                -0.180
REMARK  Name = /home/anacleto/Desktop/manuscript_Mpro/naturecomm/supplementary_file_S2/6-chemical-library/molecular_docking/3D_ligand_structure/934.pdb
REMARK  1 active torsions:
REMARK  status: ('A' for Active; 'I' for Inactive)
REMARK    1  A    between atoms: N2_8  and  C6_9
REMARK                            x       y       z     vdW  Elec       q    Type
REMARK                         _______ _______ _______ _____ _____    ______ ____
ROOT
ATOM      1  C1  UNL     1      17.183  13.914  -1.298  0.00  0.00    +0.000 C 
ATOM      2  C2  UNL     1      17.717  14.941  -0.309  0.00  0.00    +0.000 C 
ATOM      3  C3  UNL     1      16.449  15.502   0.320  0.00  0.00    +0.000 C 
ATOM      4  C4  UNL     1      15.484  15.547  -0.855  0.00  0.00    +0.000 C 
ATOM      5  N1  UNL     1      15.877  14.424  -1.691  0.00  0.00    +0.000 N 
ATOM      6  C5  UNL     1      15.081  14.036  -2.752  0.00  0.00    +0.000 C 
ATOM      7  O1  UNL     1      14.054  14.649  -3.023  0.00  0.00    +0.000 OA
ATOM      8  N2  UNL     1      15.550  12.935  -3.430  0.00  0.00    +0.000 N 
ATOM      9  H9  UNL     1      16.310  12.440  -2.994  0.00  0.00    +0.000 HD
ENDROOT
BRANCH   8  10
ATOM     10  C6  UNL     1      15.005  12.342  -4.590  0.00  0.00    +0.000 A 
ATOM     11  C7  UNL     1      15.174  12.829  -5.883  0.00  0.00    +0.000 A 
ATOM     12  C8  UNL     1      14.595  12.156  -6.960  0.00  0.00    +0.000 A 
ATOM     13  C9  UNL     1      13.864  11.008  -6.709  0.00  0.00    +0.000 A 
ATOM     14  N3  UNL     1      13.679  10.496  -5.475  0.00  0.00    +0.000 NA
ATOM     15  C10 UNL     1      14.253  11.174  -4.452  0.00  0.00    +0.000 A 
ENDBRANCH   8  10
TORSDOF 1
ENDMDL
MODEL 5
REMARK VINA RESULT:    -4.556     15.030     15.849
REMARK INTER + INTRA:          -5.002
REMARK INTER:                  -4.831
REMARK INTRA:                  -0.171
REMARK UNBOUND:                -0.180
REMARK  Name = /home/anacleto/Desktop/manuscript_Mpro/naturecomm/supplementary_file_S2/6-chemical-library/molecular_docking/3D_ligand_structure/934.pdb
REMARK  1 active torsions:
REMARK  status: ('A' for Active; 'I' for Inactive)
REMARK    1  A    between atoms: N2_8  and  C6_9
REMARK                            x       y       z     vdW  Elec       q    Type
REMARK                         _______ _______ _______ _____ _____    ______ ____
ROOT
ATOM      1  C1  UNL     1      13.747  11.309  -4.999  0.00  0.00    +0.000 C 
ATOM      2  C2  UNL     1      13.123  10.883  -6.321  0.00  0.00    +0.000 C 
ATOM      3  C3  UNL     1      14.236  11.147  -7.326  0.00  0.00    +0.000 C 
ATOM      4  C4  UNL     1      14.865  12.429  -6.801  0.00  0.00    +0.000 C 
ATOM      5  N1  UNL     1      14.698  12.351  -5.359  0.00  0.00    +0.000 N 
ATOM      6  C5  UNL     1      15.338  13.258  -4.536  0.00  0.00    +0.000 C 
ATOM      7  O1  UNL     1      16.024  14.159  -5.008  0.00  0.00    +0.000 OA
ATOM      8  N2  UNL     1      15.128  13.042  -3.193  0.00  0.00    +0.000 N 
ATOM      9  H9  UNL     1      14.682  12.173  -2.952  0.00  0.00    +0.000 HD
ENDROOT
BRANCH   8  10
ATOM     10  C6  UNL     1      15.583  13.829  -2.113  0.00  0.00    +0.000 A 
ATOM     11  C7  UNL     1      15.037  15.054  -1.739  0.00  0.00    +0.000 A 
ATOM     12  C8  UNL     1      15.562  15.744  -0.647  0.00  0.00    +0.000 A 
ATOM     13  C9  UNL     1      16.622  15.184   0.046  0.00  0.00    +0.000 A 
ATOM     14  N3  UNL     1      17.179  13.998  -0.277  0.00  0.00    +0.000 NA
ATOM     15  C10 UNL     1      16.646  13.355  -1.344  0.00  0.00    +0.000 A 
ENDBRANCH   8  10
TORSDOF 1
ENDMDL
MODEL 6
REMARK VINA RESULT:    -4.438     14.270     15.770
REMARK INTER + INTRA:          -4.877
REMARK INTER:                  -4.783
REMARK INTRA:                  -0.093
REMARK UNBOUND:                -0.180
REMARK  Name = /home/anacleto/Desktop/manuscript_Mpro/naturecomm/supplementary_file_S2/6-chemical-library/molecular_docking/3D_ligand_structure/934.pdb
REMARK  1 active torsions:
REMARK  status: ('A' for Active; 'I' for Inactive)
REMARK    1  A    between atoms: N2_8  and  C6_9
REMARK                            x       y       z     vdW  Elec       q    Type
REMARK                         _______ _______ _______ _____ _____    ______ ____
ROOT
ATOM      1  C1  UNL     1      17.395  13.862  -1.780  0.00  0.00    +0.000 C 
ATOM      2  C2  UNL     1      18.097  14.063  -0.443  0.00  0.00    +0.000 C 
ATOM      3  C3  UNL     1      19.209  13.024  -0.482  0.00  0.00    +0.000 C 
ATOM      4  C4  UNL     1      18.543  11.846  -1.176  0.00  0.00    +0.000 C 
ATOM      5  N1  UNL     1      17.593  12.454  -2.093  0.00  0.00    +0.000 N 
ATOM      6  C5  UNL     1      16.950  11.681  -3.041  0.00  0.00    +0.000 C 
ATOM      7  O1  UNL     1      17.145  10.472  -3.102  0.00  0.00    +0.000 OA
ATOM      8  N2  UNL     1      16.113  12.392  -3.870  0.00  0.00    +0.000 N 
ATOM      9  H9  UNL     1      16.181  13.394  -3.809  0.00  0.00    +0.000 HD
ENDROOT
BRANCH   8  10
ATOM     10  C6  UNL     1      15.271  11.885  -4.883  0.00  0.00    +0.000 A 
ATOM     11  C7  UNL     1      15.435  12.126  -6.244  0.00  0.00    +0.000 A 
ATOM     12  C8  UNL     1      14.544  11.566  -7.161  0.00  0.00    +0.000 A 
ATOM     13  C9  UNL     1      13.512  10.775  -6.686  0.00  0.00    +0.000 A 
ATOM     14  N3  UNL     1      13.317  10.510  -5.377  0.00  0.00    +0.000 NA
ATOM     15  C10 UNL     1      14.199  11.071  -4.514  0.00  0.00    +0.000 A 
ENDBRANCH   8  10
TORSDOF 1
ENDMDL
MODEL 7
REMARK VINA RESULT:    -4.374      4.338      5.224
REMARK INTER + INTRA:          -4.810
REMARK INTER:                  -4.630
REMARK INTRA:                  -0.180
REMARK UNBOUND:                -0.180
REMARK  Name = /home/anacleto/Desktop/manuscript_Mpro/naturecomm/supplementary_file_S2/6-chemical-library/molecular_docking/3D_ligand_structure/934.pdb
REMARK  1 active torsions:
REMARK  status: ('A' for Active; 'I' for Inactive)
REMARK    1  A    between atoms: N2_8  and  C6_9
REMARK                            x       y       z     vdW  Elec       q    Type
REMARK                         _______ _______ _______ _____ _____    ______ ____
ROOT
ATOM      1  C1  UNL     1      16.629   7.902  14.461  0.00  0.00    +0.000 C 
ATOM      2  C2  UNL     1      15.359   7.793  15.294  0.00  0.00    +0.000 C 
ATOM      3  C3  UNL     1      15.354   6.332  15.722  0.00  0.00    +0.000 C 
ATOM      4  C4  UNL     1      15.892   5.620  14.489  0.00  0.00    +0.000 C 
ATOM      5  N1  UNL     1      16.811   6.575  13.891  0.00  0.00    +0.000 N 
ATOM      6  C5  UNL     1      17.642   6.185  12.858  0.00  0.00    +0.000 C 
ATOM      7  O1  UNL     1      17.594   5.044  12.409  0.00  0.00    +0.000 OA
ATOM      8  N2  UNL     1      18.490   7.174  12.416  0.00  0.00    +0.000 N 
ATOM      9  H9  UNL     1      18.533   8.003  12.986  0.00  0.00    +0.000 HD
ENDROOT
BRANCH   8  10
ATOM     10  C6  UNL     1      19.401   7.111  11.340  0.00  0.00    +0.000 A 
ATOM     11  C7  UNL     1      19.074   7.359  10.010  0.00  0.00    +0.000 A 
ATOM     12  C8  UNL     1      20.060   7.274   9.025  0.00  0.00    +0.000 A 
ATOM     13  C9  UNL     1      21.350   6.947   9.404  0.00  0.00    +0.000 A 
ATOM     14  N3  UNL     1      21.714   6.705  10.681  0.00  0.00    +0.000 NA
ATOM     15  C10 UNL     1      20.732   6.793  11.611  0.00  0.00    +0.000 A 
ENDBRANCH   8  10
TORSDOF 1
ENDMDL
MODEL 8
REMARK VINA RESULT:    -4.345     14.144     14.939
REMARK INTER + INTRA:          -4.779
REMARK INTER:                  -4.600
REMARK INTRA:                  -0.179
REMARK UNBOUND:                -0.180
REMARK  Name = /home/anacleto/Desktop/manuscript_Mpro/naturecomm/supplementary_file_S2/6-chemical-library/molecular_docking/3D_ligand_structure/934.pdb
REMARK  1 active torsions:
REMARK  status: ('A' for Active; 'I' for Inactive)
REMARK    1  A    between atoms: N2_8  and  C6_9
REMARK                            x       y       z     vdW  Elec       q    Type
REMARK                         _______ _______ _______ _____ _____    ______ ____
ROOT
ATOM      1  C1  UNL     1      14.979  12.512  -5.835  0.00  0.00    +0.000 C 
ATOM      2  C2  UNL     1      14.206  11.763  -6.914  0.00  0.00    +0.000 C 
ATOM      3  C3  UNL     1      13.123  11.044  -6.121  0.00  0.00    +0.000 C 
ATOM      4  C4  UNL     1      13.852  10.640  -4.848  0.00  0.00    +0.000 C 
ATOM      5  N1  UNL     1      14.832  11.694  -4.640  0.00  0.00    +0.000 N 
ATOM      6  C5  UNL     1      15.540  11.760  -3.456  0.00  0.00    +0.000 C 
ATOM      7  O1  UNL     1      15.379  10.916  -2.580  0.00  0.00    +0.000 OA
ATOM      8  N2  UNL     1      16.401  12.830  -3.376  0.00  0.00    +0.000 N 
ATOM      9  H9  UNL     1      16.305  13.526  -4.097  0.00  0.00    +0.000 HD
ENDROOT
BRANCH   8  10
ATOM     10  C6  UNL     1      17.305  13.133  -2.335  0.00  0.00    +0.000 A 
ATOM     11  C7  UNL     1      18.615  12.668  -2.263  0.00  0.00    +0.000 A 
ATOM     12  C8  UNL     1      19.425  13.038  -1.188  0.00  0.00    +0.000 A 
ATOM     13  C9  UNL     1      18.898  13.869  -0.215  0.00  0.00    +0.000 A 
ATOM     14  N3  UNL     1      17.637  14.348  -0.246  0.00  0.00    +0.000 NA
ATOM     15  C10 UNL     1      16.877  13.968  -1.302  0.00  0.00    +0.000 A 
ENDBRANCH   8  10
TORSDOF 1
ENDMDL
MODEL 9
REMARK VINA RESULT:    -4.264      4.407      6.592
REMARK INTER + INTRA:          -4.692
REMARK INTER:                  -4.513
REMARK INTRA:                  -0.180
REMARK UNBOUND:                -0.180
REMARK  Name = /home/anacleto/Desktop/manuscript_Mpro/naturecomm/supplementary_file_S2/6-chemical-library/molecular_docking/3D_ligand_structure/934.pdb
REMARK  1 active torsions:
REMARK  status: ('A' for Active; 'I' for Inactive)
REMARK    1  A    between atoms: N2_8  and  C6_9
REMARK                            x       y       z     vdW  Elec       q    Type
REMARK                         _______ _______ _______ _____ _____    ______ ____
ROOT
ATOM      1  C1  UNL     1      19.372   7.276   9.787  0.00  0.00    +0.000 C 
ATOM      2  C2  UNL     1      20.525   7.634   8.859  0.00  0.00    +0.000 C 
ATOM      3  C3  UNL     1      21.616   6.657   9.278  0.00  0.00    +0.000 C 
ATOM      4  C4  UNL     1      21.438   6.583  10.787  0.00  0.00    +0.000 C 
ATOM      5  N1  UNL     1      20.011   6.772  10.993  0.00  0.00    +0.000 N 
ATOM      6  C5  UNL     1      19.456   6.559  12.241  0.00  0.00    +0.000 C 
ATOM      7  O1  UNL     1      20.159   6.242  13.195  0.00  0.00    +0.000 OA
ATOM      8  N2  UNL     1      18.092   6.732  12.285  0.00  0.00    +0.000 N 
ATOM      9  H9  UNL     1      17.632   6.828  11.394  0.00  0.00    +0.000 HD
ENDROOT
BRANCH   8  10
ATOM     10  C6  UNL     1      17.250   6.656  13.415  0.00  0.00    +0.000 A 
ATOM     11  C7  UNL     1      16.980   7.717  14.275  0.00  0.00    +0.000 A 
ATOM     12  C8  UNL     1      16.123   7.531  15.361  0.00  0.00    +0.000 A 
ATOM     13  C9  UNL     1      15.556   6.283  15.552  0.00  0.00    +0.000 A 
ATOM     14  N3  UNL     1      15.784   5.228  14.742  0.00  0.00    +0.000 NA
ATOM     15  C10 UNL     1      16.622   5.443  13.699  0.00  0.00    +0.000 A 
ENDBRANCH   8  10
TORSDOF 1
ENDMDL
