MODEL 1
REMARK VINA RESULT:    -5.304      0.000      0.000
REMARK INTER + INTRA:          -6.632
REMARK INTER:                  -6.349
REMARK INTRA:                  -0.283
REMARK UNBOUND:                -0.398
REMARK  Name = /home/anacleto/Desktop/manuscript_Mpro/naturecomm/supplementary_file_S2/6-chemical-library/molecular_docking/3D_ligand_structure/684.pdb
REMARK  3 active torsions:
REMARK  status: ('A' for Active; 'I' for Inactive)
REMARK    1  A    between atoms: C6_6  and  C7_7
REMARK    2  A    between atoms: N1_9  and  C8_10
REMARK    3  A    between atoms: C8_10  and  C9_11
REMARK                            x       y       z     vdW  Elec       q    Type
REMARK                         _______ _______ _______ _____ _____    ______ ____
ROOT
ATOM      1  C7  UNL     1      17.669   2.773   9.195  0.00  0.00    +0.000 C 
ATOM      2  O1  UNL     1      18.681   2.141   9.476  0.00  0.00    +0.000 OA
ATOM      3  N1  UNL     1      17.602   4.151   9.214  0.00  0.00    +0.000 N 
ATOM      4  H6  UNL     1      16.704   4.605   9.133  0.00  0.00    +0.000 HD
ENDROOT
BRANCH   1  10
ATOM      5  C1  UNL     1      15.198   2.331   9.499  0.00  0.00    +0.000 A 
ATOM      6  C2  UNL     1      14.042   1.632   9.143  0.00  0.00    +0.000 A 
ATOM      7  C3  UNL     1      14.091   0.665   8.139  0.00  0.00    +0.000 A 
ATOM      8  C4  UNL     1      15.291   0.399   7.482  0.00  0.00    +0.000 A 
ATOM      9  C5  UNL     1      16.448   1.097   7.834  0.00  0.00    +0.000 A 
ATOM     10  C6  UNL     1      16.410   2.056   8.853  0.00  0.00    +0.000 A 
ENDBRANCH   1  10
BRANCH   3  11
ATOM     11  C8  UNL     1      18.744   4.972   9.569  0.00  0.00    +0.000 C 
BRANCH  11  12
ATOM     12  C9  UNL     1      19.413   5.612   8.338  0.00  0.00    +0.000 C 
ATOM     13  C10 UNL     1      20.924   5.328   8.333  0.00  0.00    +0.000 C 
ATOM     14  C11 UNL     1      21.669   6.187   9.349  0.00  0.00    +0.000 C 
ATOM     15  O2  UNL     1      21.407   7.571   9.127  0.00  0.00    +0.000 OA
ATOM     16  C12 UNL     1      20.022   7.890   9.272  0.00  0.00    +0.000 C 
ATOM     17  C13 UNL     1      19.193   7.131   8.243  0.00  0.00    +0.000 C 
ENDBRANCH  11  12
ENDBRANCH   3  11
TORSDOF 3
ENDMDL
MODEL 2
REMARK VINA RESULT:    -5.087      1.771      6.765
REMARK INTER + INTRA:          -6.377
REMARK INTER:                  -6.043
REMARK INTRA:                  -0.335
REMARK UNBOUND:                -0.398
REMARK  Name = /home/anacleto/Desktop/manuscript_Mpro/naturecomm/supplementary_file_S2/6-chemical-library/molecular_docking/3D_ligand_structure/684.pdb
REMARK  3 active torsions:
REMARK  status: ('A' for Active; 'I' for Inactive)
REMARK    1  A    between atoms: C6_6  and  C7_7
REMARK    2  A    between atoms: N1_9  and  C8_10
REMARK    3  A    between atoms: C8_10  and  C9_11
REMARK                            x       y       z     vdW  Elec       q    Type
REMARK                         _______ _______ _______ _____ _____    ______ ____
ROOT
ATOM      1  C7  UNL     1      18.141   3.804   8.991  0.00  0.00    +0.000 C 
ATOM      2  O1  UNL     1      18.745   2.805   9.364  0.00  0.00    +0.000 OA
ATOM      3  N1  UNL     1      16.938   3.761   8.317  0.00  0.00    +0.000 N 
ATOM      4  H6  UNL     1      16.575   4.604   7.896  0.00  0.00    +0.000 HD
ENDROOT
BRANCH   1  10
ATOM      5  C1  UNL     1      19.029   6.021   8.160  0.00  0.00    +0.000 A 
ATOM      6  C2  UNL     1      19.572   7.282   8.423  0.00  0.00    +0.000 A 
ATOM      7  C3  UNL     1      19.801   7.684   9.739  0.00  0.00    +0.000 A 
ATOM      8  C4  UNL     1      19.482   6.834  10.796  0.00  0.00    +0.000 A 
ATOM      9  C5  UNL     1      18.937   5.574  10.537  0.00  0.00    +0.000 A 
ATOM     10  C6  UNL     1      18.722   5.157   9.218  0.00  0.00    +0.000 A 
ENDBRANCH   1  10
BRANCH   3  11
ATOM     11  C8  UNL     1      16.282   2.508   7.995  0.00  0.00    +0.000 C 
BRANCH  11  12
ATOM     12  C9  UNL     1      15.099   2.206   8.934  0.00  0.00    +0.000 C 
ATOM     13  C10 UNL     1      15.580   1.454  10.187  0.00  0.00    +0.000 C 
ATOM     14  C11 UNL     1      15.889  -0.010   9.889  0.00  0.00    +0.000 C 
ATOM     15  O2  UNL     1      14.758  -0.654   9.306  0.00  0.00    +0.000 OA
ATOM     16  C12 UNL     1      14.380  -0.064   8.060  0.00  0.00    +0.000 C 
ATOM     17  C13 UNL     1      13.980   1.392   8.265  0.00  0.00    +0.000 C 
ENDBRANCH  11  12
ENDBRANCH   3  11
TORSDOF 3
ENDMDL
MODEL 3
REMARK VINA RESULT:    -4.925      1.821      6.616
REMARK INTER + INTRA:          -6.187
REMARK INTER:                  -5.783
REMARK INTRA:                  -0.404
REMARK UNBOUND:                -0.398
REMARK  Name = /home/anacleto/Desktop/manuscript_Mpro/naturecomm/supplementary_file_S2/6-chemical-library/molecular_docking/3D_ligand_structure/684.pdb
REMARK  3 active torsions:
REMARK  status: ('A' for Active; 'I' for Inactive)
REMARK    1  A    between atoms: C6_6  and  C7_7
REMARK    2  A    between atoms: N1_9  and  C8_10
REMARK    3  A    between atoms: C8_10  and  C9_11
REMARK                            x       y       z     vdW  Elec       q    Type
REMARK                         _______ _______ _______ _____ _____    ______ ____
ROOT
ATOM      1  C7  UNL     1      17.848   4.327   9.577  0.00  0.00    +0.000 C 
ATOM      2  O1  UNL     1      17.510   3.975  10.701  0.00  0.00    +0.000 OA
ATOM      3  N1  UNL     1      17.211   3.913   8.425  0.00  0.00    +0.000 N 
ATOM      4  H6  UNL     1      17.634   4.106   7.528  0.00  0.00    +0.000 HD
ENDROOT
BRANCH   1  10
ATOM      5  C1  UNL     1      18.995   6.577   9.714  0.00  0.00    +0.000 A 
ATOM      6  C2  UNL     1      20.131   7.368   9.526  0.00  0.00    +0.000 A 
ATOM      7  C3  UNL     1      21.305   6.800   9.029  0.00  0.00    +0.000 A 
ATOM      8  C4  UNL     1      21.350   5.441   8.725  0.00  0.00    +0.000 A 
ATOM      9  C5  UNL     1      20.217   4.646   8.913  0.00  0.00    +0.000 A 
ATOM     10  C6  UNL     1      19.031   5.214   9.395  0.00  0.00    +0.000 A 
ENDBRANCH   1  10
BRANCH   3  11
ATOM     11  C8  UNL     1      16.071   3.018   8.455  0.00  0.00    +0.000 C 
BRANCH  11  12
ATOM     12  C9  UNL     1      16.395   1.633   7.862  0.00  0.00    +0.000 C 
ATOM     13  C10 UNL     1      15.111   0.808   7.678  0.00  0.00    +0.000 C 
ATOM     14  C11 UNL     1      14.588   0.264   9.004  0.00  0.00    +0.000 C 
ATOM     15  O2  UNL     1      15.596  -0.496   9.667  0.00  0.00    +0.000 OA
ATOM     16  C12 UNL     1      16.747   0.290   9.984  0.00  0.00    +0.000 C 
ATOM     17  C13 UNL     1      17.390   0.823   8.709  0.00  0.00    +0.000 C 
ENDBRANCH  11  12
ENDBRANCH   3  11
TORSDOF 3
ENDMDL
MODEL 4
REMARK VINA RESULT:    -4.880     13.713     15.336
REMARK INTER + INTRA:          -6.133
REMARK INTER:                  -5.707
REMARK INTRA:                  -0.426
REMARK UNBOUND:                -0.398
REMARK  Name = /home/anacleto/Desktop/manuscript_Mpro/naturecomm/supplementary_file_S2/6-chemical-library/molecular_docking/3D_ligand_structure/684.pdb
REMARK  3 active torsions:
REMARK  status: ('A' for Active; 'I' for Inactive)
REMARK    1  A    between atoms: C6_6  and  C7_7
REMARK    2  A    between atoms: N1_9  and  C8_10
REMARK    3  A    between atoms: C8_10  and  C9_11
REMARK                            x       y       z     vdW  Elec       q    Type
REMARK                         _______ _______ _______ _____ _____    ______ ____
ROOT
ATOM      1  C7  UNL     1      16.371  12.823  -4.432  0.00  0.00    +0.000 C 
ATOM      2  O1  UNL     1      17.520  12.882  -4.853  0.00  0.00    +0.000 OA
ATOM      3  N1  UNL     1      15.964  13.399  -3.246  0.00  0.00    +0.000 N 
ATOM      4  H6  UNL     1      15.050  13.178  -2.875  0.00  0.00    +0.000 HD
ENDROOT
BRANCH   1  10
ATOM      5  C1  UNL     1      15.251  12.108  -6.583  0.00  0.00    +0.000 A 
ATOM      6  C2  UNL     1      14.262  11.377  -7.247  0.00  0.00    +0.000 A 
ATOM      7  C3  UNL     1      13.363  10.596  -6.520  0.00  0.00    +0.000 A 
ATOM      8  C4  UNL     1      13.454  10.536  -5.130  0.00  0.00    +0.000 A 
ATOM      9  C5  UNL     1      14.442  11.264  -4.464  0.00  0.00    +0.000 A 
ATOM     10  C6  UNL     1      15.335  12.063  -5.186  0.00  0.00    +0.000 A 
ENDBRANCH   1  10
BRANCH   3  11
ATOM     11  C8  UNL     1      16.878  14.133  -2.393  0.00  0.00    +0.000 C 
BRANCH  11  12
ATOM     12  C9  UNL     1      16.890  13.600  -0.947  0.00  0.00    +0.000 C 
ATOM     13  C10 UNL     1      18.182  14.020  -0.226  0.00  0.00    +0.000 C 
ATOM     14  C11 UNL     1      19.382  13.196  -0.680  0.00  0.00    +0.000 C 
ATOM     15  O2  UNL     1      19.129  11.802  -0.510  0.00  0.00    +0.000 OA
ATOM     16  C12 UNL     1      18.018  11.354  -1.290  0.00  0.00    +0.000 C 
ATOM     17  C13 UNL     1      16.745  12.072  -0.858  0.00  0.00    +0.000 C 
ENDBRANCH  11  12
ENDBRANCH   3  11
TORSDOF 3
ENDMDL
MODEL 5
REMARK VINA RESULT:    -4.845     13.793     16.119
REMARK INTER + INTRA:          -6.093
REMARK INTER:                  -5.856
REMARK INTRA:                  -0.237
REMARK UNBOUND:                -0.398
REMARK  Name = /home/anacleto/Desktop/manuscript_Mpro/naturecomm/supplementary_file_S2/6-chemical-library/molecular_docking/3D_ligand_structure/684.pdb
REMARK  3 active torsions:
REMARK  status: ('A' for Active; 'I' for Inactive)
REMARK    1  A    between atoms: C6_6  and  C7_7
REMARK    2  A    between atoms: N1_9  and  C8_10
REMARK    3  A    between atoms: C8_10  and  C9_11
REMARK                            x       y       z     vdW  Elec       q    Type
REMARK                         _______ _______ _______ _____ _____    ______ ____
ROOT
ATOM      1  C7  UNL     1      16.226  12.170  -1.787  0.00  0.00    +0.000 C 
ATOM      2  O1  UNL     1      15.801  11.168  -1.223  0.00  0.00    +0.000 OA
ATOM      3  N1  UNL     1      15.861  12.538  -3.066  0.00  0.00    +0.000 N 
ATOM      4  H6  UNL     1      16.366  13.278  -3.532  0.00  0.00    +0.000 HD
ENDROOT
BRANCH   1  10
ATOM      5  C1  UNL     1      16.902  14.321  -0.641  0.00  0.00    +0.000 A 
ATOM      6  C2  UNL     1      17.874  15.101  -0.011  0.00  0.00    +0.000 A 
ATOM      7  C3  UNL     1      19.168  14.606   0.158  0.00  0.00    +0.000 A 
ATOM      8  C4  UNL     1      19.491  13.327  -0.292  0.00  0.00    +0.000 A 
ATOM      9  C5  UNL     1      18.521  12.543  -0.921  0.00  0.00    +0.000 A 
ATOM     10  C6  UNL     1      17.227  13.042  -1.110  0.00  0.00    +0.000 A 
ENDBRANCH   1  10
BRANCH   3  11
ATOM     11  C8  UNL     1      14.927  11.757  -3.854  0.00  0.00    +0.000 C 
BRANCH  11  12
ATOM     12  C9  UNL     1      14.225  12.599  -4.937  0.00  0.00    +0.000 C 
ATOM     13  C10 UNL     1      12.985  11.864  -5.475  0.00  0.00    +0.000 C 
ATOM     14  C11 UNL     1      13.362  10.725  -6.417  0.00  0.00    +0.000 C 
ATOM     15  O2  UNL     1      14.179  11.203  -7.483  0.00  0.00    +0.000 OA
ATOM     16  C12 UNL     1      15.410  11.760  -7.016  0.00  0.00    +0.000 C 
ATOM     17  C13 UNL     1      15.140  12.961  -6.118  0.00  0.00    +0.000 C 
ENDBRANCH  11  12
ENDBRANCH   3  11
TORSDOF 3
ENDMDL
MODEL 6
REMARK VINA RESULT:    -4.838     13.593     14.937
REMARK INTER + INTRA:          -6.085
REMARK INTER:                  -5.637
REMARK INTRA:                  -0.448
REMARK UNBOUND:                -0.398
REMARK  Name = /home/anacleto/Desktop/manuscript_Mpro/naturecomm/supplementary_file_S2/6-chemical-library/molecular_docking/3D_ligand_structure/684.pdb
REMARK  3 active torsions:
REMARK  status: ('A' for Active; 'I' for Inactive)
REMARK    1  A    between atoms: C6_6  and  C7_7
REMARK    2  A    between atoms: N1_9  and  C8_10
REMARK    3  A    between atoms: C8_10  and  C9_11
REMARK                            x       y       z     vdW  Elec       q    Type
REMARK                         _______ _______ _______ _____ _____    ______ ____
ROOT
ATOM      1  C7  UNL     1      25.446  15.923   9.430  0.00  0.00    +0.000 C 
ATOM      2  O1  UNL     1      25.366  17.145   9.479  0.00  0.00    +0.000 OA
ATOM      3  N1  UNL     1      24.510  15.075   9.984  0.00  0.00    +0.000 N 
ATOM      4  H6  UNL     1      24.713  14.088  10.053  0.00  0.00    +0.000 HD
ENDROOT
BRANCH   1  10
ATOM      5  C1  UNL     1      27.398  15.933   7.821  0.00  0.00    +0.000 A 
ATOM      6  C2  UNL     1      28.492  15.285   7.244  0.00  0.00    +0.000 A 
ATOM      7  C3  UNL     1      28.820  13.985   7.632  0.00  0.00    +0.000 A 
ATOM      8  C4  UNL     1      28.061  13.333   8.602  0.00  0.00    +0.000 A 
ATOM      9  C5  UNL     1      26.967  13.978   9.182  0.00  0.00    +0.000 A 
ATOM     10  C6  UNL     1      26.622  15.276   8.784  0.00  0.00    +0.000 A 
ENDBRANCH   1  10
BRANCH   3  11
ATOM     11  C8  UNL     1      23.337  15.572  10.677  0.00  0.00    +0.000 C 
BRANCH  11  12
ATOM     12  C9  UNL     1      23.264  15.081  12.136  0.00  0.00    +0.000 C 
ATOM     13  C10 UNL     1      22.098  15.756  12.878  0.00  0.00    +0.000 C 
ATOM     14  C11 UNL     1      22.415  17.202  13.241  0.00  0.00    +0.000 C 
ATOM     15  O2  UNL     1      23.619  17.277  14.002  0.00  0.00    +0.000 OA
ATOM     16  C12 UNL     1      24.750  16.790  13.276  0.00  0.00    +0.000 C 
ATOM     17  C13 UNL     1      24.561  15.319  12.927  0.00  0.00    +0.000 C 
ENDBRANCH  11  12
ENDBRANCH   3  11
TORSDOF 3
ENDMDL
MODEL 7
REMARK VINA RESULT:    -4.766     13.822     15.184
REMARK INTER + INTRA:          -6.000
REMARK INTER:                  -5.626
REMARK INTRA:                  -0.374
REMARK UNBOUND:                -0.398
REMARK  Name = /home/anacleto/Desktop/manuscript_Mpro/naturecomm/supplementary_file_S2/6-chemical-library/molecular_docking/3D_ligand_structure/684.pdb
REMARK  3 active torsions:
REMARK  status: ('A' for Active; 'I' for Inactive)
REMARK    1  A    between atoms: C6_6  and  C7_7
REMARK    2  A    between atoms: N1_9  and  C8_10
REMARK    3  A    between atoms: C8_10  and  C9_11
REMARK                            x       y       z     vdW  Elec       q    Type
REMARK                         _______ _______ _______ _____ _____    ______ ____
ROOT
ATOM      1  C7  UNL     1      17.056  11.478  -4.357  0.00  0.00    +0.000 C 
ATOM      2  O1  UNL     1      17.892  10.582  -4.368  0.00  0.00    +0.000 OA
ATOM      3  N1  UNL     1      17.218  12.663  -3.670  0.00  0.00    +0.000 N 
ATOM      4  H6  UNL     1      16.431  13.288  -3.566  0.00  0.00    +0.000 HD
ENDROOT
BRANCH   1  10
ATOM      5  C1  UNL     1      14.589  10.922  -4.409  0.00  0.00    +0.000 A 
ATOM      6  C2  UNL     1      13.399  10.770  -5.125  0.00  0.00    +0.000 A 
ATOM      7  C3  UNL     1      13.375  11.004  -6.500  0.00  0.00    +0.000 A 
ATOM      8  C4  UNL     1      14.536  11.399  -7.163  0.00  0.00    +0.000 A 
ATOM      9  C5  UNL     1      15.727  11.553  -6.450  0.00  0.00    +0.000 A 
ATOM     10  C6  UNL     1      15.762  11.302  -5.074  0.00  0.00    +0.000 A 
ENDBRANCH   1  10
BRANCH   3  11
ATOM     11  C8  UNL     1      18.411  12.948  -2.897  0.00  0.00    +0.000 C 
BRANCH  11  12
ATOM     12  C9  UNL     1      18.245  12.596  -1.406  0.00  0.00    +0.000 C 
ATOM     13  C10 UNL     1      16.864  13.040  -0.896  0.00  0.00    +0.000 C 
ATOM     14  C11 UNL     1      16.793  14.549  -0.684  0.00  0.00    +0.000 C 
ATOM     15  O2  UNL     1      17.829  14.983   0.195  0.00  0.00    +0.000 OA
ATOM     16  C12 UNL     1      19.132  14.714  -0.328  0.00  0.00    +0.000 C 
ATOM     17  C13 UNL     1      19.329  13.213  -0.508  0.00  0.00    +0.000 C 
ENDBRANCH  11  12
ENDBRANCH   3  11
TORSDOF 3
ENDMDL
MODEL 8
REMARK VINA RESULT:    -4.676     13.571     15.892
REMARK INTER + INTRA:          -5.894
REMARK INTER:                  -5.538
REMARK INTRA:                  -0.357
REMARK UNBOUND:                -0.398
REMARK  Name = /home/anacleto/Desktop/manuscript_Mpro/naturecomm/supplementary_file_S2/6-chemical-library/molecular_docking/3D_ligand_structure/684.pdb
REMARK  3 active torsions:
REMARK  status: ('A' for Active; 'I' for Inactive)
REMARK    1  A    between atoms: C6_6  and  C7_7
REMARK    2  A    between atoms: N1_9  and  C8_10
REMARK    3  A    between atoms: C8_10  and  C9_11
REMARK                            x       y       z     vdW  Elec       q    Type
REMARK                         _______ _______ _______ _____ _____    ______ ____
ROOT
ATOM      1  C7  UNL     1      16.605  12.698  -1.204  0.00  0.00    +0.000 C 
ATOM      2  O1  UNL     1      16.381  11.601  -0.705  0.00  0.00    +0.000 OA
ATOM      3  N1  UNL     1      15.973  13.162  -2.339  0.00  0.00    +0.000 N 
ATOM      4  H6  UNL     1      16.316  13.999  -2.790  0.00  0.00    +0.000 HD
ENDROOT
BRANCH   1  10
ATOM      5  C1  UNL     1      18.971  13.191  -0.459  0.00  0.00    +0.000 A 
ATOM      6  C2  UNL     1      19.905  14.066   0.102  0.00  0.00    +0.000 A 
ATOM      7  C3  UNL     1      19.512  15.343   0.505  0.00  0.00    +0.000 A 
ATOM      8  C4  UNL     1      18.190  15.753   0.341  0.00  0.00    +0.000 A 
ATOM      9  C5  UNL     1      17.255  14.882  -0.221  0.00  0.00    +0.000 A 
ATOM     10  C6  UNL     1      17.638  13.593  -0.611  0.00  0.00    +0.000 A 
ENDBRANCH   1  10
BRANCH   3  11
ATOM     11  C8  UNL     1      14.976  12.377  -3.040  0.00  0.00    +0.000 C 
BRANCH  11  12
ATOM     12  C9  UNL     1      15.573  11.585  -4.219  0.00  0.00    +0.000 C 
ATOM     13  C10 UNL     1      16.451  12.496  -5.094  0.00  0.00    +0.000 C 
ATOM     14  C11 UNL     1      15.615  13.424  -5.969  0.00  0.00    +0.000 C 
ATOM     15  O2  UNL     1      14.699  12.674  -6.765  0.00  0.00    +0.000 OA
ATOM     16  C12 UNL     1      13.772  11.931  -5.971  0.00  0.00    +0.000 C 
ATOM     17  C13 UNL     1      14.512  10.916  -5.107  0.00  0.00    +0.000 C 
ENDBRANCH  11  12
ENDBRANCH   3  11
TORSDOF 3
ENDMDL
MODEL 9
REMARK VINA RESULT:    -4.414     15.115     16.095
REMARK INTER + INTRA:          -5.586
REMARK INTER:                  -5.188
REMARK INTRA:                  -0.398
REMARK UNBOUND:                -0.398
REMARK  Name = /home/anacleto/Desktop/manuscript_Mpro/naturecomm/supplementary_file_S2/6-chemical-library/molecular_docking/3D_ligand_structure/684.pdb
REMARK  3 active torsions:
REMARK  status: ('A' for Active; 'I' for Inactive)
REMARK    1  A    between atoms: C6_6  and  C7_7
REMARK    2  A    between atoms: N1_9  and  C8_10
REMARK    3  A    between atoms: C8_10  and  C9_11
REMARK                            x       y       z     vdW  Elec       q    Type
REMARK                         _______ _______ _______ _____ _____    ______ ____
ROOT
ATOM      1  C7  UNL     1      16.203  12.973  -4.039  0.00  0.00    +0.000 C 
ATOM      2  O1  UNL     1      17.218  13.457  -4.527  0.00  0.00    +0.000 OA
ATOM      3  N1  UNL     1      15.881  13.068  -2.701  0.00  0.00    +0.000 N 
ATOM      4  H6  UNL     1      15.121  12.514  -2.332  0.00  0.00    +0.000 HD
ENDROOT
BRANCH   1  10
ATOM      5  C1  UNL     1      15.207  12.357  -6.280  0.00  0.00    +0.000 A 
ATOM      6  C2  UNL     1      14.306  11.604  -7.037  0.00  0.00    +0.000 A 
ATOM      7  C3  UNL     1      13.464  10.684  -6.411  0.00  0.00    +0.000 A 
ATOM      8  C4  UNL     1      13.525  10.508  -5.030  0.00  0.00    +0.000 A 
ATOM      9  C5  UNL     1      14.426  11.258  -4.270  0.00  0.00    +0.000 A 
ATOM     10  C6  UNL     1      15.260  12.195  -4.891  0.00  0.00    +0.000 A 
ENDBRANCH   1  10
BRANCH   3  11
ATOM     11  C8  UNL     1      16.731  13.762  -1.753  0.00  0.00    +0.000 C 
BRANCH  11  12
ATOM     12  C9  UNL     1      15.971  14.849  -0.968  0.00  0.00    +0.000 C 
ATOM     13  C10 UNL     1      15.301  15.844  -1.931  0.00  0.00    +0.000 C 
ATOM     14  C11 UNL     1      16.309  16.807  -2.549  0.00  0.00    +0.000 C 
ATOM     15  O2  UNL     1      17.040  17.490  -1.532  0.00  0.00    +0.000 OA
ATOM     16  C12 UNL     1      17.794  16.595  -0.711  0.00  0.00    +0.000 C 
ATOM     17  C13 UNL     1      16.862  15.630   0.012  0.00  0.00    +0.000 C 
ENDBRANCH  11  12
ENDBRANCH   3  11
TORSDOF 3
ENDMDL
