MODEL 1
REMARK VINA RESULT:    -3.793      0.000      0.000
REMARK INTER + INTRA:          -3.793
REMARK INTER:                  -3.793
REMARK INTRA:                   0.000
REMARK UNBOUND:                 0.000
REMARK  Name = /home/anacleto/Desktop/manuscript_Mpro/naturecomm/supplementary_file_S2/6-chemical-library/molecular_docking/3D_ligand_structure/258.pdb
REMARK  0 active torsions:
REMARK  status: ('A' for Active; 'I' for Inactive)
REMARK                            x       y       z     vdW  Elec       q    Type
REMARK                         _______ _______ _______ _____ _____    ______ ____
ROOT
ATOM      1  C1  UNL     1      14.269  11.281  -7.249  0.00  0.00    +0.000 A 
ATOM      2  C2  UNL     1      13.179  10.933  -6.463  0.00  0.00    +0.000 A 
ATOM      3  N1  UNL     1      13.246  10.723  -5.132  0.00  0.00    +0.000 NA
ATOM      4  C3  UNL     1      14.462  10.868  -4.556  0.00  0.00    +0.000 A 
ATOM      5  C4  UNL     1      15.621  11.215  -5.252  0.00  0.00    +0.000 A 
ATOM      6  C5  UNL     1      15.519  11.427  -6.636  0.00  0.00    +0.000 A 
ATOM      7  C6  UNL     1      16.877  11.365  -4.658  0.00  0.00    +0.000 A 
ATOM      8  N2  UNL     1      18.000  11.702  -5.332  0.00  0.00    +0.000 NA
ATOM      9  C7  UNL     1      17.871  11.899  -6.661  0.00  0.00    +0.000 A 
ATOM     10  C8  UNL     1      16.672  11.777  -7.351  0.00  0.00    +0.000 A 
ENDROOT
TORSDOF 0
ENDMDL
MODEL 2
REMARK VINA RESULT:    -3.778      0.113      3.426
REMARK INTER + INTRA:          -3.778
REMARK INTER:                  -3.778
REMARK INTRA:                   0.000
REMARK UNBOUND:                 0.000
REMARK  Name = /home/anacleto/Desktop/manuscript_Mpro/naturecomm/supplementary_file_S2/6-chemical-library/molecular_docking/3D_ligand_structure/258.pdb
REMARK  0 active torsions:
REMARK  status: ('A' for Active; 'I' for Inactive)
REMARK                            x       y       z     vdW  Elec       q    Type
REMARK                         _______ _______ _______ _____ _____    ______ ____
ROOT
ATOM      1  C1  UNL     1      16.664  11.807  -7.411  0.00  0.00    +0.000 A 
ATOM      2  C2  UNL     1      17.881  11.975  -6.767  0.00  0.00    +0.000 A 
ATOM      3  N1  UNL     1      18.060  11.817  -5.439  0.00  0.00    +0.000 NA
ATOM      4  C3  UNL     1      16.968  11.472  -4.718  0.00  0.00    +0.000 A 
ATOM      5  C4  UNL     1      15.698  11.279  -5.264  0.00  0.00    +0.000 A 
ATOM      6  C5  UNL     1      15.545  11.451  -6.649  0.00  0.00    +0.000 A 
ATOM      7  C6  UNL     1      14.571  10.924  -4.519  0.00  0.00    +0.000 A 
ATOM      8  N2  UNL     1      13.341  10.735  -5.050  0.00  0.00    +0.000 NA
ATOM      9  C7  UNL     1      13.224  10.908  -6.383  0.00  0.00    +0.000 A 
ATOM     10  C8  UNL     1      14.277  11.260  -7.215  0.00  0.00    +0.000 A 
ENDROOT
TORSDOF 0
ENDMDL
MODEL 3
REMARK VINA RESULT:    -3.775      1.575      3.258
REMARK INTER + INTRA:          -3.775
REMARK INTER:                  -3.775
REMARK INTRA:                   0.000
REMARK UNBOUND:                 0.000
REMARK  Name = /home/anacleto/Desktop/manuscript_Mpro/naturecomm/supplementary_file_S2/6-chemical-library/molecular_docking/3D_ligand_structure/258.pdb
REMARK  0 active torsions:
REMARK  status: ('A' for Active; 'I' for Inactive)
REMARK                            x       y       z     vdW  Elec       q    Type
REMARK                         _______ _______ _______ _____ _____    ______ ____
ROOT
ATOM      1  C1  UNL     1      17.547  10.594  -5.135  0.00  0.00    +0.000 A 
ATOM      2  C2  UNL     1      17.762  10.221  -3.816  0.00  0.00    +0.000 A 
ATOM      3  N1  UNL     1      16.837  10.332  -2.840  0.00  0.00    +0.000 NA
ATOM      4  C3  UNL     1      15.636  10.841  -3.200  0.00  0.00    +0.000 A 
ATOM      5  C4  UNL     1      15.314  11.249  -4.496  0.00  0.00    +0.000 A 
ATOM      6  C5  UNL     1      16.299  11.120  -5.489  0.00  0.00    +0.000 A 
ATOM      7  C6  UNL     1      14.075  11.775  -4.867  0.00  0.00    +0.000 A 
ATOM      8  N2  UNL     1      13.764  12.168  -6.124  0.00  0.00    +0.000 NA
ATOM      9  C7  UNL     1      14.730  12.033  -7.057  0.00  0.00    +0.000 A 
ATOM     10  C8  UNL     1      15.994  11.522  -6.796  0.00  0.00    +0.000 A 
ENDROOT
TORSDOF 0
ENDMDL
MODEL 4
REMARK VINA RESULT:    -3.708     15.952     16.937
REMARK INTER + INTRA:          -3.708
REMARK INTER:                  -3.708
REMARK INTRA:                   0.000
REMARK UNBOUND:                 0.000
REMARK  Name = /home/anacleto/Desktop/manuscript_Mpro/naturecomm/supplementary_file_S2/6-chemical-library/molecular_docking/3D_ligand_structure/258.pdb
REMARK  0 active torsions:
REMARK  status: ('A' for Active; 'I' for Inactive)
REMARK                            x       y       z     vdW  Elec       q    Type
REMARK                         _______ _______ _______ _____ _____    ______ ____
ROOT
ATOM      1  C1  UNL     1      18.227   4.557   8.965  0.00  0.00    +0.000 A 
ATOM      2  C2  UNL     1      18.577   3.250   9.270  0.00  0.00    +0.000 A 
ATOM      3  N1  UNL     1      19.825   2.862   9.607  0.00  0.00    +0.000 NA
ATOM      4  C3  UNL     1      20.771   3.829   9.641  0.00  0.00    +0.000 A 
ATOM      5  C4  UNL     1      20.528   5.173   9.351  0.00  0.00    +0.000 A 
ATOM      6  C5  UNL     1      19.219   5.544   9.004  0.00  0.00    +0.000 A 
ATOM      7  C6  UNL     1      21.504   6.171   9.386  0.00  0.00    +0.000 A 
ATOM      8  N2  UNL     1      21.267   7.473   9.106  0.00  0.00    +0.000 NA
ATOM      9  C7  UNL     1      20.000   7.800   8.775  0.00  0.00    +0.000 A 
ATOM     10  C8  UNL     1      18.955   6.889   8.711  0.00  0.00    +0.000 A 
ENDROOT
TORSDOF 0
ENDMDL
MODEL 5
REMARK VINA RESULT:    -3.631     16.723     18.252
REMARK INTER + INTRA:          -3.631
REMARK INTER:                  -3.631
REMARK INTRA:                   0.000
REMARK UNBOUND:                 0.000
REMARK  Name = /home/anacleto/Desktop/manuscript_Mpro/naturecomm/supplementary_file_S2/6-chemical-library/molecular_docking/3D_ligand_structure/258.pdb
REMARK  0 active torsions:
REMARK  status: ('A' for Active; 'I' for Inactive)
REMARK                            x       y       z     vdW  Elec       q    Type
REMARK                         _______ _______ _______ _____ _____    ______ ____
ROOT
ATOM      1  C1  UNL     1      15.723   1.736   7.723  0.00  0.00    +0.000 A 
ATOM      2  C2  UNL     1      16.595   2.756   8.074  0.00  0.00    +0.000 A 
ATOM      3  N1  UNL     1      16.508   3.460   9.222  0.00  0.00    +0.000 NA
ATOM      4  C3  UNL     1      15.499   3.128  10.061  0.00  0.00    +0.000 A 
ATOM      5  C4  UNL     1      14.567   2.121   9.806  0.00  0.00    +0.000 A 
ATOM      6  C5  UNL     1      14.684   1.406   8.603  0.00  0.00    +0.000 A 
ATOM      7  C6  UNL     1      13.526   1.779  10.671  0.00  0.00    +0.000 A 
ATOM      8  N2  UNL     1      12.624   0.802  10.423  0.00  0.00    +0.000 NA
ATOM      9  C7  UNL     1      12.761   0.132   9.259  0.00  0.00    +0.000 A 
ATOM     10  C8  UNL     1      13.759   0.391   8.330  0.00  0.00    +0.000 A 
ENDROOT
TORSDOF 0
ENDMDL
MODEL 6
REMARK VINA RESULT:    -3.590      1.246      3.757
REMARK INTER + INTRA:          -3.590
REMARK INTER:                  -3.590
REMARK INTRA:                   0.000
REMARK UNBOUND:                 0.000
REMARK  Name = /home/anacleto/Desktop/manuscript_Mpro/naturecomm/supplementary_file_S2/6-chemical-library/molecular_docking/3D_ligand_structure/258.pdb
REMARK  0 active torsions:
REMARK  status: ('A' for Active; 'I' for Inactive)
REMARK                            x       y       z     vdW  Elec       q    Type
REMARK                         _______ _______ _______ _____ _____    ______ ____
ROOT
ATOM      1  C1  UNL     1      15.598  10.953  -3.319  0.00  0.00    +0.000 A 
ATOM      2  C2  UNL     1      16.939  11.205  -3.072  0.00  0.00    +0.000 A 
ATOM      3  N1  UNL     1      17.831  11.545  -4.026  0.00  0.00    +0.000 NA
ATOM      4  C3  UNL     1      17.359  11.637  -5.291  0.00  0.00    +0.000 A 
ATOM      5  C4  UNL     1      16.030  11.404  -5.650  0.00  0.00    +0.000 A 
ATOM      6  C5  UNL     1      15.127  11.053  -4.634  0.00  0.00    +0.000 A 
ATOM      7  C6  UNL     1      15.542  11.500  -6.955  0.00  0.00    +0.000 A 
ATOM      8  N2  UNL     1      14.254  11.275  -7.302  0.00  0.00    +0.000 NA
ATOM      9  C7  UNL     1      13.409  10.939  -6.304  0.00  0.00    +0.000 A 
ATOM     10  C8  UNL     1      13.788  10.817  -4.975  0.00  0.00    +0.000 A 
ENDROOT
TORSDOF 0
ENDMDL
MODEL 7
REMARK VINA RESULT:    -3.566      5.985      7.888
REMARK INTER + INTRA:          -3.566
REMARK INTER:                  -3.566
REMARK INTRA:                   0.000
REMARK UNBOUND:                 0.000
REMARK  Name = /home/anacleto/Desktop/manuscript_Mpro/naturecomm/supplementary_file_S2/6-chemical-library/molecular_docking/3D_ligand_structure/258.pdb
REMARK  0 active torsions:
REMARK  status: ('A' for Active; 'I' for Inactive)
REMARK                            x       y       z     vdW  Elec       q    Type
REMARK                         _______ _______ _______ _____ _____    ______ ____
ROOT
ATOM      1  C1  UNL     1      20.305  14.484   0.297  0.00  0.00    +0.000 A 
ATOM      2  C2  UNL     1      20.200  15.786   0.765  0.00  0.00    +0.000 A 
ATOM      3  N1  UNL     1      19.042  16.478   0.815  0.00  0.00    +0.000 NA
ATOM      4  C3  UNL     1      17.934  15.837   0.375  0.00  0.00    +0.000 A 
ATOM      5  C4  UNL     1      17.928  14.531  -0.116  0.00  0.00    +0.000 A 
ATOM      6  C5  UNL     1      19.149  13.837  -0.154  0.00  0.00    +0.000 A 
ATOM      7  C6  UNL     1      16.785  13.869  -0.570  0.00  0.00    +0.000 A 
ATOM      8  N2  UNL     1      16.780  12.602  -1.045  0.00  0.00    +0.000 NA
ATOM      9  C7  UNL     1      17.967  11.961  -1.070  0.00  0.00    +0.000 A 
ATOM     10  C8  UNL     1      19.162  12.524  -0.643  0.00  0.00    +0.000 A 
ENDROOT
TORSDOF 0
ENDMDL
MODEL 8
REMARK VINA RESULT:    -3.565     16.539     18.004
REMARK INTER + INTRA:          -3.565
REMARK INTER:                  -3.565
REMARK INTRA:                   0.000
REMARK UNBOUND:                 0.000
REMARK  Name = /home/anacleto/Desktop/manuscript_Mpro/naturecomm/supplementary_file_S2/6-chemical-library/molecular_docking/3D_ligand_structure/258.pdb
REMARK  0 active torsions:
REMARK  status: ('A' for Active; 'I' for Inactive)
REMARK                            x       y       z     vdW  Elec       q    Type
REMARK                         _______ _______ _______ _____ _____    ______ ____
ROOT
ATOM      1  C1  UNL     1      18.904   6.819   9.344  0.00  0.00    +0.000 A 
ATOM      2  C2  UNL     1      19.619   6.240   8.306  0.00  0.00    +0.000 A 
ATOM      3  N1  UNL     1      20.905   5.842   8.405  0.00  0.00    +0.000 NA
ATOM      4  C3  UNL     1      21.507   6.032   9.602  0.00  0.00    +0.000 A 
ATOM      5  C4  UNL     1      20.882   6.605  10.711  0.00  0.00    +0.000 A 
ATOM      6  C5  UNL     1      19.543   7.008  10.576  0.00  0.00    +0.000 A 
ATOM      7  C6  UNL     1      21.503   6.801  11.946  0.00  0.00    +0.000 A 
ATOM      8  N2  UNL     1      20.896   7.355  13.021  0.00  0.00    +0.000 NA
ATOM      9  C7  UNL     1      19.610   7.733  12.861  0.00  0.00    +0.000 A 
ATOM     10  C8  UNL     1      18.899   7.584  11.679  0.00  0.00    +0.000 A 
ENDROOT
TORSDOF 0
ENDMDL
MODEL 9
REMARK VINA RESULT:    -3.545     16.701     17.931
REMARK INTER + INTRA:          -3.545
REMARK INTER:                  -3.545
REMARK INTRA:                   0.000
REMARK UNBOUND:                 0.000
REMARK  Name = /home/anacleto/Desktop/manuscript_Mpro/naturecomm/supplementary_file_S2/6-chemical-library/molecular_docking/3D_ligand_structure/258.pdb
REMARK  0 active torsions:
REMARK  status: ('A' for Active; 'I' for Inactive)
REMARK                            x       y       z     vdW  Elec       q    Type
REMARK                         _______ _______ _______ _____ _____    ______ ____
ROOT
ATOM      1  C1  UNL     1      14.060   0.250   8.186  0.00  0.00    +0.000 A 
ATOM      2  C2  UNL     1      13.055  -0.121   9.067  0.00  0.00    +0.000 A 
ATOM      3  N1  UNL     1      12.804   0.509  10.234  0.00  0.00    +0.000 NA
ATOM      4  C3  UNL     1      13.598   1.563  10.537  0.00  0.00    +0.000 A 
ATOM      5  C4  UNL     1      14.637   2.019   9.724  0.00  0.00    +0.000 A 
ATOM      6  C5  UNL     1      14.872   1.342   8.516  0.00  0.00    +0.000 A 
ATOM      7  C6  UNL     1      15.457   3.106  10.036  0.00  0.00    +0.000 A 
ATOM      8  N2  UNL     1      16.463   3.548   9.247  0.00  0.00    +0.000 NA
ATOM      9  C7  UNL     1      16.665   2.878   8.092  0.00  0.00    +0.000 A 
ATOM     10  C8  UNL     1      15.910   1.787   7.686  0.00  0.00    +0.000 A 
ENDROOT
TORSDOF 0
ENDMDL
