MODEL 1
REMARK VINA RESULT:    -4.026      0.000      0.000
REMARK INTER + INTRA:          -4.026
REMARK INTER:                  -4.026
REMARK INTRA:                   0.000
REMARK UNBOUND:                 0.000
REMARK  Name = /home/anacleto/Desktop/manuscript_Mpro/naturecomm/supplementary_file_S2/6-chemical-library/molecular_docking/3D_ligand_structure/210.pdb
REMARK  0 active torsions:
REMARK  status: ('A' for Active; 'I' for Inactive)
REMARK                            x       y       z     vdW  Elec       q    Type
REMARK                         _______ _______ _______ _____ _____    ______ ____
ROOT
ATOM      1  C1  UNL     1      20.298   3.629   9.190  0.00  0.00    +0.000 C 
ATOM      2  C2  UNL     1      21.689   3.006   9.163  0.00  0.00    +0.000 C 
ATOM      3  C3  UNL     1      22.574   3.596  10.245  0.00  0.00    +0.000 C 
ATOM      4  S1  UNL     1      22.965   5.332   9.893  0.00  0.00    +0.000 S 
ATOM      5  C4  UNL     1      21.374   5.948   9.364  0.00  0.00    +0.000 A 
ATOM      6  C5  UNL     1      20.274   5.129   9.061  0.00  0.00    +0.000 A 
ATOM      7  C6  UNL     1      21.254   7.340   9.232  0.00  0.00    +0.000 A 
ATOM      8  C7  UNL     1      20.054   7.922   8.822  0.00  0.00    +0.000 A 
ATOM      9  C8  UNL     1      18.958   7.118   8.539  0.00  0.00    +0.000 A 
ATOM     10  C9  UNL     1      19.066   5.732   8.660  0.00  0.00    +0.000 A 
ENDROOT
TORSDOF 0
ENDMDL
MODEL 2
REMARK VINA RESULT:    -3.907      2.527      3.481
REMARK INTER + INTRA:          -3.907
REMARK INTER:                  -3.907
REMARK INTRA:                   0.000
REMARK UNBOUND:                 0.000
REMARK  Name = /home/anacleto/Desktop/manuscript_Mpro/naturecomm/supplementary_file_S2/6-chemical-library/molecular_docking/3D_ligand_structure/210.pdb
REMARK  0 active torsions:
REMARK  status: ('A' for Active; 'I' for Inactive)
REMARK                            x       y       z     vdW  Elec       q    Type
REMARK                         _______ _______ _______ _____ _____    ______ ____
ROOT
ATOM      1  C1  UNL     1      18.778   7.611  11.750  0.00  0.00    +0.000 C 
ATOM      2  C2  UNL     1      19.306   7.294  13.145  0.00  0.00    +0.000 C 
ATOM      3  C3  UNL     1      20.778   7.640  13.265  0.00  0.00    +0.000 C 
ATOM      4  S1  UNL     1      21.793   6.530  12.251  0.00  0.00    +0.000 S 
ATOM      5  C4  UNL     1      20.835   6.458  10.745  0.00  0.00    +0.000 A 
ATOM      6  C5  UNL     1      19.520   6.937  10.626  0.00  0.00    +0.000 A 
ATOM      7  C6  UNL     1      21.454   5.860   9.637  0.00  0.00    +0.000 A 
ATOM      8  C7  UNL     1      20.790   5.751   8.414  0.00  0.00    +0.000 A 
ATOM      9  C8  UNL     1      19.496   6.240   8.286  0.00  0.00    +0.000 A 
ATOM     10  C9  UNL     1      18.867   6.831   9.383  0.00  0.00    +0.000 A 
ENDROOT
TORSDOF 0
ENDMDL
MODEL 3
REMARK VINA RESULT:    -3.899      6.848      8.131
REMARK INTER + INTRA:          -3.899
REMARK INTER:                  -3.899
REMARK INTRA:                   0.000
REMARK UNBOUND:                 0.000
REMARK  Name = /home/anacleto/Desktop/manuscript_Mpro/naturecomm/supplementary_file_S2/6-chemical-library/molecular_docking/3D_ligand_structure/210.pdb
REMARK  0 active torsions:
REMARK  status: ('A' for Active; 'I' for Inactive)
REMARK                            x       y       z     vdW  Elec       q    Type
REMARK                         _______ _______ _______ _____ _____    ______ ____
ROOT
ATOM      1  C1  UNL     1      15.666   1.292   7.684  0.00  0.00    +0.000 C 
ATOM      2  C2  UNL     1      16.216   2.711   7.781  0.00  0.00    +0.000 C 
ATOM      3  C3  UNL     1      16.692   3.019   9.188  0.00  0.00    +0.000 C 
ATOM      4  S1  UNL     1      15.296   3.109  10.343  0.00  0.00    +0.000 S 
ATOM      5  C4  UNL     1      14.326   1.699   9.830  0.00  0.00    +0.000 A 
ATOM      6  C5  UNL     1      14.548   0.981   8.644  0.00  0.00    +0.000 A 
ATOM      7  C6  UNL     1      13.270   1.325  10.675  0.00  0.00    +0.000 A 
ATOM      8  C7  UNL     1      12.451   0.239  10.364  0.00  0.00    +0.000 A 
ATOM      9  C8  UNL     1      12.678  -0.486   9.201  0.00  0.00    +0.000 A 
ATOM     10  C9  UNL     1      13.721  -0.120   8.349  0.00  0.00    +0.000 A 
ENDROOT
TORSDOF 0
ENDMDL
MODEL 4
REMARK VINA RESULT:    -3.871      3.091      4.102
REMARK INTER + INTRA:          -3.871
REMARK INTER:                  -3.871
REMARK INTRA:                   0.000
REMARK UNBOUND:                 0.000
REMARK  Name = /home/anacleto/Desktop/manuscript_Mpro/naturecomm/supplementary_file_S2/6-chemical-library/molecular_docking/3D_ligand_structure/210.pdb
REMARK  0 active torsions:
REMARK  status: ('A' for Active; 'I' for Inactive)
REMARK                            x       y       z     vdW  Elec       q    Type
REMARK                         _______ _______ _______ _____ _____    ______ ____
ROOT
ATOM      1  C1  UNL     1      18.980   7.636  12.114  0.00  0.00    +0.000 C 
ATOM      2  C2  UNL     1      17.989   6.982  13.071  0.00  0.00    +0.000 C 
ATOM      3  C3  UNL     1      18.337   5.524  13.307  0.00  0.00    +0.000 C 
ATOM      4  S1  UNL     1      18.070   4.540  11.807  0.00  0.00    +0.000 S 
ATOM      5  C4  UNL     1      18.763   5.611  10.558  0.00  0.00    +0.000 A 
ATOM      6  C5  UNL     1      19.111   6.954  10.777  0.00  0.00    +0.000 A 
ATOM      7  C6  UNL     1      18.937   5.055   9.282  0.00  0.00    +0.000 A 
ATOM      8  C7  UNL     1      19.468   5.809   8.235  0.00  0.00    +0.000 A 
ATOM      9  C8  UNL     1      19.831   7.132   8.452  0.00  0.00    +0.000 A 
ATOM     10  C9  UNL     1      19.657   7.699   9.715  0.00  0.00    +0.000 A 
ENDROOT
TORSDOF 0
ENDMDL
MODEL 5
REMARK VINA RESULT:    -3.819     15.349     16.788
REMARK INTER + INTRA:          -3.819
REMARK INTER:                  -3.819
REMARK INTRA:                   0.000
REMARK UNBOUND:                 0.000
REMARK  Name = /home/anacleto/Desktop/manuscript_Mpro/naturecomm/supplementary_file_S2/6-chemical-library/molecular_docking/3D_ligand_structure/210.pdb
REMARK  0 active torsions:
REMARK  status: ('A' for Active; 'I' for Inactive)
REMARK                            x       y       z     vdW  Elec       q    Type
REMARK                         _______ _______ _______ _____ _____    ______ ____
ROOT
ATOM      1  C1  UNL     1      17.212  12.029  -5.800  0.00  0.00    +0.000 C 
ATOM      2  C2  UNL     1      17.642  12.479  -4.408  0.00  0.00    +0.000 C 
ATOM      3  C3  UNL     1      17.442  11.374  -3.389  0.00  0.00    +0.000 C 
ATOM      4  S1  UNL     1      15.677  11.050  -3.117  0.00  0.00    +0.000 S 
ATOM      5  C4  UNL     1      15.055  11.082  -4.791  0.00  0.00    +0.000 A 
ATOM      6  C5  UNL     1      15.789  11.545  -5.896  0.00  0.00    +0.000 A 
ATOM      7  C6  UNL     1      13.740  10.631  -4.979  0.00  0.00    +0.000 A 
ATOM      8  C7  UNL     1      13.158  10.619  -6.247  0.00  0.00    +0.000 A 
ATOM      9  C8  UNL     1      13.887  11.058  -7.345  0.00  0.00    +0.000 A 
ATOM     10  C9  UNL     1      15.193  11.514  -7.171  0.00  0.00    +0.000 A 
ENDROOT
TORSDOF 0
ENDMDL
MODEL 6
REMARK VINA RESULT:    -3.789      2.516      3.386
REMARK INTER + INTRA:          -3.789
REMARK INTER:                  -3.789
REMARK INTRA:                   0.000
REMARK UNBOUND:                 0.000
REMARK  Name = /home/anacleto/Desktop/manuscript_Mpro/naturecomm/supplementary_file_S2/6-chemical-library/molecular_docking/3D_ligand_structure/210.pdb
REMARK  0 active torsions:
REMARK  status: ('A' for Active; 'I' for Inactive)
REMARK                            x       y       z     vdW  Elec       q    Type
REMARK                         _______ _______ _______ _____ _____    ______ ____
ROOT
ATOM      1  C1  UNL     1      18.807   6.773   9.451  0.00  0.00    +0.000 C 
ATOM      2  C2  UNL     1      19.652   6.606   8.193  0.00  0.00    +0.000 C 
ATOM      3  C3  UNL     1      20.660   5.484   8.356  0.00  0.00    +0.000 C 
ATOM      4  S1  UNL     1      21.933   5.922   9.573  0.00  0.00    +0.000 S 
ATOM      5  C4  UNL     1      20.942   6.660  10.863  0.00  0.00    +0.000 A 
ATOM      6  C5  UNL     1      19.592   7.016  10.713  0.00  0.00    +0.000 A 
ATOM      7  C6  UNL     1      21.589   6.908  12.084  0.00  0.00    +0.000 A 
ATOM      8  C7  UNL     1      20.905   7.485  13.155  0.00  0.00    +0.000 A 
ATOM      9  C8  UNL     1      19.565   7.821  13.017  0.00  0.00    +0.000 A 
ATOM     10  C9  UNL     1      18.912   7.586  11.806  0.00  0.00    +0.000 A 
ENDROOT
TORSDOF 0
ENDMDL
MODEL 7
REMARK VINA RESULT:    -3.716     15.574     17.058
REMARK INTER + INTRA:          -3.716
REMARK INTER:                  -3.716
REMARK INTRA:                   0.000
REMARK UNBOUND:                 0.000
REMARK  Name = /home/anacleto/Desktop/manuscript_Mpro/naturecomm/supplementary_file_S2/6-chemical-library/molecular_docking/3D_ligand_structure/210.pdb
REMARK  0 active torsions:
REMARK  status: ('A' for Active; 'I' for Inactive)
REMARK                            x       y       z     vdW  Elec       q    Type
REMARK                         _______ _______ _______ _____ _____    ______ ____
ROOT
ATOM      1  C1  UNL     1      15.247  11.743  -7.306  0.00  0.00    +0.000 C 
ATOM      2  C2  UNL     1      13.832  11.462  -6.813  0.00  0.00    +0.000 C 
ATOM      3  C3  UNL     1      13.608  12.045  -5.431  0.00  0.00    +0.000 C 
ATOM      4  S1  UNL     1      14.589  11.165  -4.185  0.00  0.00    +0.000 S 
ATOM      5  C4  UNL     1      16.154  10.995  -5.029  0.00  0.00    +0.000 A 
ATOM      6  C5  UNL     1      16.342  11.250  -6.397  0.00  0.00    +0.000 A 
ATOM      7  C6  UNL     1      17.239  10.556  -4.255  0.00  0.00    +0.000 A 
ATOM      8  C7  UNL     1      18.504  10.388  -4.819  0.00  0.00    +0.000 A 
ATOM      9  C8  UNL     1      18.699  10.657  -6.168  0.00  0.00    +0.000 A 
ATOM     10  C9  UNL     1      17.627  11.088  -6.950  0.00  0.00    +0.000 A 
ENDROOT
TORSDOF 0
ENDMDL
MODEL 8
REMARK VINA RESULT:    -3.688     16.033     17.312
REMARK INTER + INTRA:          -3.688
REMARK INTER:                  -3.688
REMARK INTRA:                   0.000
REMARK UNBOUND:                 0.000
REMARK  Name = /home/anacleto/Desktop/manuscript_Mpro/naturecomm/supplementary_file_S2/6-chemical-library/molecular_docking/3D_ligand_structure/210.pdb
REMARK  0 active torsions:
REMARK  status: ('A' for Active; 'I' for Inactive)
REMARK                            x       y       z     vdW  Elec       q    Type
REMARK                         _______ _______ _______ _____ _____    ______ ____
ROOT
ATOM      1  C1  UNL     1      16.940  11.768  -4.451  0.00  0.00    +0.000 C 
ATOM      2  C2  UNL     1      18.215  11.816  -5.285  0.00  0.00    +0.000 C 
ATOM      3  C3  UNL     1      18.078  12.791  -6.439  0.00  0.00    +0.000 C 
ATOM      4  S1  UNL     1      16.885  12.187  -7.665  0.00  0.00    +0.000 S 
ATOM      5  C4  UNL     1      15.572  11.592  -6.611  0.00  0.00    +0.000 A 
ATOM      6  C5  UNL     1      15.693  11.423  -5.222  0.00  0.00    +0.000 A 
ATOM      7  C6  UNL     1      14.363  11.262  -7.243  0.00  0.00    +0.000 A 
ATOM      8  C7  UNL     1      13.276  10.785  -6.510  0.00  0.00    +0.000 A 
ATOM      9  C8  UNL     1      13.385  10.633  -5.133  0.00  0.00    +0.000 A 
ATOM     10  C9  UNL     1      14.583  10.952  -4.494  0.00  0.00    +0.000 A 
ENDROOT
TORSDOF 0
ENDMDL
MODEL 9
REMARK VINA RESULT:    -3.576      2.801      3.797
REMARK INTER + INTRA:          -3.576
REMARK INTER:                  -3.576
REMARK INTRA:                   0.000
REMARK UNBOUND:                 0.000
REMARK  Name = /home/anacleto/Desktop/manuscript_Mpro/naturecomm/supplementary_file_S2/6-chemical-library/molecular_docking/3D_ligand_structure/210.pdb
REMARK  0 active torsions:
REMARK  status: ('A' for Active; 'I' for Inactive)
REMARK                            x       y       z     vdW  Elec       q    Type
REMARK                         _______ _______ _______ _____ _____    ______ ____
ROOT
ATOM      1  C1  UNL     1      21.995   6.491  12.032  0.00  0.00    +0.000 C 
ATOM      2  C2  UNL     1      21.536   7.508  13.071  0.00  0.00    +0.000 C 
ATOM      3  C3  UNL     1      20.102   7.250  13.494  0.00  0.00    +0.000 C 
ATOM      4  S1  UNL     1      18.950   7.599  12.137  0.00  0.00    +0.000 S 
ATOM      5  C4  UNL     1      19.803   6.856  10.755  0.00  0.00    +0.000 A 
ATOM      6  C5  UNL     1      21.138   6.421  10.796  0.00  0.00    +0.000 A 
ATOM      7  C6  UNL     1      19.075   6.733   9.562  0.00  0.00    +0.000 A 
ATOM      8  C7  UNL     1      19.651   6.170   8.423  0.00  0.00    +0.000 A 
ATOM      9  C8  UNL     1      20.964   5.721   8.464  0.00  0.00    +0.000 A 
ATOM     10  C9  UNL     1      21.701   5.842   9.642  0.00  0.00    +0.000 A 
ENDROOT
TORSDOF 0
ENDMDL
