MODEL 1
REMARK VINA RESULT:    -3.784      0.000      0.000
REMARK INTER + INTRA:          -3.784
REMARK INTER:                  -3.784
REMARK INTRA:                   0.000
REMARK UNBOUND:                 0.000
REMARK  Name = /home/anacleto/Desktop/manuscript_Mpro/naturecomm/supplementary_file_S2/6-chemical-library/molecular_docking/3D_ligand_structure/346.pdb
REMARK  0 active torsions:
REMARK  status: ('A' for Active; 'I' for Inactive)
REMARK                            x       y       z     vdW  Elec       q    Type
REMARK                         _______ _______ _______ _____ _____    ______ ____
ROOT
ATOM      1  C1  UNL     1     -37.727  11.371 -30.095  0.00  0.00    +0.000 A 
ATOM      2  C2  UNL     1     -37.315  12.469 -29.324  0.00  0.00    +0.000 A 
ATOM      3  N1  UNL     1     -36.249  13.092 -29.829  0.00  0.00    +0.000 NA
ATOM      4  N2  UNL     1     -35.946  12.396 -30.957  0.00  0.00    +0.000 N 
ATOM      5  C3  UNL     1     -36.839  11.336 -31.142  0.00  0.00    +0.000 A 
ATOM      6  C4  UNL     1     -34.905  12.648 -31.853  0.00  0.00    +0.000 A 
ATOM      7  C5  UNL     1     -34.737  11.864 -32.930  0.00  0.00    +0.000 A 
ATOM      8  C6  UNL     1     -35.654  10.755 -33.140  0.00  0.00    +0.000 A 
ATOM      9  C7  UNL     1     -36.662  10.502 -32.283  0.00  0.00    +0.000 A 
ENDROOT
TORSDOF 0
ENDMDL
MODEL 2
REMARK VINA RESULT:    -3.726     14.422     15.711
REMARK INTER + INTRA:          -3.726
REMARK INTER:                  -3.726
REMARK INTRA:                   0.000
REMARK UNBOUND:                 0.000
REMARK  Name = /home/anacleto/Desktop/manuscript_Mpro/naturecomm/supplementary_file_S2/6-chemical-library/molecular_docking/3D_ligand_structure/346.pdb
REMARK  0 active torsions:
REMARK  status: ('A' for Active; 'I' for Inactive)
REMARK                            x       y       z     vdW  Elec       q    Type
REMARK                         _______ _______ _______ _____ _____    ______ ____
ROOT
ATOM      1  C1  UNL     1     -22.014   6.164 -38.089  0.00  0.00    +0.000 A 
ATOM      2  C2  UNL     1     -23.312   5.822 -38.500  0.00  0.00    +0.000 A 
ATOM      3  N1  UNL     1     -24.180   6.828 -38.382  0.00  0.00    +0.000 NA
ATOM      4  N2  UNL     1     -23.448   7.858 -37.882  0.00  0.00    +0.000 N 
ATOM      5  C3  UNL     1     -22.116   7.476 -37.694  0.00  0.00    +0.000 A 
ATOM      6  C4  UNL     1     -23.896   9.145 -37.577  0.00  0.00    +0.000 A 
ATOM      7  C5  UNL     1     -23.041  10.058 -37.088  0.00  0.00    +0.000 A 
ATOM      8  C6  UNL     1     -21.652   9.681 -36.883  0.00  0.00    +0.000 A 
ATOM      9  C7  UNL     1     -21.208   8.443 -37.174  0.00  0.00    +0.000 A 
ENDROOT
TORSDOF 0
ENDMDL
MODEL 3
REMARK VINA RESULT:    -3.718      1.205      3.044
REMARK INTER + INTRA:          -3.718
REMARK INTER:                  -3.718
REMARK INTRA:                   0.000
REMARK UNBOUND:                 0.000
REMARK  Name = /home/anacleto/Desktop/manuscript_Mpro/naturecomm/supplementary_file_S2/6-chemical-library/molecular_docking/3D_ligand_structure/346.pdb
REMARK  0 active torsions:
REMARK  status: ('A' for Active; 'I' for Inactive)
REMARK                            x       y       z     vdW  Elec       q    Type
REMARK                         _______ _______ _______ _____ _____    ______ ____
ROOT
ATOM      1  C1  UNL     1     -33.513  12.385 -33.027  0.00  0.00    +0.000 A 
ATOM      2  C2  UNL     1     -33.252  13.482 -32.191  0.00  0.00    +0.000 A 
ATOM      3  N1  UNL     1     -34.186  13.659 -31.255  0.00  0.00    +0.000 NA
ATOM      4  N2  UNL     1     -35.086  12.663 -31.473  0.00  0.00    +0.000 N 
ATOM      5  C3  UNL     1     -34.694  11.868 -32.554  0.00  0.00    +0.000 A 
ATOM      6  C4  UNL     1     -36.257  12.409 -30.756  0.00  0.00    +0.000 A 
ATOM      7  C5  UNL     1     -37.045  11.376 -31.097  0.00  0.00    +0.000 A 
ATOM      8  C6  UNL     1     -36.657  10.538 -32.219  0.00  0.00    +0.000 A 
ATOM      9  C7  UNL     1     -35.530  10.773 -32.918  0.00  0.00    +0.000 A 
ENDROOT
TORSDOF 0
ENDMDL
MODEL 4
REMARK VINA RESULT:    -3.642     14.429     15.590
REMARK INTER + INTRA:          -3.642
REMARK INTER:                  -3.642
REMARK INTRA:                   0.000
REMARK UNBOUND:                 0.000
REMARK  Name = /home/anacleto/Desktop/manuscript_Mpro/naturecomm/supplementary_file_S2/6-chemical-library/molecular_docking/3D_ligand_structure/346.pdb
REMARK  0 active torsions:
REMARK  status: ('A' for Active; 'I' for Inactive)
REMARK                            x       y       z     vdW  Elec       q    Type
REMARK                         _______ _______ _______ _____ _____    ______ ____
ROOT
ATOM      1  C1  UNL     1     -21.227   9.203 -37.025  0.00  0.00    +0.000 A 
ATOM      2  C2  UNL     1     -22.194  10.201 -36.828  0.00  0.00    +0.000 A 
ATOM      3  N1  UNL     1     -23.419   9.821 -37.190  0.00  0.00    +0.000 NA
ATOM      4  N2  UNL     1     -23.267   8.546 -37.638  0.00  0.00    +0.000 N 
ATOM      5  C3  UNL     1     -21.931   8.144 -37.546  0.00  0.00    +0.000 A 
ATOM      6  C4  UNL     1     -24.260   7.698 -38.132  0.00  0.00    +0.000 A 
ATOM      7  C5  UNL     1     -23.946   6.457 -38.536  0.00  0.00    +0.000 A 
ATOM      8  C6  UNL     1     -22.563   6.019 -38.451  0.00  0.00    +0.000 A 
ATOM      9  C7  UNL     1     -21.596   6.828 -37.975  0.00  0.00    +0.000 A 
ENDROOT
TORSDOF 0
ENDMDL
MODEL 5
REMARK VINA RESULT:    -3.629      1.215      3.120
REMARK INTER + INTRA:          -3.629
REMARK INTER:                  -3.629
REMARK INTRA:                   0.000
REMARK UNBOUND:                 0.000
REMARK  Name = /home/anacleto/Desktop/manuscript_Mpro/naturecomm/supplementary_file_S2/6-chemical-library/molecular_docking/3D_ligand_structure/346.pdb
REMARK  0 active torsions:
REMARK  status: ('A' for Active; 'I' for Inactive)
REMARK                            x       y       z     vdW  Elec       q    Type
REMARK                         _______ _______ _______ _____ _____    ______ ____
ROOT
ATOM      1  C1  UNL     1     -35.032  11.054 -33.349  0.00  0.00    +0.000 A 
ATOM      2  C2  UNL     1     -33.980  11.983 -33.334  0.00  0.00    +0.000 A 
ATOM      3  N1  UNL     1     -34.015  12.796 -32.278  0.00  0.00    +0.000 NA
ATOM      4  N2  UNL     1     -35.111  12.402 -31.576  0.00  0.00    +0.000 N 
ATOM      5  C3  UNL     1     -35.751  11.335 -32.212  0.00  0.00    +0.000 A 
ATOM      6  C4  UNL     1     -35.588  12.941 -30.379  0.00  0.00    +0.000 A 
ATOM      7  C5  UNL     1     -36.692  12.435 -29.805  0.00  0.00    +0.000 A 
ATOM      8  C6  UNL     1     -37.374  11.326 -30.451  0.00  0.00    +0.000 A 
ATOM      9  C7  UNL     1     -36.923  10.798 -31.605  0.00  0.00    +0.000 A 
ENDROOT
TORSDOF 0
ENDMDL
MODEL 6
REMARK VINA RESULT:    -3.583     14.941     16.498
REMARK INTER + INTRA:          -3.583
REMARK INTER:                  -3.583
REMARK INTRA:                   0.000
REMARK UNBOUND:                 0.000
REMARK  Name = /home/anacleto/Desktop/manuscript_Mpro/naturecomm/supplementary_file_S2/6-chemical-library/molecular_docking/3D_ligand_structure/346.pdb
REMARK  0 active torsions:
REMARK  status: ('A' for Active; 'I' for Inactive)
REMARK                            x       y       z     vdW  Elec       q    Type
REMARK                         _______ _______ _______ _____ _____    ______ ____
ROOT
ATOM      1  C1  UNL     1     -24.894   2.552 -41.216  0.00  0.00    +0.000 A 
ATOM      2  C2  UNL     1     -25.771   2.348 -42.293  0.00  0.00    +0.000 A 
ATOM      3  N1  UNL     1     -27.044   2.231 -41.915  0.00  0.00    +0.000 NA
ATOM      4  N2  UNL     1     -27.016   2.357 -40.562  0.00  0.00    +0.000 N 
ATOM      5  C3  UNL     1     -25.708   2.555 -40.109  0.00  0.00    +0.000 A 
ATOM      6  C4  UNL     1     -28.100   2.308 -39.684  0.00  0.00    +0.000 A 
ATOM      7  C5  UNL     1     -27.906   2.453 -38.364  0.00  0.00    +0.000 A 
ATOM      8  C6  UNL     1     -26.554   2.659 -37.872  0.00  0.00    +0.000 A 
ATOM      9  C7  UNL     1     -25.500   2.709 -38.709  0.00  0.00    +0.000 A 
ENDROOT
TORSDOF 0
ENDMDL
MODEL 7
REMARK VINA RESULT:    -3.582     13.631     14.811
REMARK INTER + INTRA:          -3.582
REMARK INTER:                  -3.582
REMARK INTRA:                   0.000
REMARK UNBOUND:                 0.000
REMARK  Name = /home/anacleto/Desktop/manuscript_Mpro/naturecomm/supplementary_file_S2/6-chemical-library/molecular_docking/3D_ligand_structure/346.pdb
REMARK  0 active torsions:
REMARK  status: ('A' for Active; 'I' for Inactive)
REMARK                            x       y       z     vdW  Elec       q    Type
REMARK                         _______ _______ _______ _____ _____    ______ ____
ROOT
ATOM      1  C1  UNL     1     -24.507   4.950 -39.021  0.00  0.00    +0.000 A 
ATOM      2  C2  UNL     1     -25.141   6.153 -39.368  0.00  0.00    +0.000 A 
ATOM      3  N1  UNL     1     -26.471   6.082 -39.299  0.00  0.00    +0.000 NA
ATOM      4  N2  UNL     1     -26.728   4.808 -38.900  0.00  0.00    +0.000 N 
ATOM      5  C3  UNL     1     -25.539   4.094 -38.722  0.00  0.00    +0.000 A 
ATOM      6  C4  UNL     1     -27.977   4.227 -38.677  0.00  0.00    +0.000 A 
ATOM      7  C5  UNL     1     -28.065   2.947 -38.280  0.00  0.00    +0.000 A 
ATOM      8  C6  UNL     1     -26.841   2.186 -38.090  0.00  0.00    +0.000 A 
ATOM      9  C7  UNL     1     -25.629   2.736 -38.301  0.00  0.00    +0.000 A 
ENDROOT
TORSDOF 0
ENDMDL
MODEL 8
REMARK VINA RESULT:    -3.570     12.496     13.870
REMARK INTER + INTRA:          -3.570
REMARK INTER:                  -3.570
REMARK INTRA:                   0.000
REMARK UNBOUND:                 0.000
REMARK  Name = /home/anacleto/Desktop/manuscript_Mpro/naturecomm/supplementary_file_S2/6-chemical-library/molecular_docking/3D_ligand_structure/346.pdb
REMARK  0 active torsions:
REMARK  status: ('A' for Active; 'I' for Inactive)
REMARK                            x       y       z     vdW  Elec       q    Type
REMARK                         _______ _______ _______ _____ _____    ______ ____
ROOT
ATOM      1  C1  UNL     1     -29.178   5.053 -38.571  0.00  0.00    +0.000 A 
ATOM      2  C2  UNL     1     -28.625   6.279 -38.970  0.00  0.00    +0.000 A 
ATOM      3  N1  UNL     1     -27.305   6.223 -39.152  0.00  0.00    +0.000 NA
ATOM      4  N2  UNL     1     -26.972   4.935 -38.868  0.00  0.00    +0.000 N 
ATOM      5  C3  UNL     1     -28.105   4.197 -38.510  0.00  0.00    +0.000 A 
ATOM      6  C4  UNL     1     -25.701   4.361 -38.909  0.00  0.00    +0.000 A 
ATOM      7  C5  UNL     1     -25.536   3.064 -38.600  0.00  0.00    +0.000 A 
ATOM      8  C6  UNL     1     -26.700   2.280 -38.223  0.00  0.00    +0.000 A 
ATOM      9  C7  UNL     1     -27.932   2.822 -38.180  0.00  0.00    +0.000 A 
ENDROOT
TORSDOF 0
ENDMDL
MODEL 9
REMARK VINA RESULT:    -3.488     16.511     18.143
REMARK INTER + INTRA:          -3.488
REMARK INTER:                  -3.488
REMARK INTRA:                   0.000
REMARK UNBOUND:                 0.000
REMARK  Name = /home/anacleto/Desktop/manuscript_Mpro/naturecomm/supplementary_file_S2/6-chemical-library/molecular_docking/3D_ligand_structure/346.pdb
REMARK  0 active torsions:
REMARK  status: ('A' for Active; 'I' for Inactive)
REMARK                            x       y       z     vdW  Elec       q    Type
REMARK                         _______ _______ _______ _____ _____    ______ ____
ROOT
ATOM      1  C1  UNL     1     -18.287   8.513 -39.145  0.00  0.00    +0.000 A 
ATOM      2  C2  UNL     1     -17.938   9.860 -38.963  0.00  0.00    +0.000 A 
ATOM      3  N1  UNL     1     -18.871  10.559 -38.315  0.00  0.00    +0.000 NA
ATOM      4  N2  UNL     1     -19.860   9.661 -38.061  0.00  0.00    +0.000 N 
ATOM      5  C3  UNL     1     -19.525   8.399 -38.560  0.00  0.00    +0.000 A 
ATOM      6  C4  UNL     1     -21.066   9.896 -37.399  0.00  0.00    +0.000 A 
ATOM      7  C5  UNL     1     -21.945   8.896 -37.224  0.00  0.00    +0.000 A 
ATOM      8  C6  UNL     1     -21.617   7.576 -37.736  0.00  0.00    +0.000 A 
ATOM      9  C7  UNL     1     -20.456   7.337 -38.376  0.00  0.00    +0.000 A 
ENDROOT
TORSDOF 0
ENDMDL
