MODEL 1
REMARK VINA RESULT:    -4.116      0.000      0.000
REMARK INTER + INTRA:          -4.116
REMARK INTER:                  -4.116
REMARK INTRA:                   0.000
REMARK UNBOUND:                 0.000
REMARK  Name = /home/anacleto/Desktop/manuscript_Mpro/naturecomm/supplementary_file_S2/6-chemical-library/molecular_docking/3D_ligand_structure/3.pdb
REMARK  0 active torsions:
REMARK  status: ('A' for Active; 'I' for Inactive)
REMARK                            x       y       z     vdW  Elec       q    Type
REMARK                         _______ _______ _______ _____ _____    ______ ____
ROOT
ATOM      1  O1  UNL     1      14.466  13.452  -5.153  0.00  0.00    +0.000 OA
ATOM      2  S1  UNL     1      13.901  12.162  -5.498  0.00  0.00    +0.000 S 
ATOM      3  O2  UNL     1      12.467  12.006  -5.661  0.00  0.00    +0.000 OA
ATOM      4  C1  UNL     1      14.675  11.559  -6.974  0.00  0.00    +0.000 C 
ATOM      5  C2  UNL     1      16.152  11.474  -6.779  0.00  0.00    +0.000 C 
ATOM      6  C3  UNL     1      17.017  11.897  -7.720  0.00  0.00    +0.000 C 
ATOM      7  C4  UNL     1      16.745  10.887  -5.537  0.00  0.00    +0.000 C 
ATOM      8  O3  UNL     1      17.872  10.398  -5.549  0.00  0.00    +0.000 OA
ATOM      9  C5  UNL     1      15.931  10.903  -4.283  0.00  0.00    +0.000 C 
ATOM     10  C6  UNL     1      16.610  10.845  -3.122  0.00  0.00    +0.000 C 
ATOM     11  C7  UNL     1      14.441  10.952  -4.320  0.00  0.00    +0.000 C 
ENDROOT
TORSDOF 0
ENDMDL
MODEL 2
REMARK VINA RESULT:    -4.020      1.892      3.124
REMARK INTER + INTRA:          -4.020
REMARK INTER:                  -4.020
REMARK INTRA:                   0.000
REMARK UNBOUND:                 0.000
REMARK  Name = /home/anacleto/Desktop/manuscript_Mpro/naturecomm/supplementary_file_S2/6-chemical-library/molecular_docking/3D_ligand_structure/3.pdb
REMARK  0 active torsions:
REMARK  status: ('A' for Active; 'I' for Inactive)
REMARK                            x       y       z     vdW  Elec       q    Type
REMARK                         _______ _______ _______ _____ _____    ______ ____
ROOT
ATOM      1  O1  UNL     1      17.230  11.139  -6.734  0.00  0.00    +0.000 OA
ATOM      2  S1  UNL     1      16.588  12.415  -6.482  0.00  0.00    +0.000 S 
ATOM      3  O2  UNL     1      17.222  13.653  -6.897  0.00  0.00    +0.000 OA
ATOM      4  C1  UNL     1      14.955  12.396  -7.169  0.00  0.00    +0.000 C 
ATOM      5  C2  UNL     1      14.170  11.266  -6.591  0.00  0.00    +0.000 C 
ATOM      6  C3  UNL     1      13.398  10.473  -7.357  0.00  0.00    +0.000 C 
ATOM      7  C4  UNL     1      14.181  10.976  -5.123  0.00  0.00    +0.000 C 
ATOM      8  O3  UNL     1      13.238  10.395  -4.590  0.00  0.00    +0.000 OA
ATOM      9  C5  UNL     1      15.362  11.416  -4.319  0.00  0.00    +0.000 C 
ATOM     10  C6  UNL     1      15.593  10.751  -3.172  0.00  0.00    +0.000 C 
ATOM     11  C7  UNL     1      16.222  12.555  -4.754  0.00  0.00    +0.000 C 
ENDROOT
TORSDOF 0
ENDMDL
MODEL 3
REMARK VINA RESULT:    -3.700      2.053      3.476
REMARK INTER + INTRA:          -3.700
REMARK INTER:                  -3.700
REMARK INTRA:                   0.000
REMARK UNBOUND:                 0.000
REMARK  Name = /home/anacleto/Desktop/manuscript_Mpro/naturecomm/supplementary_file_S2/6-chemical-library/molecular_docking/3D_ligand_structure/3.pdb
REMARK  0 active torsions:
REMARK  status: ('A' for Active; 'I' for Inactive)
REMARK                            x       y       z     vdW  Elec       q    Type
REMARK                         _______ _______ _______ _____ _____    ______ ____
ROOT
ATOM      1  O1  UNL     1      16.510  12.764  -3.596  0.00  0.00    +0.000 OA
ATOM      2  S1  UNL     1      16.360  11.322  -3.581  0.00  0.00    +0.000 S 
ATOM      3  O2  UNL     1      16.741  10.554  -2.409  0.00  0.00    +0.000 OA
ATOM      4  C1  UNL     1      14.684  10.902  -3.973  0.00  0.00    +0.000 C 
ATOM      5  C2  UNL     1      14.310  11.477  -5.299  0.00  0.00    +0.000 C 
ATOM      6  C3  UNL     1      13.128  12.089  -5.498  0.00  0.00    +0.000 C 
ATOM      7  C4  UNL     1      15.221  11.375  -6.481  0.00  0.00    +0.000 C 
ATOM      8  O3  UNL     1      14.773  11.410  -7.625  0.00  0.00    +0.000 OA
ATOM      9  C5  UNL     1      16.688  11.220  -6.239  0.00  0.00    +0.000 C 
ATOM     10  C6  UNL     1      17.509  11.616  -7.229  0.00  0.00    +0.000 C 
ATOM     11  C7  UNL     1      17.213  10.630  -4.973  0.00  0.00    +0.000 C 
ENDROOT
TORSDOF 0
ENDMDL
MODEL 4
REMARK VINA RESULT:    -3.660      1.935      3.216
REMARK INTER + INTRA:          -3.660
REMARK INTER:                  -3.660
REMARK INTRA:                   0.000
REMARK UNBOUND:                 0.000
REMARK  Name = /home/anacleto/Desktop/manuscript_Mpro/naturecomm/supplementary_file_S2/6-chemical-library/molecular_docking/3D_ligand_structure/3.pdb
REMARK  0 active torsions:
REMARK  status: ('A' for Active; 'I' for Inactive)
REMARK                            x       y       z     vdW  Elec       q    Type
REMARK                         _______ _______ _______ _____ _____    ______ ____
ROOT
ATOM      1  O1  UNL     1      17.247  10.249  -3.975  0.00  0.00    +0.000 OA
ATOM      2  S1  UNL     1      16.876  11.640  -3.802  0.00  0.00    +0.000 S 
ATOM      3  O2  UNL     1      17.426  12.418  -2.707  0.00  0.00    +0.000 OA
ATOM      4  C1  UNL     1      17.201  12.525  -5.303  0.00  0.00    +0.000 C 
ATOM      5  C2  UNL     1      16.460  11.898  -6.436  0.00  0.00    +0.000 C 
ATOM      6  C3  UNL     1      17.038  11.692  -7.634  0.00  0.00    +0.000 C 
ATOM      7  C4  UNL     1      15.025  11.494  -6.305  0.00  0.00    +0.000 C 
ATOM      8  O3  UNL     1      14.299  11.423  -7.294  0.00  0.00    +0.000 OA
ATOM      9  C5  UNL     1      14.493  11.188  -4.942  0.00  0.00    +0.000 C 
ATOM     10  C6  UNL     1      13.415  10.384  -4.881  0.00  0.00    +0.000 C 
ATOM     11  C7  UNL     1      15.110  11.769  -3.714  0.00  0.00    +0.000 C 
ENDROOT
TORSDOF 0
ENDMDL
MODEL 5
REMARK VINA RESULT:    -3.646     17.060     17.806
REMARK INTER + INTRA:          -3.646
REMARK INTER:                  -3.646
REMARK INTRA:                   0.000
REMARK UNBOUND:                 0.000
REMARK  Name = /home/anacleto/Desktop/manuscript_Mpro/naturecomm/supplementary_file_S2/6-chemical-library/molecular_docking/3D_ligand_structure/3.pdb
REMARK  0 active torsions:
REMARK  status: ('A' for Active; 'I' for Inactive)
REMARK                            x       y       z     vdW  Elec       q    Type
REMARK                         _______ _______ _______ _____ _____    ______ ____
ROOT
ATOM      1  O1  UNL     1      16.055   2.699   7.291  0.00  0.00    +0.000 OA
ATOM      2  S1  UNL     1      16.502   2.093   8.530  0.00  0.00    +0.000 S 
ATOM      3  O2  UNL     1      17.569   2.702   9.304  0.00  0.00    +0.000 OA
ATOM      4  C1  UNL     1      15.115   1.877   9.611  0.00  0.00    +0.000 C 
ATOM      5  C2  UNL     1      14.071   1.046   8.942  0.00  0.00    +0.000 C 
ATOM      6  C3  UNL     1      12.765   1.368   8.999  0.00  0.00    +0.000 C 
ATOM      7  C4  UNL     1      14.422  -0.204   8.198  0.00  0.00    +0.000 C 
ATOM      8  O3  UNL     1      13.598  -1.103   8.055  0.00  0.00    +0.000 OA
ATOM      9  C5  UNL     1      15.803  -0.336   7.641  0.00  0.00    +0.000 C 
ATOM     10  C6  UNL     1      15.957  -1.178   6.602  0.00  0.00    +0.000 C 
ATOM     11  C7  UNL     1      16.957   0.407   8.226  0.00  0.00    +0.000 C 
ENDROOT
TORSDOF 0
ENDMDL
MODEL 6
REMARK VINA RESULT:    -3.563     16.074     17.679
REMARK INTER + INTRA:          -3.563
REMARK INTER:                  -3.563
REMARK INTRA:                   0.000
REMARK UNBOUND:                 0.000
REMARK  Name = /home/anacleto/Desktop/manuscript_Mpro/naturecomm/supplementary_file_S2/6-chemical-library/molecular_docking/3D_ligand_structure/3.pdb
REMARK  0 active torsions:
REMARK  status: ('A' for Active; 'I' for Inactive)
REMARK                            x       y       z     vdW  Elec       q    Type
REMARK                         _______ _______ _______ _____ _____    ______ ____
ROOT
ATOM      1  O1  UNL     1      20.741   5.445  12.172  0.00  0.00    +0.000 OA
ATOM      2  S1  UNL     1      19.376   5.928  12.254  0.00  0.00    +0.000 S 
ATOM      3  O2  UNL     1      18.780   6.237  13.541  0.00  0.00    +0.000 OA
ATOM      4  C1  UNL     1      19.198   7.359  11.225  0.00  0.00    +0.000 C 
ATOM      5  C2  UNL     1      19.578   7.030   9.820  0.00  0.00    +0.000 C 
ATOM      6  C3  UNL     1      20.343   7.854   9.081  0.00  0.00    +0.000 C 
ATOM      7  C4  UNL     1      19.100   5.779   9.153  0.00  0.00    +0.000 C 
ATOM      8  O3  UNL     1      19.006   5.715   7.930  0.00  0.00    +0.000 OA
ATOM      9  C5  UNL     1      18.734   4.610  10.010  0.00  0.00    +0.000 C 
ATOM     10  C6  UNL     1      18.790   3.396   9.432  0.00  0.00    +0.000 C 
ATOM     11  C7  UNL     1      18.302   4.786  11.427  0.00  0.00    +0.000 C 
ENDROOT
TORSDOF 0
ENDMDL
MODEL 7
REMARK VINA RESULT:    -3.556      2.509      3.505
REMARK INTER + INTRA:          -3.556
REMARK INTER:                  -3.556
REMARK INTRA:                   0.000
REMARK UNBOUND:                 0.000
REMARK  Name = /home/anacleto/Desktop/manuscript_Mpro/naturecomm/supplementary_file_S2/6-chemical-library/molecular_docking/3D_ligand_structure/3.pdb
REMARK  0 active torsions:
REMARK  status: ('A' for Active; 'I' for Inactive)
REMARK                            x       y       z     vdW  Elec       q    Type
REMARK                         _______ _______ _______ _____ _____    ______ ____
ROOT
ATOM      1  O1  UNL     1      15.964  12.985  -5.432  0.00  0.00    +0.000 OA
ATOM      2  S1  UNL     1      14.685  12.591  -4.876  0.00  0.00    +0.000 S 
ATOM      3  O2  UNL     1      13.515  12.476  -5.729  0.00  0.00    +0.000 OA
ATOM      4  C1  UNL     1      14.869  11.054  -4.013  0.00  0.00    +0.000 C 
ATOM      5  C2  UNL     1      15.909  11.186  -2.951  0.00  0.00    +0.000 C 
ATOM      6  C3  UNL     1      16.843  10.237  -2.750  0.00  0.00    +0.000 C 
ATOM      7  C4  UNL     1      15.947  12.369  -2.036  0.00  0.00    +0.000 C 
ATOM      8  O3  UNL     1      16.458  12.286  -0.922  0.00  0.00    +0.000 OA
ATOM      9  C5  UNL     1      15.342  13.653  -2.506  0.00  0.00    +0.000 C 
ATOM     10  C6  UNL     1      15.797  14.782  -1.930  0.00  0.00    +0.000 C 
ATOM     11  C7  UNL     1      14.267  13.677  -3.540  0.00  0.00    +0.000 C 
ENDROOT
TORSDOF 0
ENDMDL
MODEL 8
REMARK VINA RESULT:    -3.547      6.059      7.181
REMARK INTER + INTRA:          -3.547
REMARK INTER:                  -3.547
REMARK INTRA:                   0.000
REMARK UNBOUND:                 0.000
REMARK  Name = /home/anacleto/Desktop/manuscript_Mpro/naturecomm/supplementary_file_S2/6-chemical-library/molecular_docking/3D_ligand_structure/3.pdb
REMARK  0 active torsions:
REMARK  status: ('A' for Active; 'I' for Inactive)
REMARK                            x       y       z     vdW  Elec       q    Type
REMARK                         _______ _______ _______ _____ _____    ______ ____
ROOT
ATOM      1  O1  UNL     1      17.347  15.733  -2.357  0.00  0.00    +0.000 OA
ATOM      2  S1  UNL     1      16.742  15.595  -1.047  0.00  0.00    +0.000 S 
ATOM      3  O2  UNL     1      15.324  15.842  -0.861  0.00  0.00    +0.000 OA
ATOM      4  C1  UNL     1      17.090  13.980  -0.407  0.00  0.00    +0.000 C 
ATOM      5  C2  UNL     1      18.565  13.758  -0.354  0.00  0.00    +0.000 C 
ATOM      6  C3  UNL     1      19.124  12.602  -0.758  0.00  0.00    +0.000 C 
ATOM      7  C4  UNL     1      19.495  14.802   0.180  0.00  0.00    +0.000 C 
ATOM      8  O3  UNL     1      20.586  14.491   0.650  0.00  0.00    +0.000 OA
ATOM      9  C5  UNL     1      19.061  16.232   0.135  0.00  0.00    +0.000 C 
ATOM     10  C6  UNL     1      20.037  17.160   0.142  0.00  0.00    +0.000 C 
ATOM     11  C7  UNL     1      17.618  16.610   0.112  0.00  0.00    +0.000 C 
ENDROOT
TORSDOF 0
ENDMDL
MODEL 9
REMARK VINA RESULT:    -3.528     15.979     17.918
REMARK INTER + INTRA:          -3.528
REMARK INTER:                  -3.528
REMARK INTRA:                   0.000
REMARK UNBOUND:                 0.000
REMARK  Name = /home/anacleto/Desktop/manuscript_Mpro/naturecomm/supplementary_file_S2/6-chemical-library/molecular_docking/3D_ligand_structure/3.pdb
REMARK  0 active torsions:
REMARK  status: ('A' for Active; 'I' for Inactive)
REMARK                            x       y       z     vdW  Elec       q    Type
REMARK                         _______ _______ _______ _____ _____    ______ ____
ROOT
ATOM      1  O1  UNL     1      18.667   7.627  11.947  0.00  0.00    +0.000 OA
ATOM      2  S1  UNL     1      19.897   6.860  11.899  0.00  0.00    +0.000 S 
ATOM      3  O2  UNL     1      21.014   7.205  12.760  0.00  0.00    +0.000 OA
ATOM      4  C1  UNL     1      19.530   5.146  12.162  0.00  0.00    +0.000 C 
ATOM      5  C2  UNL     1      18.550   4.671  11.141  0.00  0.00    +0.000 C 
ATOM      6  C3  UNL     1      17.503   3.894  11.473  0.00  0.00    +0.000 C 
ATOM      7  C4  UNL     1      18.701   5.013   9.692  0.00  0.00    +0.000 C 
ATOM      8  O3  UNL     1      18.217   4.292   8.823  0.00  0.00    +0.000 OA
ATOM      9  C5  UNL     1      19.462   6.247   9.327  0.00  0.00    +0.000 C 
ATOM     10  C6  UNL     1      19.182   6.797   8.131  0.00  0.00    +0.000 C 
ATOM     11  C7  UNL     1      20.499   6.822  10.233  0.00  0.00    +0.000 C 
ENDROOT
TORSDOF 0
ENDMDL
