MODEL 1
REMARK VINA RESULT:    -3.570      0.000      0.000
REMARK INTER + INTRA:          -3.570
REMARK INTER:                  -3.570
REMARK INTRA:                   0.000
REMARK UNBOUND:                 0.000
REMARK  Name = /home/anacleto/Desktop/manuscript_Mpro/naturecomm/supplementary_file_S2/6-chemical-library/molecular_docking/3D_ligand_structure/41.pdb
REMARK  0 active torsions:
REMARK  status: ('A' for Active; 'I' for Inactive)
REMARK                            x       y       z     vdW  Elec       q    Type
REMARK                         _______ _______ _______ _____ _____    ______ ____
ROOT
ATOM      1  O1  UNL     1     -40.086  10.523 -16.531  0.00  0.00    +0.000 OA
ATOM      2  C1  UNL     1     -39.354   9.841 -15.841  0.00  0.00    +0.000 C 
ATOM      3  C2  UNL     1     -39.762   9.142 -14.618  0.00  0.00    +0.000 C 
ATOM      4  C3  UNL     1     -38.691   8.502 -14.143  0.00  0.00    +0.000 C 
ATOM      5  C4  UNL     1     -37.572   8.775 -15.052  0.00  0.00    +0.000 C 
ATOM      6  O2  UNL     1     -36.444   8.345 -14.916  0.00  0.00    +0.000 OA
ATOM      7  N1  UNL     1     -38.046   9.574 -16.030  0.00  0.00    +0.000 N 
ATOM      8  H3  UNL     1     -37.496   9.924 -16.797  0.00  0.00    +0.000 HD
ENDROOT
TORSDOF 0
ENDMDL
MODEL 2
REMARK VINA RESULT:    -3.558      0.071      2.795
REMARK INTER + INTRA:          -3.558
REMARK INTER:                  -3.558
REMARK INTRA:                   0.000
REMARK UNBOUND:                 0.000
REMARK  Name = /home/anacleto/Desktop/manuscript_Mpro/naturecomm/supplementary_file_S2/6-chemical-library/molecular_docking/3D_ligand_structure/41.pdb
REMARK  0 active torsions:
REMARK  status: ('A' for Active; 'I' for Inactive)
REMARK                            x       y       z     vdW  Elec       q    Type
REMARK                         _______ _______ _______ _____ _____    ______ ____
ROOT
ATOM      1  O1  UNL     1     -36.448   8.391 -14.930  0.00  0.00    +0.000 OA
ATOM      2  C1  UNL     1     -37.585   8.791 -15.081  0.00  0.00    +0.000 C 
ATOM      3  C2  UNL     1     -38.722   8.436 -14.225  0.00  0.00    +0.000 C 
ATOM      4  C3  UNL     1     -39.798   9.065 -14.703  0.00  0.00    +0.000 C 
ATOM      5  C4  UNL     1     -39.376   9.838 -15.876  0.00  0.00    +0.000 C 
ATOM      6  O2  UNL     1     -40.108  10.530 -16.555  0.00  0.00    +0.000 OA
ATOM      7  N1  UNL     1     -38.054   9.622 -16.034  0.00  0.00    +0.000 N 
ATOM      8  H3  UNL     1     -37.492  10.027 -16.764  0.00  0.00    +0.000 HD
ENDROOT
TORSDOF 0
ENDMDL
MODEL 3
REMARK VINA RESULT:    -3.202      2.226      2.536
REMARK INTER + INTRA:          -3.202
REMARK INTER:                  -3.202
REMARK INTRA:                   0.000
REMARK UNBOUND:                 0.000
REMARK  Name = /home/anacleto/Desktop/manuscript_Mpro/naturecomm/supplementary_file_S2/6-chemical-library/molecular_docking/3D_ligand_structure/41.pdb
REMARK  0 active torsions:
REMARK  status: ('A' for Active; 'I' for Inactive)
REMARK                            x       y       z     vdW  Elec       q    Type
REMARK                         _______ _______ _______ _____ _____    ______ ____
ROOT
ATOM      1  O1  UNL     1     -37.997   9.255 -15.947  0.00  0.00    +0.000 OA
ATOM      2  C1  UNL     1     -37.876   8.257 -15.264  0.00  0.00    +0.000 C 
ATOM      3  C2  UNL     1     -38.117   8.194 -13.819  0.00  0.00    +0.000 C 
ATOM      4  C3  UNL     1     -37.882   6.940 -13.426  0.00  0.00    +0.000 C 
ATOM      5  C4  UNL     1     -37.485   6.171 -14.610  0.00  0.00    +0.000 C 
ATOM      6  O2  UNL     1     -37.197   4.991 -14.610  0.00  0.00    +0.000 OA
ATOM      7  N1  UNL     1     -37.506   7.021 -15.657  0.00  0.00    +0.000 N 
ATOM      8  H3  UNL     1     -37.276   6.768 -16.603  0.00  0.00    +0.000 HD
ENDROOT
TORSDOF 0
ENDMDL
MODEL 4
REMARK VINA RESULT:    -3.179     20.977     21.274
REMARK INTER + INTRA:          -3.179
REMARK INTER:                  -3.179
REMARK INTRA:                   0.000
REMARK UNBOUND:                 0.000
REMARK  Name = /home/anacleto/Desktop/manuscript_Mpro/naturecomm/supplementary_file_S2/6-chemical-library/molecular_docking/3D_ligand_structure/41.pdb
REMARK  0 active torsions:
REMARK  status: ('A' for Active; 'I' for Inactive)
REMARK                            x       y       z     vdW  Elec       q    Type
REMARK                         _______ _______ _______ _____ _____    ______ ____
ROOT
ATOM      1  O1  UNL     1     -29.312  -5.876 -26.206  0.00  0.00    +0.000 OA
ATOM      2  C1  UNL     1     -28.446  -5.170 -26.684  0.00  0.00    +0.000 C 
ATOM      3  C2  UNL     1     -27.053  -5.126 -26.229  0.00  0.00    +0.000 C 
ATOM      4  C3  UNL     1     -26.408  -4.239 -26.990  0.00  0.00    +0.000 C 
ATOM      5  C4  UNL     1     -27.374  -3.694 -27.950  0.00  0.00    +0.000 C 
ATOM      6  O2  UNL     1     -27.121  -2.858 -28.795  0.00  0.00    +0.000 OA
ATOM      7  N1  UNL     1     -28.556  -4.295 -27.704  0.00  0.00    +0.000 N 
ATOM      8  H3  UNL     1     -29.405  -4.115 -28.212  0.00  0.00    +0.000 HD
ENDROOT
TORSDOF 0
ENDMDL
MODEL 5
REMARK VINA RESULT:    -3.152     28.201     28.912
REMARK INTER + INTRA:          -3.152
REMARK INTER:                  -3.152
REMARK INTRA:                   0.000
REMARK UNBOUND:                 0.000
REMARK  Name = /home/anacleto/Desktop/manuscript_Mpro/naturecomm/supplementary_file_S2/6-chemical-library/molecular_docking/3D_ligand_structure/41.pdb
REMARK  0 active torsions:
REMARK  status: ('A' for Active; 'I' for Inactive)
REMARK                            x       y       z     vdW  Elec       q    Type
REMARK                         _______ _______ _______ _____ _____    ______ ____
ROOT
ATOM      1  O1  UNL     1     -18.477   8.765 -38.846  0.00  0.00    +0.000 OA
ATOM      2  C1  UNL     1     -19.562   8.725 -38.300  0.00  0.00    +0.000 C 
ATOM      3  C2  UNL     1     -20.457   7.564 -38.294  0.00  0.00    +0.000 C 
ATOM      4  C3  UNL     1     -21.546   7.897 -37.597  0.00  0.00    +0.000 C 
ATOM      5  C4  UNL     1     -21.373   9.280 -37.140  0.00  0.00    +0.000 C 
ATOM      6  O2  UNL     1     -22.179   9.901 -36.476  0.00  0.00    +0.000 OA
ATOM      7  N1  UNL     1     -20.175   9.699 -37.596  0.00  0.00    +0.000 N 
ATOM      8  H3  UNL     1     -19.790  10.614 -37.434  0.00  0.00    +0.000 HD
ENDROOT
TORSDOF 0
ENDMDL
MODEL 6
REMARK VINA RESULT:    -3.148     28.189     28.820
REMARK INTER + INTRA:          -3.148
REMARK INTER:                  -3.148
REMARK INTRA:                   0.000
REMARK UNBOUND:                 0.000
REMARK  Name = /home/anacleto/Desktop/manuscript_Mpro/naturecomm/supplementary_file_S2/6-chemical-library/molecular_docking/3D_ligand_structure/41.pdb
REMARK  0 active torsions:
REMARK  status: ('A' for Active; 'I' for Inactive)
REMARK                            x       y       z     vdW  Elec       q    Type
REMARK                         _______ _______ _______ _____ _____    ______ ____
ROOT
ATOM      1  O1  UNL     1     -22.166   9.954 -36.487  0.00  0.00    +0.000 OA
ATOM      2  C1  UNL     1     -21.378   9.303 -37.144  0.00  0.00    +0.000 C 
ATOM      3  C2  UNL     1     -21.581   7.912 -37.562  0.00  0.00    +0.000 C 
ATOM      4  C3  UNL     1     -20.507   7.540 -38.263  0.00  0.00    +0.000 C 
ATOM      5  C4  UNL     1     -19.591   8.685 -38.310  0.00  0.00    +0.000 C 
ATOM      6  O2  UNL     1     -18.513   8.692 -38.870  0.00  0.00    +0.000 OA
ATOM      7  N1  UNL     1     -20.179   9.688 -37.625  0.00  0.00    +0.000 N 
ATOM      8  H3  UNL     1     -19.776  10.600 -37.491  0.00  0.00    +0.000 HD
ENDROOT
TORSDOF 0
ENDMDL
MODEL 7
REMARK VINA RESULT:    -3.094      2.366      3.484
REMARK INTER + INTRA:          -3.094
REMARK INTER:                  -3.094
REMARK INTRA:                   0.000
REMARK UNBOUND:                 0.000
REMARK  Name = /home/anacleto/Desktop/manuscript_Mpro/naturecomm/supplementary_file_S2/6-chemical-library/molecular_docking/3D_ligand_structure/41.pdb
REMARK  0 active torsions:
REMARK  status: ('A' for Active; 'I' for Inactive)
REMARK                            x       y       z     vdW  Elec       q    Type
REMARK                         _______ _______ _______ _____ _____    ______ ____
ROOT
ATOM      1  O1  UNL     1     -38.023   4.809 -14.036  0.00  0.00    +0.000 OA
ATOM      2  C1  UNL     1     -37.911   6.002 -14.237  0.00  0.00    +0.000 C 
ATOM      3  C2  UNL     1     -38.065   7.044 -13.216  0.00  0.00    +0.000 C 
ATOM      4  C3  UNL     1     -37.870   8.223 -13.811  0.00  0.00    +0.000 C 
ATOM      5  C4  UNL     1     -37.586   7.963 -15.227  0.00  0.00    +0.000 C 
ATOM      6  O2  UNL     1     -37.360   8.818 -16.060  0.00  0.00    +0.000 OA
ATOM      7  N1  UNL     1     -37.629   6.626 -15.398  0.00  0.00    +0.000 N 
ATOM      8  H3  UNL     1     -37.472   6.157 -16.275  0.00  0.00    +0.000 HD
ENDROOT
TORSDOF 0
ENDMDL
MODEL 8
REMARK VINA RESULT:    -3.042     28.640     29.298
REMARK INTER + INTRA:          -3.042
REMARK INTER:                  -3.042
REMARK INTRA:                   0.000
REMARK UNBOUND:                 0.000
REMARK  Name = /home/anacleto/Desktop/manuscript_Mpro/naturecomm/supplementary_file_S2/6-chemical-library/molecular_docking/3D_ligand_structure/41.pdb
REMARK  0 active torsions:
REMARK  status: ('A' for Active; 'I' for Inactive)
REMARK                            x       y       z     vdW  Elec       q    Type
REMARK                         _______ _______ _______ _____ _____    ______ ____
ROOT
ATOM      1  O1  UNL     1     -22.459   5.809 -37.890  0.00  0.00    +0.000 OA
ATOM      2  C1  UNL     1     -21.567   6.613 -38.081  0.00  0.00    +0.000 C 
ATOM      3  C2  UNL     1     -21.522   7.966 -37.519  0.00  0.00    +0.000 C 
ATOM      4  C3  UNL     1     -20.398   8.544 -37.949  0.00  0.00    +0.000 C 
ATOM      5  C4  UNL     1     -19.697   7.573 -38.797  0.00  0.00    +0.000 C 
ATOM      6  O2  UNL     1     -18.636   7.773 -39.354  0.00  0.00    +0.000 OA
ATOM      7  N1  UNL     1     -20.453   6.457 -38.824  0.00  0.00    +0.000 N 
ATOM      8  H3  UNL     1     -20.218   5.620 -39.332  0.00  0.00    +0.000 HD
ENDROOT
TORSDOF 0
ENDMDL
MODEL 9
REMARK VINA RESULT:    -3.028     28.583     29.289
REMARK INTER + INTRA:          -3.028
REMARK INTER:                  -3.028
REMARK INTRA:                   0.000
REMARK UNBOUND:                 0.000
REMARK  Name = /home/anacleto/Desktop/manuscript_Mpro/naturecomm/supplementary_file_S2/6-chemical-library/molecular_docking/3D_ligand_structure/41.pdb
REMARK  0 active torsions:
REMARK  status: ('A' for Active; 'I' for Inactive)
REMARK                            x       y       z     vdW  Elec       q    Type
REMARK                         _______ _______ _______ _____ _____    ______ ____
ROOT
ATOM      1  O1  UNL     1     -18.640   7.784 -39.235  0.00  0.00    +0.000 OA
ATOM      2  C1  UNL     1     -19.718   7.573 -38.716  0.00  0.00    +0.000 C 
ATOM      3  C2  UNL     1     -20.476   8.549 -37.927  0.00  0.00    +0.000 C 
ATOM      4  C3  UNL     1     -21.603   7.955 -37.526  0.00  0.00    +0.000 C 
ATOM      5  C4  UNL     1     -21.593   6.585 -38.050  0.00  0.00    +0.000 C 
ATOM      6  O2  UNL     1     -22.471   5.765 -37.873  0.00  0.00    +0.000 OA
ATOM      7  N1  UNL     1     -20.445   6.437 -38.743  0.00  0.00    +0.000 N 
ATOM      8  H3  UNL     1     -20.168   5.593 -39.215  0.00  0.00    +0.000 HD
ENDROOT
TORSDOF 0
ENDMDL
