MODEL 1
REMARK VINA RESULT:    -4.485      0.000      0.000
REMARK INTER + INTRA:          -4.485
REMARK INTER:                  -4.485
REMARK INTRA:                   0.000
REMARK UNBOUND:                 0.000
REMARK  Name = /home/anacleto/Desktop/manuscript_Mpro/naturecomm/supplementary_file_S2/6-chemical-library/molecular_docking/3D_ligand_structure/1468.pdb
REMARK  0 active torsions:
REMARK  status: ('A' for Active; 'I' for Inactive)
REMARK                            x       y       z     vdW  Elec       q    Type
REMARK                         _______ _______ _______ _____ _____    ______ ____
ROOT
ATOM      1  C1  UNL     1      16.996  10.625  -4.662  0.00  0.00    +0.000 A 
ATOM      2  C2  UNL     1      18.043  10.513  -5.581  0.00  0.00    +0.000 A 
ATOM      3  C3  UNL     1      17.889  10.944  -6.914  0.00  0.00    +0.000 A 
ATOM      4  C4  UNL     1      16.685  11.497  -7.356  0.00  0.00    +0.000 A 
ATOM      5  C5  UNL     1      15.664  11.608  -6.437  0.00  0.00    +0.000 A 
ATOM      6  C6  UNL     1      15.818  11.178  -5.112  0.00  0.00    +0.000 A 
ATOM      7  C7  UNL     1      14.256  12.105  -6.539  0.00  0.00    +0.000 C 
ATOM      8  C8  UNL     1      13.283  10.924  -6.461  0.00  0.00    +0.000 C 
ATOM      9  C9  UNL     1      13.453  10.449  -4.997  0.00  0.00    +0.000 C 
ATOM     10  C10 UNL     1      14.497  11.429  -4.452  0.00  0.00    +0.000 C 
ATOM     11  O1  UNL     1      14.115  12.634  -5.184  0.00  0.00    +0.000 OA
ENDROOT
TORSDOF 0
ENDMDL
MODEL 2
REMARK VINA RESULT:    -4.395     16.035     17.431
REMARK INTER + INTRA:          -4.395
REMARK INTER:                  -4.395
REMARK INTRA:                   0.000
REMARK UNBOUND:                 0.000
REMARK  Name = /home/anacleto/Desktop/manuscript_Mpro/naturecomm/supplementary_file_S2/6-chemical-library/molecular_docking/3D_ligand_structure/1468.pdb
REMARK  0 active torsions:
REMARK  status: ('A' for Active; 'I' for Inactive)
REMARK                            x       y       z     vdW  Elec       q    Type
REMARK                         _______ _______ _______ _____ _____    ______ ____
ROOT
ATOM      1  C1  UNL     1      18.422   4.835  10.972  0.00  0.00    +0.000 A 
ATOM      2  C2  UNL     1      18.087   5.320  12.239  0.00  0.00    +0.000 A 
ATOM      3  C3  UNL     1      18.308   6.670  12.581  0.00  0.00    +0.000 A 
ATOM      4  C4  UNL     1      18.868   7.562  11.664  0.00  0.00    +0.000 A 
ATOM      5  C5  UNL     1      19.186   7.071  10.417  0.00  0.00    +0.000 A 
ATOM      6  C6  UNL     1      18.967   5.730  10.077  0.00  0.00    +0.000 A 
ATOM      7  C7  UNL     1      19.814   7.696   9.210  0.00  0.00    +0.000 C 
ATOM      8  C8  UNL     1      21.239   7.163   9.034  0.00  0.00    +0.000 C 
ATOM      9  C9  UNL     1      20.998   5.681   8.659  0.00  0.00    +0.000 C 
ATOM     10  C10 UNL     1      19.469   5.582   8.673  0.00  0.00    +0.000 C 
ATOM     11  O1  UNL     1      19.128   6.915   8.182  0.00  0.00    +0.000 OA
ENDROOT
TORSDOF 0
ENDMDL
MODEL 3
REMARK VINA RESULT:    -4.394     16.129     17.657
REMARK INTER + INTRA:          -4.394
REMARK INTER:                  -4.394
REMARK INTRA:                   0.000
REMARK UNBOUND:                 0.000
REMARK  Name = /home/anacleto/Desktop/manuscript_Mpro/naturecomm/supplementary_file_S2/6-chemical-library/molecular_docking/3D_ligand_structure/1468.pdb
REMARK  0 active torsions:
REMARK  status: ('A' for Active; 'I' for Inactive)
REMARK                            x       y       z     vdW  Elec       q    Type
REMARK                         _______ _______ _______ _____ _____    ______ ____
ROOT
ATOM      1  C1  UNL     1      18.725   7.224  11.714  0.00  0.00    +0.000 A 
ATOM      2  C2  UNL     1      19.393   7.089  12.933  0.00  0.00    +0.000 A 
ATOM      3  C3  UNL     1      20.791   6.914  12.979  0.00  0.00    +0.000 A 
ATOM      4  C4  UNL     1      21.550   6.870  11.806  0.00  0.00    +0.000 A 
ATOM      5  C5  UNL     1      20.876   7.012  10.612  0.00  0.00    +0.000 A 
ATOM      6  C6  UNL     1      19.487   7.185  10.567  0.00  0.00    +0.000 A 
ATOM      7  C7  UNL     1      21.326   6.987   9.184  0.00  0.00    +0.000 C 
ATOM      8  C8  UNL     1      20.853   5.693   8.515  0.00  0.00    +0.000 C 
ATOM      9  C9  UNL     1      19.318   5.885   8.465  0.00  0.00    +0.000 C 
ATOM     10  C10 UNL     1      19.137   7.261   9.112  0.00  0.00    +0.000 C 
ATOM     11  O1  UNL     1      20.348   7.923   8.634  0.00  0.00    +0.000 OA
ENDROOT
TORSDOF 0
ENDMDL
MODEL 4
REMARK VINA RESULT:    -4.364     16.816     18.324
REMARK INTER + INTRA:          -4.364
REMARK INTER:                  -4.364
REMARK INTRA:                   0.000
REMARK UNBOUND:                 0.000
REMARK  Name = /home/anacleto/Desktop/manuscript_Mpro/naturecomm/supplementary_file_S2/6-chemical-library/molecular_docking/3D_ligand_structure/1468.pdb
REMARK  0 active torsions:
REMARK  status: ('A' for Active; 'I' for Inactive)
REMARK                            x       y       z     vdW  Elec       q    Type
REMARK                         _______ _______ _______ _____ _____    ______ ____
ROOT
ATOM      1  C1  UNL     1      21.227   7.239  12.743  0.00  0.00    +0.000 A 
ATOM      2  C2  UNL     1      20.370   7.737  13.728  0.00  0.00    +0.000 A 
ATOM      3  C3  UNL     1      18.991   7.891  13.479  0.00  0.00    +0.000 A 
ATOM      4  C4  UNL     1      18.440   7.552  12.241  0.00  0.00    +0.000 A 
ATOM      5  C5  UNL     1      19.297   7.056  11.283  0.00  0.00    +0.000 A 
ATOM      6  C6  UNL     1      20.668   6.903  11.530  0.00  0.00    +0.000 A 
ATOM      7  C7  UNL     1      19.093   6.623   9.864  0.00  0.00    +0.000 C 
ATOM      8  C8  UNL     1      19.716   7.651   8.914  0.00  0.00    +0.000 C 
ATOM      9  C9  UNL     1      21.230   7.483   9.188  0.00  0.00    +0.000 C 
ATOM     10  C10 UNL     1      21.252   6.382  10.253  0.00  0.00    +0.000 C 
ATOM     11  O1  UNL     1      20.115   5.581   9.807  0.00  0.00    +0.000 OA
ENDROOT
TORSDOF 0
ENDMDL
MODEL 5
REMARK VINA RESULT:    -4.337      1.426      3.481
REMARK INTER + INTRA:          -4.337
REMARK INTER:                  -4.337
REMARK INTRA:                   0.000
REMARK UNBOUND:                 0.000
REMARK  Name = /home/anacleto/Desktop/manuscript_Mpro/naturecomm/supplementary_file_S2/6-chemical-library/molecular_docking/3D_ligand_structure/1468.pdb
REMARK  0 active torsions:
REMARK  status: ('A' for Active; 'I' for Inactive)
REMARK                            x       y       z     vdW  Elec       q    Type
REMARK                         _______ _______ _______ _____ _____    ______ ____
ROOT
ATOM      1  C1  UNL     1      15.374  11.841  -6.779  0.00  0.00    +0.000 A 
ATOM      2  C2  UNL     1      14.229  11.225  -7.291  0.00  0.00    +0.000 A 
ATOM      3  C3  UNL     1      13.295  10.605  -6.436  0.00  0.00    +0.000 A 
ATOM      4  C4  UNL     1      13.485  10.589  -5.052  0.00  0.00    +0.000 A 
ATOM      5  C5  UNL     1      14.615  11.207  -4.562  0.00  0.00    +0.000 A 
ATOM      6  C6  UNL     1      15.544  11.823  -5.412  0.00  0.00    +0.000 A 
ATOM      7  C7  UNL     1      15.167  11.366  -3.179  0.00  0.00    +0.000 C 
ATOM      8  C8  UNL     1      16.405  10.481  -3.011  0.00  0.00    +0.000 C 
ATOM      9  C9  UNL     1      17.431  11.160  -3.950  0.00  0.00    +0.000 C 
ATOM     10  C10 UNL     1      16.630  12.336  -4.517  0.00  0.00    +0.000 C 
ATOM     11  O1  UNL     1      15.812  12.666  -3.353  0.00  0.00    +0.000 OA
ENDROOT
TORSDOF 0
ENDMDL
MODEL 6
REMARK VINA RESULT:    -4.319      1.641      3.244
REMARK INTER + INTRA:          -4.319
REMARK INTER:                  -4.319
REMARK INTRA:                   0.000
REMARK UNBOUND:                 0.000
REMARK  Name = /home/anacleto/Desktop/manuscript_Mpro/naturecomm/supplementary_file_S2/6-chemical-library/molecular_docking/3D_ligand_structure/1468.pdb
REMARK  0 active torsions:
REMARK  status: ('A' for Active; 'I' for Inactive)
REMARK                            x       y       z     vdW  Elec       q    Type
REMARK                         _______ _______ _______ _____ _____    ______ ____
ROOT
ATOM      1  C1  UNL     1      13.512  10.631  -5.100  0.00  0.00    +0.000 A 
ATOM      2  C2  UNL     1      13.291  10.779  -6.472  0.00  0.00    +0.000 A 
ATOM      3  C3  UNL     1      14.305  11.264  -7.323  0.00  0.00    +0.000 A 
ATOM      4  C4  UNL     1      15.561  11.611  -6.820  0.00  0.00    +0.000 A 
ATOM      5  C5  UNL     1      15.766  11.453  -5.466  0.00  0.00    +0.000 A 
ATOM      6  C6  UNL     1      14.758  10.972  -4.621  0.00  0.00    +0.000 A 
ATOM      7  C7  UNL     1      16.936  11.739  -4.577  0.00  0.00    +0.000 C 
ATOM      8  C8  UNL     1      16.633  12.956  -3.698  0.00  0.00    +0.000 C 
ATOM      9  C9  UNL     1      15.519  12.425  -2.764  0.00  0.00    +0.000 C 
ATOM     10  C10 UNL     1      15.348  10.980  -3.244  0.00  0.00    +0.000 C 
ATOM     11  O1  UNL     1      16.731  10.671  -3.601  0.00  0.00    +0.000 OA
ENDROOT
TORSDOF 0
ENDMDL
MODEL 7
REMARK VINA RESULT:    -4.305     15.665     17.308
REMARK INTER + INTRA:          -4.305
REMARK INTER:                  -4.305
REMARK INTRA:                   0.000
REMARK UNBOUND:                 0.000
REMARK  Name = /home/anacleto/Desktop/manuscript_Mpro/naturecomm/supplementary_file_S2/6-chemical-library/molecular_docking/3D_ligand_structure/1468.pdb
REMARK  0 active torsions:
REMARK  status: ('A' for Active; 'I' for Inactive)
REMARK                            x       y       z     vdW  Elec       q    Type
REMARK                         _______ _______ _______ _____ _____    ______ ____
ROOT
ATOM      1  C1  UNL     1      19.330   5.648   8.372  0.00  0.00    +0.000 A 
ATOM      2  C2  UNL     1      19.043   7.013   8.449  0.00  0.00    +0.000 A 
ATOM      3  C3  UNL     1      20.014   7.936   8.888  0.00  0.00    +0.000 A 
ATOM      4  C4  UNL     1      21.292   7.512   9.260  0.00  0.00    +0.000 A 
ATOM      5  C5  UNL     1      21.562   6.164   9.171  0.00  0.00    +0.000 A 
ATOM      6  C6  UNL     1      20.597   5.247   8.735  0.00  0.00    +0.000 A 
ATOM      7  C7  UNL     1      22.773   5.347   9.502  0.00  0.00    +0.000 C 
ATOM      8  C8  UNL     1      22.511   4.520  10.764  0.00  0.00    +0.000 C 
ATOM      9  C9  UNL     1      21.443   3.507  10.282  0.00  0.00    +0.000 C 
ATOM     10  C10 UNL     1      21.252   3.903   8.815  0.00  0.00    +0.000 C 
ATOM     11  O1  UNL     1      22.616   4.309   8.486  0.00  0.00    +0.000 OA
ENDROOT
TORSDOF 0
ENDMDL
MODEL 8
REMARK VINA RESULT:    -4.291     16.565     17.904
REMARK INTER + INTRA:          -4.291
REMARK INTER:                  -4.291
REMARK INTRA:                   0.000
REMARK UNBOUND:                 0.000
REMARK  Name = /home/anacleto/Desktop/manuscript_Mpro/naturecomm/supplementary_file_S2/6-chemical-library/molecular_docking/3D_ligand_structure/1468.pdb
REMARK  0 active torsions:
REMARK  status: ('A' for Active; 'I' for Inactive)
REMARK                            x       y       z     vdW  Elec       q    Type
REMARK                         _______ _______ _______ _____ _____    ______ ____
ROOT
ATOM      1  C1  UNL     1      18.943   4.817   9.731  0.00  0.00    +0.000 A 
ATOM      2  C2  UNL     1      19.065   5.387   8.461  0.00  0.00    +0.000 A 
ATOM      3  C3  UNL     1      19.332   6.762   8.305  0.00  0.00    +0.000 A 
ATOM      4  C4  UNL     1      19.482   7.597   9.416  0.00  0.00    +0.000 A 
ATOM      5  C5  UNL     1      19.366   7.018  10.661  0.00  0.00    +0.000 A 
ATOM      6  C6  UNL     1      19.100   5.652  10.816  0.00  0.00    +0.000 A 
ATOM      7  C7  UNL     1      19.430   7.576  12.049  0.00  0.00    +0.000 C 
ATOM      8  C8  UNL     1      18.030   7.581  12.671  0.00  0.00    +0.000 C 
ATOM      9  C9  UNL     1      17.736   6.071  12.841  0.00  0.00    +0.000 C 
ATOM     10  C10 UNL     1      19.011   5.423  12.294  0.00  0.00    +0.000 C 
ATOM     11  O1  UNL     1      19.997   6.411  12.724  0.00  0.00    +0.000 OA
ENDROOT
TORSDOF 0
ENDMDL
MODEL 9
REMARK VINA RESULT:    -4.110      1.126      2.388
REMARK INTER + INTRA:          -4.110
REMARK INTER:                  -4.110
REMARK INTRA:                   0.000
REMARK UNBOUND:                 0.000
REMARK  Name = /home/anacleto/Desktop/manuscript_Mpro/naturecomm/supplementary_file_S2/6-chemical-library/molecular_docking/3D_ligand_structure/1468.pdb
REMARK  0 active torsions:
REMARK  status: ('A' for Active; 'I' for Inactive)
REMARK                            x       y       z     vdW  Elec       q    Type
REMARK                         _______ _______ _______ _____ _____    ______ ____
ROOT
ATOM      1  C1  UNL     1      16.058  11.793  -7.259  0.00  0.00    +0.000 A 
ATOM      2  C2  UNL     1      17.362  11.318  -7.418  0.00  0.00    +0.000 A 
ATOM      3  C3  UNL     1      18.044  10.698  -6.351  0.00  0.00    +0.000 A 
ATOM      4  C4  UNL     1      17.436  10.542  -5.103  0.00  0.00    +0.000 A 
ATOM      5  C5  UNL     1      16.147  11.010  -4.964  0.00  0.00    +0.000 A 
ATOM      6  C6  UNL     1      15.470  11.626  -6.025  0.00  0.00    +0.000 A 
ATOM      7  C7  UNL     1      15.202  11.051  -3.803  0.00  0.00    +0.000 C 
ATOM      8  C8  UNL     1      15.054  12.493  -3.308  0.00  0.00    +0.000 C 
ATOM      9  C9  UNL     1      14.306  13.173  -4.480  0.00  0.00    +0.000 C 
ATOM     10  C10 UNL     1      14.134  12.021  -5.474  0.00  0.00    +0.000 C 
ATOM     11  O1  UNL     1      13.949  10.912  -4.542  0.00  0.00    +0.000 OA
ENDROOT
TORSDOF 0
ENDMDL
