MODEL 1
REMARK VINA RESULT:    -4.220      0.000      0.000
REMARK INTER + INTRA:          -7.100
REMARK INTER:                  -5.530
REMARK INTRA:                  -1.571
REMARK UNBOUND:                -1.647
REMARK  Name = /home/anacleto/Desktop/manuscript_Mpro/naturecomm/supplementary_file_S2/6-chemical-library/molecular_docking/3D_ligand_structure/726.pdb
REMARK  5 active torsions:
REMARK  status: ('A' for Active; 'I' for Inactive)
REMARK    1  A    between atoms: C6_6  and  C7_7
REMARK    2  A    between atoms: C7_7  and  C8_8
REMARK    3  A    between atoms: C8_8  and  N1_9
REMARK    4  A    between atoms: N1_9  and  C9_10
REMARK    5  A    between atoms: C9_10  and  C10_11
REMARK                            x       y       z     vdW  Elec       q    Type
REMARK                         _______ _______ _______ _____ _____    ______ ____
ROOT
ATOM      1  N1  UNL     1     -33.111  13.630 -31.591  0.00  0.00    +0.000 NA
ATOM      2  H10 UNL     1     -33.405  12.691 -31.322  0.00  0.00    +0.000 HD
ENDROOT
BRANCH   1   3
ATOM      3  C8  UNL     1     -32.753  13.614 -33.014  0.00  0.00    +0.000 C 
BRANCH   3   4
ATOM      4  C7  UNL     1     -32.907  12.241 -33.685  0.00  0.00    +0.000 C 
BRANCH   4  10
ATOM      5  C1  UNL     1     -35.253  12.332 -34.625  0.00  0.00    +0.000 A 
ATOM      6  C2  UNL     1     -36.589  11.929 -34.627  0.00  0.00    +0.000 A 
ATOM      7  C3  UNL     1     -37.033  10.981 -33.705  0.00  0.00    +0.000 A 
ATOM      8  C4  UNL     1     -36.143  10.440 -32.780  0.00  0.00    +0.000 A 
ATOM      9  C5  UNL     1     -34.807  10.843 -32.776  0.00  0.00    +0.000 A 
ATOM     10  C6  UNL     1     -34.349  11.790 -33.701  0.00  0.00    +0.000 A 
ENDBRANCH   4  10
ENDBRANCH   3   4
ENDBRANCH   1   3
BRANCH   1  11
ATOM     11  C9  UNL     1     -34.164  14.580 -31.228  0.00  0.00    +0.000 C 
BRANCH  11  12
ATOM     12  C10 UNL     1     -35.490  13.944 -30.916  0.00  0.00    +0.000 A 
ATOM     13  C11 UNL     1     -36.634  14.223 -31.670  0.00  0.00    +0.000 A 
ATOM     14  C12 UNL     1     -37.839  13.605 -31.352  0.00  0.00    +0.000 A 
ATOM     15  C13 UNL     1     -37.864  12.724 -30.283  0.00  0.00    +0.000 A 
ATOM     16  N2  UNL     1     -36.783  12.429 -29.530  0.00  0.00    +0.000 NA
ATOM     17  C14 UNL     1     -35.625  13.044 -29.864  0.00  0.00    +0.000 A 
ENDBRANCH  11  12
ENDBRANCH   1  11
TORSDOF 5
ENDMDL
MODEL 2
REMARK VINA RESULT:    -4.138     13.630     15.633
REMARK INTER + INTRA:          -6.995
REMARK INTER:                  -6.638
REMARK INTRA:                  -0.356
REMARK UNBOUND:                -1.647
REMARK  Name = /home/anacleto/Desktop/manuscript_Mpro/naturecomm/supplementary_file_S2/6-chemical-library/molecular_docking/3D_ligand_structure/726.pdb
REMARK  5 active torsions:
REMARK  status: ('A' for Active; 'I' for Inactive)
REMARK    1  A    between atoms: C6_6  and  C7_7
REMARK    2  A    between atoms: C7_7  and  C8_8
REMARK    3  A    between atoms: C8_8  and  N1_9
REMARK    4  A    between atoms: N1_9  and  C9_10
REMARK    5  A    between atoms: C9_10  and  C10_11
REMARK                            x       y       z     vdW  Elec       q    Type
REMARK                         _______ _______ _______ _____ _____    ______ ____
ROOT
ATOM      1  N1  UNL     1     -24.252   6.263 -39.264  0.00  0.00    +0.000 NA
ATOM      2  H10 UNL     1     -25.152   6.742 -39.213  0.00  0.00    +0.000 HD
ENDROOT
BRANCH   1   3
ATOM      3  C8  UNL     1     -23.611   6.340 -37.946  0.00  0.00    +0.000 C 
BRANCH   3   4
ATOM      4  C7  UNL     1     -22.097   6.081 -37.968  0.00  0.00    +0.000 C 
BRANCH   4  10
ATOM      5  C1  UNL     1     -21.818   8.520 -37.361  0.00  0.00    +0.000 A 
ATOM      6  C2  UNL     1     -21.102   9.718 -37.398  0.00  0.00    +0.000 A 
ATOM      7  C3  UNL     1     -19.879   9.780 -38.063  0.00  0.00    +0.000 A 
ATOM      8  C4  UNL     1     -19.372   8.646 -38.695  0.00  0.00    +0.000 A 
ATOM      9  C5  UNL     1     -20.086   7.448 -38.660  0.00  0.00    +0.000 A 
ATOM     10  C6  UNL     1     -21.314   7.373 -37.990  0.00  0.00    +0.000 A 
ENDBRANCH   4  10
ENDBRANCH   3   4
ENDBRANCH   1   3
BRANCH   1  11
ATOM     11  C9  UNL     1     -24.464   4.906 -39.772  0.00  0.00    +0.000 C 
BRANCH  11  12
ATOM     12  C10 UNL     1     -25.686   4.224 -39.222  0.00  0.00    +0.000 A 
ATOM     13  C11 UNL     1     -25.627   2.938 -38.677  0.00  0.00    +0.000 A 
ATOM     14  C12 UNL     1     -26.781   2.348 -38.171  0.00  0.00    +0.000 A 
ATOM     15  C13 UNL     1     -27.964   3.065 -38.228  0.00  0.00    +0.000 A 
ATOM     16  N2  UNL     1     -28.064   4.307 -38.746  0.00  0.00    +0.000 NA
ATOM     17  C14 UNL     1     -26.926   4.856 -39.230  0.00  0.00    +0.000 A 
ENDBRANCH  11  12
ENDBRANCH   1  11
TORSDOF 5
ENDMDL
MODEL 3
REMARK VINA RESULT:    -4.109     11.752     14.160
REMARK INTER + INTRA:          -6.957
REMARK INTER:                  -5.327
REMARK INTRA:                  -1.630
REMARK UNBOUND:                -1.647
REMARK  Name = /home/anacleto/Desktop/manuscript_Mpro/naturecomm/supplementary_file_S2/6-chemical-library/molecular_docking/3D_ligand_structure/726.pdb
REMARK  5 active torsions:
REMARK  status: ('A' for Active; 'I' for Inactive)
REMARK    1  A    between atoms: C6_6  and  C7_7
REMARK    2  A    between atoms: C7_7  and  C8_8
REMARK    3  A    between atoms: C8_8  and  N1_9
REMARK    4  A    between atoms: N1_9  and  C9_10
REMARK    5  A    between atoms: C9_10  and  C10_11
REMARK                            x       y       z     vdW  Elec       q    Type
REMARK                         _______ _______ _______ _____ _____    ______ ____
ROOT
ATOM      1  N1  UNL     1     -30.157   1.772 -40.470  0.00  0.00    +0.000 NA
ATOM      2  H10 UNL     1     -30.192   2.095 -39.503  0.00  0.00    +0.000 HD
ENDROOT
BRANCH   1   3
ATOM      3  C8  UNL     1     -30.826   2.768 -41.316  0.00  0.00    +0.000 C 
BRANCH   3   4
ATOM      4  C7  UNL     1     -31.483   3.916 -40.536  0.00  0.00    +0.000 C 
BRANCH   4  10
ATOM      5  C1  UNL     1     -30.535   5.072 -38.497  0.00  0.00    +0.000 A 
ATOM      6  C2  UNL     1     -29.592   5.898 -37.883  0.00  0.00    +0.000 A 
ATOM      7  C3  UNL     1     -28.558   6.454 -38.635  0.00  0.00    +0.000 A 
ATOM      8  C4  UNL     1     -28.468   6.187 -40.000  0.00  0.00    +0.000 A 
ATOM      9  C5  UNL     1     -29.410   5.362 -40.614  0.00  0.00    +0.000 A 
ATOM     10  C6  UNL     1     -30.450   4.794 -39.868  0.00  0.00    +0.000 A 
ENDBRANCH   4  10
ENDBRANCH   3   4
ENDBRANCH   1   3
BRANCH   1  11
ATOM     11  C9  UNL     1     -28.765   1.492 -40.827  0.00  0.00    +0.000 C 
BRANCH  11  12
ATOM     12  C10 UNL     1     -27.753   2.266 -40.028  0.00  0.00    +0.000 A 
ATOM     13  C11 UNL     1     -27.856   2.395 -38.640  0.00  0.00    +0.000 A 
ATOM     14  C12 UNL     1     -26.892   3.113 -37.939  0.00  0.00    +0.000 A 
ATOM     15  C13 UNL     1     -25.851   3.684 -38.652  0.00  0.00    +0.000 A 
ATOM     16  N2  UNL     1     -25.716   3.583 -39.991  0.00  0.00    +0.000 NA
ATOM     17  C14 UNL     1     -26.667   2.878 -40.646  0.00  0.00    +0.000 A 
ENDBRANCH  11  12
ENDBRANCH   1  11
TORSDOF 5
ENDMDL
MODEL 4
REMARK VINA RESULT:    -3.962     11.589     14.030
REMARK INTER + INTRA:          -6.768
REMARK INTER:                  -5.399
REMARK INTRA:                  -1.368
REMARK UNBOUND:                -1.647
REMARK  Name = /home/anacleto/Desktop/manuscript_Mpro/naturecomm/supplementary_file_S2/6-chemical-library/molecular_docking/3D_ligand_structure/726.pdb
REMARK  5 active torsions:
REMARK  status: ('A' for Active; 'I' for Inactive)
REMARK    1  A    between atoms: C6_6  and  C7_7
REMARK    2  A    between atoms: C7_7  and  C8_8
REMARK    3  A    between atoms: C8_8  and  N1_9
REMARK    4  A    between atoms: N1_9  and  C9_10
REMARK    5  A    between atoms: C9_10  and  C10_11
REMARK                            x       y       z     vdW  Elec       q    Type
REMARK                         _______ _______ _______ _____ _____    ______ ____
ROOT
ATOM      1  N1  UNL     1     -28.703   3.396 -38.264  0.00  0.00    +0.000 NA
ATOM      2  H10 UNL     1     -29.515   3.009 -37.782  0.00  0.00    +0.000 HD
ENDROOT
BRANCH   1   3
ATOM      3  C8  UNL     1     -27.825   2.286 -38.656  0.00  0.00    +0.000 C 
BRANCH   3   4
ATOM      4  C7  UNL     1     -26.376   2.430 -38.170  0.00  0.00    +0.000 C 
BRANCH   4  10
ATOM      5  C1  UNL     1     -24.966   4.494 -38.550  0.00  0.00    +0.000 A 
ATOM      6  C2  UNL     1     -24.244   5.349 -39.384  0.00  0.00    +0.000 A 
ATOM      7  C3  UNL     1     -24.128   5.063 -40.744  0.00  0.00    +0.000 A 
ATOM      8  C4  UNL     1     -24.737   3.925 -41.270  0.00  0.00    +0.000 A 
ATOM      9  C5  UNL     1     -25.459   3.070 -40.438  0.00  0.00    +0.000 A 
ATOM     10  C6  UNL     1     -25.577   3.344 -39.069  0.00  0.00    +0.000 A 
ENDBRANCH   4  10
ENDBRANCH   3   4
ENDBRANCH   1   3
BRANCH   1  11
ATOM     11  C9  UNL     1     -29.162   4.242 -39.367  0.00  0.00    +0.000 C 
BRANCH  11  12
ATOM     12  C10 UNL     1     -28.629   5.648 -39.332  0.00  0.00    +0.000 A 
ATOM     13  C11 UNL     1     -27.781   6.137 -40.329  0.00  0.00    +0.000 A 
ATOM     14  C12 UNL     1     -27.318   7.447 -40.262  0.00  0.00    +0.000 A 
ATOM     15  C13 UNL     1     -27.720   8.232 -39.193  0.00  0.00    +0.000 A 
ATOM     16  N2  UNL     1     -28.537   7.797 -38.210  0.00  0.00    +0.000 NA
ATOM     17  C14 UNL     1     -28.972   6.519 -38.302  0.00  0.00    +0.000 A 
ENDBRANCH  11  12
ENDBRANCH   1  11
TORSDOF 5
ENDMDL
MODEL 5
REMARK VINA RESULT:    -3.884     17.990     19.094
REMARK INTER + INTRA:          -6.666
REMARK INTER:                  -6.475
REMARK INTRA:                  -0.191
REMARK UNBOUND:                -1.647
REMARK  Name = /home/anacleto/Desktop/manuscript_Mpro/naturecomm/supplementary_file_S2/6-chemical-library/molecular_docking/3D_ligand_structure/726.pdb
REMARK  5 active torsions:
REMARK  status: ('A' for Active; 'I' for Inactive)
REMARK    1  A    between atoms: C6_6  and  C7_7
REMARK    2  A    between atoms: C7_7  and  C8_8
REMARK    3  A    between atoms: C8_8  and  N1_9
REMARK    4  A    between atoms: N1_9  and  C9_10
REMARK    5  A    between atoms: C9_10  and  C10_11
REMARK                            x       y       z     vdW  Elec       q    Type
REMARK                         _______ _______ _______ _____ _____    ______ ____
ROOT
ATOM      1  N1  UNL     1     -37.292   4.183 -15.717  0.00  0.00    +0.000 NA
ATOM      2  H10 UNL     1     -36.286   4.286 -15.856  0.00  0.00    +0.000 HD
ENDROOT
BRANCH   1   3
ATOM      3  C8  UNL     1     -37.634   2.762 -15.854  0.00  0.00    +0.000 C 
BRANCH   3   4
ATOM      4  C7  UNL     1     -37.440   2.202 -17.270  0.00  0.00    +0.000 C 
BRANCH   4  10
ATOM      5  C1  UNL     1     -36.994  -0.140 -16.426  0.00  0.00    +0.000 A 
ATOM      6  C2  UNL     1     -36.233  -1.309 -16.399  0.00  0.00    +0.000 A 
ATOM      7  C3  UNL     1     -35.098  -1.421 -17.201  0.00  0.00    +0.000 A 
ATOM      8  C4  UNL     1     -34.722  -0.362 -18.026  0.00  0.00    +0.000 A 
ATOM      9  C5  UNL     1     -35.482   0.807 -18.053  0.00  0.00    +0.000 A 
ATOM     10  C6  UNL     1     -36.627   0.928 -17.256  0.00  0.00    +0.000 A 
ENDBRANCH   4  10
ENDBRANCH   3   4
ENDBRANCH   1   3
BRANCH   1  11
ATOM     11  C9  UNL     1     -37.659   4.788 -14.436  0.00  0.00    +0.000 C 
BRANCH  11  12
ATOM     12  C10 UNL     1     -38.212   6.182 -14.547  0.00  0.00    +0.000 A 
ATOM     13  C11 UNL     1     -37.467   7.227 -15.099  0.00  0.00    +0.000 A 
ATOM     14  C12 UNL     1     -38.021   8.500 -15.190  0.00  0.00    +0.000 A 
ATOM     15  C13 UNL     1     -39.311   8.689 -14.722  0.00  0.00    +0.000 A 
ATOM     16  N2  UNL     1     -40.064   7.708 -14.182  0.00  0.00    +0.000 NA
ATOM     17  C14 UNL     1     -39.499   6.480 -14.107  0.00  0.00    +0.000 A 
ENDBRANCH  11  12
ENDBRANCH   1  11
TORSDOF 5
ENDMDL
MODEL 6
REMARK VINA RESULT:    -3.881     13.599     15.894
REMARK INTER + INTRA:          -6.662
REMARK INTER:                  -6.482
REMARK INTRA:                  -0.180
REMARK UNBOUND:                -1.647
REMARK  Name = /home/anacleto/Desktop/manuscript_Mpro/naturecomm/supplementary_file_S2/6-chemical-library/molecular_docking/3D_ligand_structure/726.pdb
REMARK  5 active torsions:
REMARK  status: ('A' for Active; 'I' for Inactive)
REMARK    1  A    between atoms: C6_6  and  C7_7
REMARK    2  A    between atoms: C7_7  and  C8_8
REMARK    3  A    between atoms: C8_8  and  N1_9
REMARK    4  A    between atoms: N1_9  and  C9_10
REMARK    5  A    between atoms: C9_10  and  C10_11
REMARK                            x       y       z     vdW  Elec       q    Type
REMARK                         _______ _______ _______ _____ _____    ______ ____
ROOT
ATOM      1  N1  UNL     1     -22.650   6.526 -38.810  0.00  0.00    +0.000 NA
ATOM      2  H10 UNL     1     -21.869   5.950 -39.125  0.00  0.00    +0.000 HD
ENDROOT
BRANCH   1   3
ATOM      3  C8  UNL     1     -23.736   5.638 -38.379  0.00  0.00    +0.000 C 
BRANCH   3   4
ATOM      4  C7  UNL     1     -24.821   5.409 -39.441  0.00  0.00    +0.000 C 
BRANCH   4  10
ATOM      5  C1  UNL     1     -25.508   3.169 -38.490  0.00  0.00    +0.000 A 
ATOM      6  C2  UNL     1     -26.482   2.266 -38.062  0.00  0.00    +0.000 A 
ATOM      7  C3  UNL     1     -27.829   2.622 -38.102  0.00  0.00    +0.000 A 
ATOM      8  C4  UNL     1     -28.203   3.880 -38.572  0.00  0.00    +0.000 A 
ATOM      9  C5  UNL     1     -27.231   4.784 -39.001  0.00  0.00    +0.000 A 
ATOM     10  C6  UNL     1     -25.874   4.438 -38.960  0.00  0.00    +0.000 A 
ENDBRANCH   4  10
ENDBRANCH   3   4
ENDBRANCH   1   3
BRANCH   1  11
ATOM     11  C9  UNL     1     -22.171   7.459 -37.789  0.00  0.00    +0.000 C 
BRANCH  11  12
ATOM     12  C10 UNL     1     -20.860   8.118 -38.119  0.00  0.00    +0.000 A 
ATOM     13  C11 UNL     1     -19.828   7.423 -38.755  0.00  0.00    +0.000 A 
ATOM     14  C12 UNL     1     -18.634   8.074 -39.050  0.00  0.00    +0.000 A 
ATOM     15  C13 UNL     1     -18.509   9.407 -38.696  0.00  0.00    +0.000 A 
ATOM     16  N2  UNL     1     -19.481  10.114 -38.080  0.00  0.00    +0.000 NA
ATOM     17  C14 UNL     1     -20.630   9.455 -37.807  0.00  0.00    +0.000 A 
ENDBRANCH  11  12
ENDBRANCH   1  11
TORSDOF 5
ENDMDL
MODEL 7
REMARK VINA RESULT:    -3.815     13.079     14.687
REMARK INTER + INTRA:          -6.578
REMARK INTER:                  -6.182
REMARK INTRA:                  -0.395
REMARK UNBOUND:                -1.647
REMARK  Name = /home/anacleto/Desktop/manuscript_Mpro/naturecomm/supplementary_file_S2/6-chemical-library/molecular_docking/3D_ligand_structure/726.pdb
REMARK  5 active torsions:
REMARK  status: ('A' for Active; 'I' for Inactive)
REMARK    1  A    between atoms: C6_6  and  C7_7
REMARK    2  A    between atoms: C7_7  and  C8_8
REMARK    3  A    between atoms: C8_8  and  N1_9
REMARK    4  A    between atoms: N1_9  and  C9_10
REMARK    5  A    between atoms: C9_10  and  C10_11
REMARK                            x       y       z     vdW  Elec       q    Type
REMARK                         _______ _______ _______ _____ _____    ______ ____
ROOT
ATOM      1  N1  UNL     1     -23.775   6.730 -40.264  0.00  0.00    +0.000 NA
ATOM      2  H10 UNL     1     -23.766   7.000 -41.248  0.00  0.00    +0.000 HD
ENDROOT
BRANCH   1   3
ATOM      3  C8  UNL     1     -24.233   5.339 -40.170  0.00  0.00    +0.000 C 
BRANCH   3   4
ATOM      4  C7  UNL     1     -24.463   4.849 -38.732  0.00  0.00    +0.000 C 
BRANCH   4  10
ATOM      5  C1  UNL     1     -25.867   2.818 -38.187  0.00  0.00    +0.000 A 
ATOM      6  C2  UNL     1     -27.101   2.176 -38.072  0.00  0.00    +0.000 A 
ATOM      7  C3  UNL     1     -28.277   2.868 -38.359  0.00  0.00    +0.000 A 
ATOM      8  C4  UNL     1     -28.219   4.201 -38.763  0.00  0.00    +0.000 A 
ATOM      9  C5  UNL     1     -26.987   4.844 -38.879  0.00  0.00    +0.000 A 
ATOM     10  C6  UNL     1     -25.799   4.160 -38.589  0.00  0.00    +0.000 A 
ENDBRANCH   4  10
ENDBRANCH   3   4
ENDBRANCH   1   3
BRANCH   1  11
ATOM     11  C9  UNL     1     -22.454   6.988 -39.689  0.00  0.00    +0.000 C 
BRANCH  11  12
ATOM     12  C10 UNL     1     -22.449   8.003 -38.579  0.00  0.00    +0.000 A 
ATOM     13  C11 UNL     1     -21.331   8.194 -37.762  0.00  0.00    +0.000 A 
ATOM     14  C12 UNL     1     -21.367   9.150 -36.753  0.00  0.00    +0.000 A 
ATOM     15  C13 UNL     1     -22.527   9.890 -36.591  0.00  0.00    +0.000 A 
ATOM     16  N2  UNL     1     -23.628   9.737 -37.357  0.00  0.00    +0.000 NA
ATOM     17  C14 UNL     1     -23.563   8.800 -38.331  0.00  0.00    +0.000 A 
ENDBRANCH  11  12
ENDBRANCH   1  11
TORSDOF 5
ENDMDL
MODEL 8
REMARK VINA RESULT:    -3.750     20.285     21.836
REMARK INTER + INTRA:          -6.493
REMARK INTER:                  -5.249
REMARK INTRA:                  -1.244
REMARK UNBOUND:                -1.647
REMARK  Name = /home/anacleto/Desktop/manuscript_Mpro/naturecomm/supplementary_file_S2/6-chemical-library/molecular_docking/3D_ligand_structure/726.pdb
REMARK  5 active torsions:
REMARK  status: ('A' for Active; 'I' for Inactive)
REMARK    1  A    between atoms: C6_6  and  C7_7
REMARK    2  A    between atoms: C7_7  and  C8_8
REMARK    3  A    between atoms: C8_8  and  N1_9
REMARK    4  A    between atoms: N1_9  and  C9_10
REMARK    5  A    between atoms: C9_10  and  C10_11
REMARK                            x       y       z     vdW  Elec       q    Type
REMARK                         _______ _______ _______ _____ _____    ______ ____
ROOT
ATOM      1  N1  UNL     1     -25.639  -3.419 -27.104  0.00  0.00    +0.000 NA
ATOM      2  H10 UNL     1     -24.966  -2.679 -26.901  0.00  0.00    +0.000 HD
ENDROOT
BRANCH   1   3
ATOM      3  C8  UNL     1     -25.481  -3.816 -28.508  0.00  0.00    +0.000 C 
BRANCH   3   4
ATOM      4  C7  UNL     1     -24.150  -3.380 -29.139  0.00  0.00    +0.000 C 
BRANCH   4  10
ATOM      5  C1  UNL     1     -23.006  -5.595 -28.714  0.00  0.00    +0.000 A 
ATOM      6  C2  UNL     1     -21.946  -6.350 -28.211  0.00  0.00    +0.000 A 
ATOM      7  C3  UNL     1     -20.865  -5.715 -27.601  0.00  0.00    +0.000 A 
ATOM      8  C4  UNL     1     -20.845  -4.326 -27.491  0.00  0.00    +0.000 A 
ATOM      9  C5  UNL     1     -21.904  -3.570 -27.993  0.00  0.00    +0.000 A 
ATOM     10  C6  UNL     1     -22.993  -4.197 -28.612  0.00  0.00    +0.000 A 
ENDBRANCH   4  10
ENDBRANCH   3   4
ENDBRANCH   1   3
BRANCH   1  11
ATOM     11  C9  UNL     1     -25.466  -4.499 -26.131  0.00  0.00    +0.000 C 
BRANCH  11  12
ATOM     12  C10 UNL     1     -24.449  -4.212 -25.062  0.00  0.00    +0.000 A 
ATOM     13  C11 UNL     1     -23.404  -5.099 -24.785  0.00  0.00    +0.000 A 
ATOM     14  C12 UNL     1     -22.480  -4.790 -23.792  0.00  0.00    +0.000 A 
ATOM     15  C13 UNL     1     -22.629  -3.598 -23.103  0.00  0.00    +0.000 A 
ATOM     16  N2  UNL     1     -23.623  -2.715 -23.340  0.00  0.00    +0.000 NA
ATOM     17  C14 UNL     1     -24.507  -3.042 -24.311  0.00  0.00    +0.000 A 
ENDBRANCH  11  12
ENDBRANCH   1  11
TORSDOF 5
ENDMDL
MODEL 9
REMARK VINA RESULT:    -3.416     20.583     22.094
REMARK INTER + INTRA:          -6.061
REMARK INTER:                  -4.414
REMARK INTRA:                  -1.647
REMARK UNBOUND:                -1.647
REMARK  Name = /home/anacleto/Desktop/manuscript_Mpro/naturecomm/supplementary_file_S2/6-chemical-library/molecular_docking/3D_ligand_structure/726.pdb
REMARK  5 active torsions:
REMARK  status: ('A' for Active; 'I' for Inactive)
REMARK    1  A    between atoms: C6_6  and  C7_7
REMARK    2  A    between atoms: C7_7  and  C8_8
REMARK    3  A    between atoms: C8_8  and  N1_9
REMARK    4  A    between atoms: N1_9  and  C9_10
REMARK    5  A    between atoms: C9_10  and  C10_11
REMARK                            x       y       z     vdW  Elec       q    Type
REMARK                         _______ _______ _______ _____ _____    ______ ____
ROOT
ATOM      1  N1  UNL     1     -24.749  -4.594 -22.255  0.00  0.00    +0.000 NA
ATOM      2  H10 UNL     1     -24.606  -4.416 -21.260  0.00  0.00    +0.000 HD
ENDROOT
BRANCH   1   3
ATOM      3  C8  UNL     1     -23.703  -3.889 -23.006  0.00  0.00    +0.000 C 
BRANCH   3   4
ATOM      4  C7  UNL     1     -24.238  -2.941 -24.089  0.00  0.00    +0.000 C 
BRANCH   4  10
ATOM      5  C1  UNL     1     -23.250  -4.288 -25.987  0.00  0.00    +0.000 A 
ATOM      6  C2  UNL     1     -23.355  -4.914 -27.230  0.00  0.00    +0.000 A 
ATOM      7  C3  UNL     1     -24.564  -4.892 -27.923  0.00  0.00    +0.000 A 
ATOM      8  C4  UNL     1     -25.669  -4.241 -27.375  0.00  0.00    +0.000 A 
ATOM      9  C5  UNL     1     -25.565  -3.615 -26.133  0.00  0.00    +0.000 A 
ATOM     10  C6  UNL     1     -24.357  -3.636 -25.426  0.00  0.00    +0.000 A 
ENDBRANCH   4  10
ENDBRANCH   3   4
ENDBRANCH   1   3
BRANCH   1  11
ATOM     11  C9  UNL     1     -24.803  -6.040 -22.476  0.00  0.00    +0.000 C 
BRANCH  11  12
ATOM     12  C10 UNL     1     -25.638  -6.455 -23.656  0.00  0.00    +0.000 A 
ATOM     13  C11 UNL     1     -25.115  -7.241 -24.686  0.00  0.00    +0.000 A 
ATOM     14  C12 UNL     1     -25.926  -7.609 -25.755  0.00  0.00    +0.000 A 
ATOM     15  C13 UNL     1     -27.242  -7.176 -25.760  0.00  0.00    +0.000 A 
ATOM     16  N2  UNL     1     -27.785  -6.416 -24.786  0.00  0.00    +0.000 NA
ATOM     17  C14 UNL     1     -26.973  -6.074 -23.759  0.00  0.00    +0.000 A 
ENDBRANCH  11  12
ENDBRANCH   1  11
TORSDOF 5
ENDMDL
