MODEL 1
REMARK VINA RESULT:    -4.802      0.000      0.000
REMARK INTER + INTRA:          -5.832
REMARK INTER:                  -5.507
REMARK INTRA:                  -0.324
REMARK UNBOUND:                -0.468
REMARK  Name = /home/anacleto/Desktop/manuscript_Mpro/naturecomm/supplementary_file_S2/6-chemical-library/molecular_docking/3D_ligand_structure/1004.pdb
REMARK  2 active torsions:
REMARK  status: ('A' for Active; 'I' for Inactive)
REMARK    1  A    between atoms: C6_6  and  C7_7
REMARK    2  A    between atoms: C7_7  and  C8_9
REMARK                            x       y       z     vdW  Elec       q    Type
REMARK                         _______ _______ _______ _____ _____    ______ ____
ROOT
ATOM      1  C7  UNL     1     -25.477   6.057 -39.217  0.00  0.00    +0.000 C 
ATOM      2  O1  UNL     1     -26.188   7.003 -39.548  0.00  0.00    +0.000 OA
ENDROOT
BRANCH   1   8
ATOM      3  C1  UNL     1     -23.314   6.135 -37.926  0.00  0.00    +0.000 A 
ATOM      4  C2  UNL     1     -21.928   6.309 -37.897  0.00  0.00    +0.000 A 
ATOM      5  C3  UNL     1     -21.233   6.582 -39.076  0.00  0.00    +0.000 A 
ATOM      6  C4  UNL     1     -21.918   6.673 -40.288  0.00  0.00    +0.000 A 
ATOM      7  C5  UNL     1     -23.302   6.500 -40.321  0.00  0.00    +0.000 A 
ATOM      8  C6  UNL     1     -24.006   6.248 -39.138  0.00  0.00    +0.000 A 
ENDBRANCH   1   8
BRANCH   1   9
ATOM      9  C8  UNL     1     -26.108   4.750 -38.902  0.00  0.00    +0.000 A 
ATOM     10  C9  UNL     1     -25.347   3.586 -38.735  0.00  0.00    +0.000 A 
ATOM     11  C10 UNL     1     -25.979   2.380 -38.428  0.00  0.00    +0.000 A 
ATOM     12  C11 UNL     1     -27.365   2.335 -38.274  0.00  0.00    +0.000 A 
ATOM     13  C12 UNL     1     -28.123   3.498 -38.418  0.00  0.00    +0.000 A 
ATOM     14  C13 UNL     1     -27.496   4.706 -38.725  0.00  0.00    +0.000 A 
ENDBRANCH   1   9
TORSDOF 2
ENDMDL
MODEL 2
REMARK VINA RESULT:    -4.793      0.040      5.095
REMARK INTER + INTRA:          -5.821
REMARK INTER:                  -5.512
REMARK INTRA:                  -0.309
REMARK UNBOUND:                -0.468
REMARK  Name = /home/anacleto/Desktop/manuscript_Mpro/naturecomm/supplementary_file_S2/6-chemical-library/molecular_docking/3D_ligand_structure/1004.pdb
REMARK  2 active torsions:
REMARK  status: ('A' for Active; 'I' for Inactive)
REMARK    1  A    between atoms: C6_6  and  C7_7
REMARK    2  A    between atoms: C7_7  and  C8_9
REMARK                            x       y       z     vdW  Elec       q    Type
REMARK                         _______ _______ _______ _____ _____    ______ ____
ROOT
ATOM      1  C7  UNL     1     -25.492   6.077 -39.224  0.00  0.00    +0.000 C 
ATOM      2  O1  UNL     1     -26.204   7.019 -39.562  0.00  0.00    +0.000 OA
ENDROOT
BRANCH   1   8
ATOM      3  C1  UNL     1     -25.358   3.618 -38.686  0.00  0.00    +0.000 A 
ATOM      4  C2  UNL     1     -25.989   2.414 -38.367  0.00  0.00    +0.000 A 
ATOM      5  C3  UNL     1     -27.378   2.363 -38.247  0.00  0.00    +0.000 A 
ATOM      6  C4  UNL     1     -28.141   3.516 -38.435  0.00  0.00    +0.000 A 
ATOM      7  C5  UNL     1     -27.513   4.721 -38.753  0.00  0.00    +0.000 A 
ATOM      8  C6  UNL     1     -26.122   4.772 -38.897  0.00  0.00    +0.000 A 
ENDBRANCH   1   8
BRANCH   1   9
ATOM      9  C8  UNL     1     -24.021   6.267 -39.153  0.00  0.00    +0.000 A 
ATOM     10  C9  UNL     1     -23.323   6.165 -37.944  0.00  0.00    +0.000 A 
ATOM     11  C10 UNL     1     -21.937   6.339 -37.923  0.00  0.00    +0.000 A 
ATOM     12  C11 UNL     1     -21.247   6.602 -39.107  0.00  0.00    +0.000 A 
ATOM     13  C12 UNL     1     -21.938   6.682 -40.317  0.00  0.00    +0.000 A 
ATOM     14  C13 UNL     1     -23.323   6.508 -40.342  0.00  0.00    +0.000 A 
ENDBRANCH   1   9
TORSDOF 2
ENDMDL
MODEL 3
REMARK VINA RESULT:    -4.753      1.626      2.281
REMARK INTER + INTRA:          -5.777
REMARK INTER:                  -5.337
REMARK INTRA:                  -0.440
REMARK UNBOUND:                -0.468
REMARK  Name = /home/anacleto/Desktop/manuscript_Mpro/naturecomm/supplementary_file_S2/6-chemical-library/molecular_docking/3D_ligand_structure/1004.pdb
REMARK  2 active torsions:
REMARK  status: ('A' for Active; 'I' for Inactive)
REMARK    1  A    between atoms: C6_6  and  C7_7
REMARK    2  A    between atoms: C7_7  and  C8_9
REMARK                            x       y       z     vdW  Elec       q    Type
REMARK                         _______ _______ _______ _____ _____    ______ ____
ROOT
ATOM      1  C7  UNL     1     -24.908   6.410 -38.984  0.00  0.00    +0.000 C 
ATOM      2  O1  UNL     1     -25.902   7.131 -39.012  0.00  0.00    +0.000 OA
ENDROOT
BRANCH   1   8
ATOM      3  C1  UNL     1     -22.471   6.174 -38.384  0.00  0.00    +0.000 A 
ATOM      4  C2  UNL     1     -21.287   6.729 -37.895  0.00  0.00    +0.000 A 
ATOM      5  C3  UNL     1     -21.256   8.063 -37.489  0.00  0.00    +0.000 A 
ATOM      6  C4  UNL     1     -22.404   8.851 -37.581  0.00  0.00    +0.000 A 
ATOM      7  C5  UNL     1     -23.589   8.300 -38.070  0.00  0.00    +0.000 A 
ATOM      8  C6  UNL     1     -23.631   6.955 -38.457  0.00  0.00    +0.000 A 
ENDBRANCH   1   8
BRANCH   1   9
ATOM      9  C8  UNL     1     -25.011   5.013 -39.477  0.00  0.00    +0.000 A 
ATOM     10  C9  UNL     1     -25.463   3.974 -38.654  0.00  0.00    +0.000 A 
ATOM     11  C10 UNL     1     -25.557   2.676 -39.161  0.00  0.00    +0.000 A 
ATOM     12  C11 UNL     1     -25.213   2.416 -40.488  0.00  0.00    +0.000 A 
ATOM     13  C12 UNL     1     -24.783   3.454 -41.316  0.00  0.00    +0.000 A 
ATOM     14  C13 UNL     1     -24.688   4.753 -40.814  0.00  0.00    +0.000 A 
ENDBRANCH   1   9
TORSDOF 2
ENDMDL
MODEL 4
REMARK VINA RESULT:    -4.653      0.785      5.115
REMARK INTER + INTRA:          -5.665
REMARK INTER:                  -5.324
REMARK INTRA:                  -0.341
REMARK UNBOUND:                -0.468
REMARK  Name = /home/anacleto/Desktop/manuscript_Mpro/naturecomm/supplementary_file_S2/6-chemical-library/molecular_docking/3D_ligand_structure/1004.pdb
REMARK  2 active torsions:
REMARK  status: ('A' for Active; 'I' for Inactive)
REMARK    1  A    between atoms: C6_6  and  C7_7
REMARK    2  A    between atoms: C7_7  and  C8_9
REMARK                            x       y       z     vdW  Elec       q    Type
REMARK                         _______ _______ _______ _____ _____    ______ ____
ROOT
ATOM      1  C7  UNL     1     -25.098   5.614 -40.085  0.00  0.00    +0.000 C 
ATOM      2  O1  UNL     1     -25.472   6.153 -41.124  0.00  0.00    +0.000 OA
ENDROOT
BRANCH   1   8
ATOM      3  C1  UNL     1     -27.251   5.006 -38.924  0.00  0.00    +0.000 A 
ATOM      4  C2  UNL     1     -28.067   4.053 -38.311  0.00  0.00    +0.000 A 
ATOM      5  C3  UNL     1     -27.635   2.732 -38.197  0.00  0.00    +0.000 A 
ATOM      6  C4  UNL     1     -26.391   2.355 -38.703  0.00  0.00    +0.000 A 
ATOM      7  C5  UNL     1     -25.573   3.304 -39.317  0.00  0.00    +0.000 A 
ATOM      8  C6  UNL     1     -25.992   4.636 -39.414  0.00  0.00    +0.000 A 
ENDBRANCH   1   8
BRANCH   1   9
ATOM      9  C8  UNL     1     -23.763   5.952 -39.531  0.00  0.00    +0.000 A 
ATOM     10  C9  UNL     1     -22.762   6.527 -40.324  0.00  0.00    +0.000 A 
ATOM     11  C10 UNL     1     -21.523   6.842 -39.761  0.00  0.00    +0.000 A 
ATOM     12  C11 UNL     1     -21.287   6.596 -38.408  0.00  0.00    +0.000 A 
ATOM     13  C12 UNL     1     -22.291   6.044 -37.611  0.00  0.00    +0.000 A 
ATOM     14  C13 UNL     1     -23.531   5.728 -38.169  0.00  0.00    +0.000 A 
ENDBRANCH   1   9
TORSDOF 2
ENDMDL
MODEL 5
REMARK VINA RESULT:    -4.589      1.443      2.171
REMARK INTER + INTRA:          -5.594
REMARK INTER:                  -5.159
REMARK INTRA:                  -0.435
REMARK UNBOUND:                -0.468
REMARK  Name = /home/anacleto/Desktop/manuscript_Mpro/naturecomm/supplementary_file_S2/6-chemical-library/molecular_docking/3D_ligand_structure/1004.pdb
REMARK  2 active torsions:
REMARK  status: ('A' for Active; 'I' for Inactive)
REMARK    1  A    between atoms: C6_6  and  C7_7
REMARK    2  A    between atoms: C7_7  and  C8_9
REMARK                            x       y       z     vdW  Elec       q    Type
REMARK                         _______ _______ _______ _____ _____    ______ ____
ROOT
ATOM      1  C7  UNL     1     -24.653   4.990 -39.831  0.00  0.00    +0.000 C 
ATOM      2  O1  UNL     1     -24.238   4.694 -40.949  0.00  0.00    +0.000 OA
ENDROOT
BRANCH   1   8
ATOM      3  C1  UNL     1     -24.757   7.294 -38.815  0.00  0.00    +0.000 A 
ATOM      4  C2  UNL     1     -24.143   8.338 -38.120  0.00  0.00    +0.000 A 
ATOM      5  C3  UNL     1     -22.816   8.218 -37.707  0.00  0.00    +0.000 A 
ATOM      6  C4  UNL     1     -22.101   7.051 -37.978  0.00  0.00    +0.000 A 
ATOM      7  C5  UNL     1     -22.711   6.006 -38.671  0.00  0.00    +0.000 A 
ATOM      8  C6  UNL     1     -24.036   6.130 -39.107  0.00  0.00    +0.000 A 
ENDBRANCH   1   8
BRANCH   1   9
ATOM      9  C8  UNL     1     -25.762   4.202 -39.236  0.00  0.00    +0.000 A 
ATOM     10  C9  UNL     1     -27.104   4.548 -39.441  0.00  0.00    +0.000 A 
ATOM     11  C10 UNL     1     -28.117   3.773 -38.874  0.00  0.00    +0.000 A 
ATOM     12  C11 UNL     1     -27.794   2.647 -38.115  0.00  0.00    +0.000 A 
ATOM     13  C12 UNL     1     -26.459   2.287 -37.929  0.00  0.00    +0.000 A 
ATOM     14  C13 UNL     1     -25.443   3.059 -38.494  0.00  0.00    +0.000 A 
ENDBRANCH   1   9
TORSDOF 2
ENDMDL
MODEL 6
REMARK VINA RESULT:    -4.508      1.531      5.340
REMARK INTER + INTRA:          -5.503
REMARK INTER:                  -5.048
REMARK INTRA:                  -0.455
REMARK UNBOUND:                -0.468
REMARK  Name = /home/anacleto/Desktop/manuscript_Mpro/naturecomm/supplementary_file_S2/6-chemical-library/molecular_docking/3D_ligand_structure/1004.pdb
REMARK  2 active torsions:
REMARK  status: ('A' for Active; 'I' for Inactive)
REMARK    1  A    between atoms: C6_6  and  C7_7
REMARK    2  A    between atoms: C7_7  and  C8_9
REMARK                            x       y       z     vdW  Elec       q    Type
REMARK                         _______ _______ _______ _____ _____    ______ ____
ROOT
ATOM      1  C7  UNL     1     -24.073   6.712 -39.627  0.00  0.00    +0.000 C 
ATOM      2  O1  UNL     1     -24.839   7.635 -39.893  0.00  0.00    +0.000 OA
ENDROOT
BRANCH   1   8
ATOM      3  C1  UNL     1     -24.547   4.629 -40.965  0.00  0.00    +0.000 A 
ATOM      4  C2  UNL     1     -24.997   3.309 -41.028  0.00  0.00    +0.000 A 
ATOM      5  C3  UNL     1     -25.444   2.667 -39.874  0.00  0.00    +0.000 A 
ATOM      6  C4  UNL     1     -25.433   3.337 -38.650  0.00  0.00    +0.000 A 
ATOM      7  C5  UNL     1     -24.983   4.656 -38.583  0.00  0.00    +0.000 A 
ATOM      8  C6  UNL     1     -24.556   5.312 -39.742  0.00  0.00    +0.000 A 
ENDBRANCH   1   8
BRANCH   1   9
ATOM      9  C8  UNL     1     -22.685   7.021 -39.199  0.00  0.00    +0.000 A 
ATOM     10  C9  UNL     1     -21.582   6.736 -40.014  0.00  0.00    +0.000 A 
ATOM     11  C10 UNL     1     -20.294   7.055 -39.579  0.00  0.00    +0.000 A 
ATOM     12  C11 UNL     1     -20.106   7.668 -38.341  0.00  0.00    +0.000 A 
ATOM     13  C12 UNL     1     -21.205   7.974 -37.537  0.00  0.00    +0.000 A 
ATOM     14  C13 UNL     1     -22.494   7.658 -37.967  0.00  0.00    +0.000 A 
ENDBRANCH   1   9
TORSDOF 2
ENDMDL
MODEL 7
REMARK VINA RESULT:    -4.477      3.062      4.905
REMARK INTER + INTRA:          -5.468
REMARK INTER:                  -5.006
REMARK INTRA:                  -0.463
REMARK UNBOUND:                -0.468
REMARK  Name = /home/anacleto/Desktop/manuscript_Mpro/naturecomm/supplementary_file_S2/6-chemical-library/molecular_docking/3D_ligand_structure/1004.pdb
REMARK  2 active torsions:
REMARK  status: ('A' for Active; 'I' for Inactive)
REMARK    1  A    between atoms: C6_6  and  C7_7
REMARK    2  A    between atoms: C7_7  and  C8_9
REMARK                            x       y       z     vdW  Elec       q    Type
REMARK                         _______ _______ _______ _____ _____    ______ ____
ROOT
ATOM      1  C7  UNL     1     -21.165   8.258 -37.513  0.00  0.00    +0.000 C 
ATOM      2  O1  UNL     1     -21.212   8.714 -36.373  0.00  0.00    +0.000 OA
ENDROOT
BRANCH   1   8
ATOM      3  C1  UNL     1     -19.511   7.577 -39.288  0.00  0.00    +0.000 A 
ATOM      4  C2  UNL     1     -18.382   7.857 -40.061  0.00  0.00    +0.000 A 
ATOM      5  C3  UNL     1     -17.709   9.069 -39.901  0.00  0.00    +0.000 A 
ATOM      6  C4  UNL     1     -18.168  10.009 -38.978  0.00  0.00    +0.000 A 
ATOM      7  C5  UNL     1     -19.296   9.733 -38.205  0.00  0.00    +0.000 A 
ATOM      8  C6  UNL     1     -19.961   8.509 -38.345  0.00  0.00    +0.000 A 
ENDBRANCH   1   8
BRANCH   1   9
ATOM      9  C8  UNL     1     -22.313   7.469 -38.027  0.00  0.00    +0.000 A 
ATOM     10  C9  UNL     1     -22.469   6.112 -37.718  0.00  0.00    +0.000 A 
ATOM     11  C10 UNL     1     -23.570   5.408 -38.212  0.00  0.00    +0.000 A 
ATOM     12  C11 UNL     1     -24.520   6.059 -39.000  0.00  0.00    +0.000 A 
ATOM     13  C12 UNL     1     -24.378   7.416 -39.289  0.00  0.00    +0.000 A 
ATOM     14  C13 UNL     1     -23.280   8.124 -38.798  0.00  0.00    +0.000 A 
ENDBRANCH   1   9
TORSDOF 2
ENDMDL
MODEL 8
REMARK VINA RESULT:    -4.441      1.799      5.228
REMARK INTER + INTRA:          -5.428
REMARK INTER:                  -4.980
REMARK INTRA:                  -0.448
REMARK UNBOUND:                -0.468
REMARK  Name = /home/anacleto/Desktop/manuscript_Mpro/naturecomm/supplementary_file_S2/6-chemical-library/molecular_docking/3D_ligand_structure/1004.pdb
REMARK  2 active torsions:
REMARK  status: ('A' for Active; 'I' for Inactive)
REMARK    1  A    between atoms: C6_6  and  C7_7
REMARK    2  A    between atoms: C7_7  and  C8_9
REMARK                            x       y       z     vdW  Elec       q    Type
REMARK                         _______ _______ _______ _____ _____    ______ ____
ROOT
ATOM      1  C7  UNL     1     -23.612   6.051 -40.344  0.00  0.00    +0.000 C 
ATOM      2  O1  UNL     1     -23.517   6.349 -41.532  0.00  0.00    +0.000 OA
ENDROOT
BRANCH   1   8
ATOM      3  C1  UNL     1     -24.888   4.681 -38.656  0.00  0.00    +0.000 A 
ATOM      4  C2  UNL     1     -25.638   3.548 -38.337  0.00  0.00    +0.000 A 
ATOM      5  C3  UNL     1     -25.915   2.594 -39.317  0.00  0.00    +0.000 A 
ATOM      6  C4  UNL     1     -25.451   2.774 -40.621  0.00  0.00    +0.000 A 
ATOM      7  C5  UNL     1     -24.701   3.906 -40.943  0.00  0.00    +0.000 A 
ATOM      8  C6  UNL     1     -24.402   4.854 -39.958  0.00  0.00    +0.000 A 
ENDBRANCH   1   8
BRANCH   1   9
ATOM      9  C8  UNL     1     -22.935   6.895 -39.327  0.00  0.00    +0.000 A 
ATOM     10  C9  UNL     1     -23.556   8.020 -38.772  0.00  0.00    +0.000 A 
ATOM     11  C10 UNL     1     -22.888   8.780 -37.809  0.00  0.00    +0.000 A 
ATOM     12  C11 UNL     1     -21.609   8.412 -37.391  0.00  0.00    +0.000 A 
ATOM     13  C12 UNL     1     -20.997   7.278 -37.927  0.00  0.00    +0.000 A 
ATOM     14  C13 UNL     1     -21.661   6.515 -38.889  0.00  0.00    +0.000 A 
ENDBRANCH   1   9
TORSDOF 2
ENDMDL
MODEL 9
REMARK VINA RESULT:    -4.420      3.045      6.926
REMARK INTER + INTRA:          -5.405
REMARK INTER:                  -4.937
REMARK INTRA:                  -0.468
REMARK UNBOUND:                -0.468
REMARK  Name = /home/anacleto/Desktop/manuscript_Mpro/naturecomm/supplementary_file_S2/6-chemical-library/molecular_docking/3D_ligand_structure/1004.pdb
REMARK  2 active torsions:
REMARK  status: ('A' for Active; 'I' for Inactive)
REMARK    1  A    between atoms: C6_6  and  C7_7
REMARK    2  A    between atoms: C7_7  and  C8_9
REMARK                            x       y       z     vdW  Elec       q    Type
REMARK                         _______ _______ _______ _____ _____    ______ ____
ROOT
ATOM      1  C7  UNL     1     -21.202   8.265 -37.515  0.00  0.00    +0.000 C 
ATOM      2  O1  UNL     1     -21.352   8.693 -36.373  0.00  0.00    +0.000 OA
ENDROOT
BRANCH   1   8
ATOM      3  C1  UNL     1     -22.530   6.125 -37.603  0.00  0.00    +0.000 A 
ATOM      4  C2  UNL     1     -23.536   5.349 -38.183  0.00  0.00    +0.000 A 
ATOM      5  C3  UNL     1     -24.274   5.849 -39.256  0.00  0.00    +0.000 A 
ATOM      6  C4  UNL     1     -24.016   7.129 -39.748  0.00  0.00    +0.000 A 
ATOM      7  C5  UNL     1     -23.011   7.907 -39.171  0.00  0.00    +0.000 A 
ATOM      8  C6  UNL     1     -22.253   7.401 -38.109  0.00  0.00    +0.000 A 
ENDBRANCH   1   8
BRANCH   1   9
ATOM      9  C8  UNL     1     -19.974   8.625 -38.269  0.00  0.00    +0.000 A 
ATOM     10  C9  UNL     1     -19.358   7.723 -39.145  0.00  0.00    +0.000 A 
ATOM     11  C10 UNL     1     -18.212   8.105 -39.845  0.00  0.00    +0.000 A 
ATOM     12  C11 UNL     1     -17.688   9.388 -39.682  0.00  0.00    +0.000 A 
ATOM     13  C12 UNL     1     -18.314  10.296 -38.827  0.00  0.00    +0.000 A 
ATOM     14  C13 UNL     1     -19.460   9.919 -38.126  0.00  0.00    +0.000 A 
ENDBRANCH   1   9
TORSDOF 2
ENDMDL
