MODEL 1
REMARK VINA RESULT:    -4.855      0.000      0.000
REMARK INTER + INTRA:          -6.023
REMARK INTER:                  -5.791
REMARK INTRA:                  -0.232
REMARK UNBOUND:                -0.317
REMARK  Name = /home/anacleto/Desktop/manuscript_Mpro/naturecomm/supplementary_file_S2/6-chemical-library/molecular_docking/3D_ligand_structure/836.pdb
REMARK  3 active torsions:
REMARK  status: ('A' for Active; 'I' for Inactive)
REMARK    1  A    between atoms: C3_5  and  C4_6
REMARK    2  A    between atoms: N3_8  and  C5_9
REMARK    3  A    between atoms: C5_9  and  C6_10
REMARK                            x       y       z     vdW  Elec       q    Type
REMARK                         _______ _______ _______ _____ _____    ______ ____
ROOT
ATOM      1  C4  UNL     1     -23.061   6.859 -38.333  0.00  0.00    +0.000 C 
ATOM      2  O1  UNL     1     -21.986   6.276 -38.429  0.00  0.00    +0.000 OA
ATOM      3  N3  UNL     1     -24.266   6.332 -38.730  0.00  0.00    +0.000 N 
ATOM      4  H4  UNL     1     -25.057   6.969 -38.683  0.00  0.00    +0.000 HD
ENDROOT
BRANCH   1   9
ATOM      5  N1  UNL     1     -22.140   8.914 -37.228  0.00  0.00    +0.000 NA
ATOM      6  C1  UNL     1     -22.648  10.067 -36.853  0.00  0.00    +0.000 A 
ATOM      7  N2  UNL     1     -23.980  10.148 -37.142  0.00  0.00    +0.000 N 
ATOM      8  C2  UNL     1     -24.348   8.973 -37.738  0.00  0.00    +0.000 A 
ATOM      9  C3  UNL     1     -23.199   8.210 -37.789  0.00  0.00    +0.000 A 
ATOM     10  H2  UNL     1     -24.583  10.936 -36.946  0.00  0.00    +0.000 HD
ENDBRANCH   1   9
BRANCH   3  11
ATOM     11  C5  UNL     1     -24.384   5.072 -39.414  0.00  0.00    +0.000 C 
BRANCH  11  12
ATOM     12  C6  UNL     1     -25.615   4.328 -38.987  0.00  0.00    +0.000 A 
ATOM     13  C7  UNL     1     -25.547   3.012 -38.522  0.00  0.00    +0.000 A 
ATOM     14  C8  UNL     1     -26.711   2.350 -38.147  0.00  0.00    +0.000 A 
ATOM     15  C9  UNL     1     -27.914   3.028 -38.253  0.00  0.00    +0.000 A 
ATOM     16  N4  UNL     1     -28.023   4.297 -38.702  0.00  0.00    +0.000 NA
ATOM     17  C10 UNL     1     -26.875   4.914 -39.062  0.00  0.00    +0.000 A 
ENDBRANCH  11  12
ENDBRANCH   3  11
TORSDOF 3
ENDMDL
MODEL 2
REMARK VINA RESULT:    -4.721      1.637      2.188
REMARK INTER + INTRA:          -5.866
REMARK INTER:                  -5.584
REMARK INTRA:                  -0.282
REMARK UNBOUND:                -0.317
REMARK  Name = /home/anacleto/Desktop/manuscript_Mpro/naturecomm/supplementary_file_S2/6-chemical-library/molecular_docking/3D_ligand_structure/836.pdb
REMARK  3 active torsions:
REMARK  status: ('A' for Active; 'I' for Inactive)
REMARK    1  A    between atoms: C3_5  and  C4_6
REMARK    2  A    between atoms: N3_8  and  C5_9
REMARK    3  A    between atoms: C5_9  and  C6_10
REMARK                            x       y       z     vdW  Elec       q    Type
REMARK                         _______ _______ _______ _____ _____    ______ ____
ROOT
ATOM      1  C4  UNL     1     -24.185   7.511 -38.369  0.00  0.00    +0.000 C 
ATOM      2  O1  UNL     1     -24.879   8.390 -37.869  0.00  0.00    +0.000 OA
ATOM      3  N3  UNL     1     -24.675   6.472 -39.121  0.00  0.00    +0.000 N 
ATOM      4  H4  UNL     1     -23.993   5.765 -39.385  0.00  0.00    +0.000 HD
ENDROOT
BRANCH   1   9
ATOM      5  N1  UNL     1     -21.974   8.503 -37.717  0.00  0.00    +0.000 NA
ATOM      6  C1  UNL     1     -20.731   8.079 -37.738  0.00  0.00    +0.000 A 
ATOM      7  N2  UNL     1     -20.640   6.807 -38.227  0.00  0.00    +0.000 N 
ATOM      8  C2  UNL     1     -21.905   6.391 -38.538  0.00  0.00    +0.000 A 
ATOM      9  C3  UNL     1     -22.730   7.450 -38.218  0.00  0.00    +0.000 A 
ATOM     10  H2  UNL     1     -19.788   6.274 -38.338  0.00  0.00    +0.000 HD
ENDBRANCH   1   9
BRANCH   3  11
ATOM     11  C5  UNL     1     -26.080   6.234 -39.310  0.00  0.00    +0.000 C 
BRANCH  11  12
ATOM     12  C6  UNL     1     -26.467   4.850 -38.880  0.00  0.00    +0.000 A 
ATOM     13  C7  UNL     1     -25.502   3.878 -38.598  0.00  0.00    +0.000 A 
ATOM     14  C8  UNL     1     -25.899   2.601 -38.214  0.00  0.00    +0.000 A 
ATOM     15  C9  UNL     1     -27.255   2.334 -38.127  0.00  0.00    +0.000 A 
ATOM     16  N4  UNL     1     -28.217   3.243 -38.395  0.00  0.00    +0.000 NA
ATOM     17  C10 UNL     1     -27.802   4.474 -38.769  0.00  0.00    +0.000 A 
ENDBRANCH  11  12
ENDBRANCH   3  11
TORSDOF 3
ENDMDL
MODEL 3
REMARK VINA RESULT:    -4.661      1.408      6.051
REMARK INTER + INTRA:          -5.795
REMARK INTER:                  -5.536
REMARK INTRA:                  -0.259
REMARK UNBOUND:                -0.317
REMARK  Name = /home/anacleto/Desktop/manuscript_Mpro/naturecomm/supplementary_file_S2/6-chemical-library/molecular_docking/3D_ligand_structure/836.pdb
REMARK  3 active torsions:
REMARK  status: ('A' for Active; 'I' for Inactive)
REMARK    1  A    between atoms: C3_5  and  C4_6
REMARK    2  A    between atoms: N3_8  and  C5_9
REMARK    3  A    between atoms: C5_9  and  C6_10
REMARK                            x       y       z     vdW  Elec       q    Type
REMARK                         _______ _______ _______ _____ _____    ______ ____
ROOT
ATOM      1  C4  UNL     1     -24.532   4.914 -39.262  0.00  0.00    +0.000 C 
ATOM      2  O1  UNL     1     -24.294   5.115 -40.449  0.00  0.00    +0.000 OA
ATOM      3  N3  UNL     1     -23.758   5.381 -38.228  0.00  0.00    +0.000 N 
ATOM      4  H4  UNL     1     -24.021   5.051 -37.303  0.00  0.00    +0.000 HD
ENDROOT
BRANCH   1   9
ATOM      5  N1  UNL     1     -25.559   2.841 -38.293  0.00  0.00    +0.000 NA
ATOM      6  C1  UNL     1     -26.782   2.475 -37.982  0.00  0.00    +0.000 A 
ATOM      7  N2  UNL     1     -27.686   3.463 -38.251  0.00  0.00    +0.000 N 
ATOM      8  C2  UNL     1     -26.999   4.526 -38.768  0.00  0.00    +0.000 A 
ATOM      9  C3  UNL     1     -25.676   4.132 -38.791  0.00  0.00    +0.000 A 
ATOM     10  H2  UNL     1     -28.684   3.412 -38.096  0.00  0.00    +0.000 HD
ENDBRANCH   1   9
BRANCH   3  11
ATOM     11  C5  UNL     1     -22.510   6.067 -38.429  0.00  0.00    +0.000 C 
BRANCH  11  12
ATOM     12  C6  UNL     1     -22.559   7.467 -37.894  0.00  0.00    +0.000 A 
ATOM     13  C7  UNL     1     -21.423   8.084 -37.361  0.00  0.00    +0.000 A 
ATOM     14  C8  UNL     1     -21.510   9.380 -36.863  0.00  0.00    +0.000 A 
ATOM     15  C9  UNL     1     -22.738  10.020 -36.910  0.00  0.00    +0.000 A 
ATOM     16  N4  UNL     1     -23.858   9.458 -37.412  0.00  0.00    +0.000 NA
ATOM     17  C10 UNL     1     -23.744   8.197 -37.886  0.00  0.00    +0.000 A 
ENDBRANCH  11  12
ENDBRANCH   3  11
TORSDOF 3
ENDMDL
MODEL 4
REMARK VINA RESULT:    -4.463     16.450     18.075
REMARK INTER + INTRA:          -5.562
REMARK INTER:                  -5.247
REMARK INTRA:                  -0.315
REMARK UNBOUND:                -0.317
REMARK  Name = /home/anacleto/Desktop/manuscript_Mpro/naturecomm/supplementary_file_S2/6-chemical-library/molecular_docking/3D_ligand_structure/836.pdb
REMARK  3 active torsions:
REMARK  status: ('A' for Active; 'I' for Inactive)
REMARK    1  A    between atoms: C3_5  and  C4_6
REMARK    2  A    between atoms: N3_8  and  C5_9
REMARK    3  A    between atoms: C5_9  and  C6_10
REMARK                            x       y       z     vdW  Elec       q    Type
REMARK                         _______ _______ _______ _____ _____    ______ ____
ROOT
ATOM      1  C4  UNL     1     -26.197  -6.107 -26.180  0.00  0.00    +0.000 C 
ATOM      2  O1  UNL     1     -25.552  -7.078 -25.800  0.00  0.00    +0.000 OA
ATOM      3  N3  UNL     1     -25.638  -4.937 -26.636  0.00  0.00    +0.000 N 
ATOM      4  H4  UNL     1     -26.295  -4.183 -26.821  0.00  0.00    +0.000 HD
ENDROOT
BRANCH   1   9
ATOM      5  N1  UNL     1     -28.451  -7.062 -25.635  0.00  0.00    +0.000 NA
ATOM      6  C1  UNL     1     -29.691  -6.675 -25.836  0.00  0.00    +0.000 A 
ATOM      7  N2  UNL     1     -29.744  -5.476 -26.488  0.00  0.00    +0.000 N 
ATOM      8  C2  UNL     1     -28.459  -5.072 -26.719  0.00  0.00    +0.000 A 
ATOM      9  C3  UNL     1     -27.660  -6.062 -26.186  0.00  0.00    +0.000 A 
ATOM     10  H2  UNL     1     -30.586  -4.981 -26.752  0.00  0.00    +0.000 HD
ENDBRANCH   1   9
BRANCH   3  11
ATOM     11  C5  UNL     1     -24.223  -4.681 -26.609  0.00  0.00    +0.000 C 
BRANCH  11  12
ATOM     12  C6  UNL     1     -23.772  -4.227 -25.252  0.00  0.00    +0.000 A 
ATOM     13  C7  UNL     1     -24.335  -3.106 -24.634  0.00  0.00    +0.000 A 
ATOM     14  C8  UNL     1     -23.882  -2.708 -23.380  0.00  0.00    +0.000 A 
ATOM     15  C9  UNL     1     -22.874  -3.445 -22.783  0.00  0.00    +0.000 A 
ATOM     16  N4  UNL     1     -22.302  -4.530 -23.347  0.00  0.00    +0.000 NA
ATOM     17  C10 UNL     1     -22.760  -4.892 -24.567  0.00  0.00    +0.000 A 
ENDBRANCH  11  12
ENDBRANCH   3  11
TORSDOF 3
ENDMDL
MODEL 5
REMARK VINA RESULT:    -4.447     15.724     17.612
REMARK INTER + INTRA:          -5.543
REMARK INTER:                  -5.269
REMARK INTRA:                  -0.275
REMARK UNBOUND:                -0.317
REMARK  Name = /home/anacleto/Desktop/manuscript_Mpro/naturecomm/supplementary_file_S2/6-chemical-library/molecular_docking/3D_ligand_structure/836.pdb
REMARK  3 active torsions:
REMARK  status: ('A' for Active; 'I' for Inactive)
REMARK    1  A    between atoms: C3_5  and  C4_6
REMARK    2  A    between atoms: N3_8  and  C5_9
REMARK    3  A    between atoms: C5_9  and  C6_10
REMARK                            x       y       z     vdW  Elec       q    Type
REMARK                         _______ _______ _______ _____ _____    ______ ____
ROOT
ATOM      1  C4  UNL     1     -24.985  -4.215 -26.626  0.00  0.00    +0.000 C 
ATOM      2  O1  UNL     1     -24.071  -4.854 -27.138  0.00  0.00    +0.000 OA
ATOM      3  N3  UNL     1     -24.885  -3.542 -25.433  0.00  0.00    +0.000 N 
ATOM      4  H4  UNL     1     -25.752  -3.142 -25.084  0.00  0.00    +0.000 HD
ENDROOT
BRANCH   1   9
ATOM      5  N1  UNL     1     -26.578  -3.322 -28.346  0.00  0.00    +0.000 NA
ATOM      6  C1  UNL     1     -27.866  -3.460 -28.571  0.00  0.00    +0.000 A 
ATOM      7  N2  UNL     1     -28.452  -4.283 -27.652  0.00  0.00    +0.000 N 
ATOM      8  C2  UNL     1     -27.480  -4.696 -26.785  0.00  0.00    +0.000 A 
ATOM      9  C3  UNL     1     -26.317  -4.095 -27.221  0.00  0.00    +0.000 A 
ATOM     10  H2  UNL     1     -29.431  -4.536 -27.622  0.00  0.00    +0.000 HD
ENDBRANCH   1   9
BRANCH   3  11
ATOM     11  C5  UNL     1     -23.722  -3.610 -24.589  0.00  0.00    +0.000 C 
BRANCH  11  12
ATOM     12  C6  UNL     1     -23.980  -4.431 -23.361  0.00  0.00    +0.000 A 
ATOM     13  C7  UNL     1     -22.937  -4.839 -22.524  0.00  0.00    +0.000 A 
ATOM     14  C8  UNL     1     -23.214  -5.611 -21.400  0.00  0.00    +0.000 A 
ATOM     15  C9  UNL     1     -24.532  -5.955 -21.149  0.00  0.00    +0.000 A 
ATOM     16  N4  UNL     1     -25.566  -5.585 -21.934  0.00  0.00    +0.000 NA
ATOM     17  C10 UNL     1     -25.266  -4.838 -23.021  0.00  0.00    +0.000 A 
ENDBRANCH  11  12
ENDBRANCH   3  11
TORSDOF 3
ENDMDL
MODEL 6
REMARK VINA RESULT:    -4.379      3.204      4.275
REMARK INTER + INTRA:          -5.463
REMARK INTER:                  -5.170
REMARK INTRA:                  -0.293
REMARK UNBOUND:                -0.317
REMARK  Name = /home/anacleto/Desktop/manuscript_Mpro/naturecomm/supplementary_file_S2/6-chemical-library/molecular_docking/3D_ligand_structure/836.pdb
REMARK  3 active torsions:
REMARK  status: ('A' for Active; 'I' for Inactive)
REMARK    1  A    between atoms: C3_5  and  C4_6
REMARK    2  A    between atoms: N3_8  and  C5_9
REMARK    3  A    between atoms: C5_9  and  C6_10
REMARK                            x       y       z     vdW  Elec       q    Type
REMARK                         _______ _______ _______ _____ _____    ______ ____
ROOT
ATOM      1  C4  UNL     1     -20.492   7.561 -38.135  0.00  0.00    +0.000 C 
ATOM      2  O1  UNL     1     -20.795   8.317 -37.218  0.00  0.00    +0.000 OA
ATOM      3  N3  UNL     1     -21.167   6.403 -38.439  0.00  0.00    +0.000 N 
ATOM      4  H4  UNL     1     -20.741   5.828 -39.161  0.00  0.00    +0.000 HD
ENDROOT
BRANCH   1   9
ATOM      5  N1  UNL     1     -18.604   8.961 -39.013  0.00  0.00    +0.000 NA
ATOM      6  C1  UNL     1     -17.691   8.799 -39.943  0.00  0.00    +0.000 A 
ATOM      7  N2  UNL     1     -17.809   7.586 -40.560  0.00  0.00    +0.000 N 
ATOM      8  C2  UNL     1     -18.865   6.932 -39.989  0.00  0.00    +0.000 A 
ATOM      9  C3  UNL     1     -19.355   7.792 -39.027  0.00  0.00    +0.000 A 
ATOM     10  H2  UNL     1     -17.221   7.240 -41.306  0.00  0.00    +0.000 HD
ENDBRANCH   1   9
BRANCH   3  11
ATOM     11  C5  UNL     1     -22.241   5.888 -37.635  0.00  0.00    +0.000 C 
BRANCH  11  12
ATOM     12  C6  UNL     1     -23.576   6.143 -38.271  0.00  0.00    +0.000 A 
ATOM     13  C7  UNL     1     -24.308   5.112 -38.868  0.00  0.00    +0.000 A 
ATOM     14  C8  UNL     1     -25.536   5.389 -39.459  0.00  0.00    +0.000 A 
ATOM     15  C9  UNL     1     -25.995   6.696 -39.437  0.00  0.00    +0.000 A 
ATOM     16  N4  UNL     1     -25.317   7.719 -38.875  0.00  0.00    +0.000 NA
ATOM     17  C10 UNL     1     -24.125   7.421 -38.312  0.00  0.00    +0.000 A 
ENDBRANCH  11  12
ENDBRANCH   3  11
TORSDOF 3
ENDMDL
MODEL 7
REMARK VINA RESULT:    -4.360      1.827      6.052
REMARK INTER + INTRA:          -5.442
REMARK INTER:                  -5.121
REMARK INTRA:                  -0.320
REMARK UNBOUND:                -0.317
REMARK  Name = /home/anacleto/Desktop/manuscript_Mpro/naturecomm/supplementary_file_S2/6-chemical-library/molecular_docking/3D_ligand_structure/836.pdb
REMARK  3 active torsions:
REMARK  status: ('A' for Active; 'I' for Inactive)
REMARK    1  A    between atoms: C3_5  and  C4_6
REMARK    2  A    between atoms: N3_8  and  C5_9
REMARK    3  A    between atoms: C5_9  and  C6_10
REMARK                            x       y       z     vdW  Elec       q    Type
REMARK                         _______ _______ _______ _____ _____    ______ ____
ROOT
ATOM      1  C4  UNL     1     -26.182   5.436 -39.236  0.00  0.00    +0.000 C 
ATOM      2  O1  UNL     1     -26.800   6.487 -39.369  0.00  0.00    +0.000 OA
ATOM      3  N3  UNL     1     -24.851   5.278 -39.539  0.00  0.00    +0.000 N 
ATOM      4  H4  UNL     1     -24.499   4.326 -39.474  0.00  0.00    +0.000 HD
ENDROOT
BRANCH   1   9
ATOM      5  N1  UNL     1     -26.049   3.136 -38.244  0.00  0.00    +0.000 NA
ATOM      6  C1  UNL     1     -26.932   2.221 -37.912  0.00  0.00    +0.000 A 
ATOM      7  N2  UNL     1     -28.207   2.636 -38.171  0.00  0.00    +0.000 N 
ATOM      8  C2  UNL     1     -28.136   3.894 -38.702  0.00  0.00    +0.000 A 
ATOM      9  C3  UNL     1     -26.790   4.199 -38.744  0.00  0.00    +0.000 A 
ATOM     10  H2  UNL     1     -29.050   2.104 -38.000  0.00  0.00    +0.000 HD
ENDBRANCH   1   9
BRANCH   3  11
ATOM     11  C5  UNL     1     -24.060   6.307 -40.158  0.00  0.00    +0.000 C 
BRANCH  11  12
ATOM     12  C6  UNL     1     -23.158   6.979 -39.166  0.00  0.00    +0.000 A 
ATOM     13  C7  UNL     1     -21.905   6.448 -38.843  0.00  0.00    +0.000 A 
ATOM     14  C8  UNL     1     -21.101   7.093 -37.909  0.00  0.00    +0.000 A 
ATOM     15  C9  UNL     1     -21.579   8.252 -37.322  0.00  0.00    +0.000 A 
ATOM     16  N4  UNL     1     -22.783   8.795 -37.602  0.00  0.00    +0.000 NA
ATOM     17  C10 UNL     1     -23.544   8.144 -38.511  0.00  0.00    +0.000 A 
ENDBRANCH  11  12
ENDBRANCH   3  11
TORSDOF 3
ENDMDL
MODEL 8
REMARK VINA RESULT:    -4.349     14.469     16.052
REMARK INTER + INTRA:          -5.429
REMARK INTER:                  -5.167
REMARK INTRA:                  -0.262
REMARK UNBOUND:                -0.317
REMARK  Name = /home/anacleto/Desktop/manuscript_Mpro/naturecomm/supplementary_file_S2/6-chemical-library/molecular_docking/3D_ligand_structure/836.pdb
REMARK  3 active torsions:
REMARK  status: ('A' for Active; 'I' for Inactive)
REMARK    1  A    between atoms: C3_5  and  C4_6
REMARK    2  A    between atoms: N3_8  and  C5_9
REMARK    3  A    between atoms: C5_9  and  C6_10
REMARK                            x       y       z     vdW  Elec       q    Type
REMARK                         _______ _______ _______ _____ _____    ______ ____
ROOT
ATOM      1  C4  UNL     1     -25.140  -4.081 -26.216  0.00  0.00    +0.000 C 
ATOM      2  O1  UNL     1     -24.914  -3.333 -25.272  0.00  0.00    +0.000 OA
ATOM      3  N3  UNL     1     -24.268  -5.040 -26.670  0.00  0.00    +0.000 N 
ATOM      4  H4  UNL     1     -24.548  -5.516 -27.523  0.00  0.00    +0.000 HD
ENDROOT
BRANCH   1   9
ATOM      5  N1  UNL     1     -26.517  -3.295 -28.161  0.00  0.00    +0.000 NA
ATOM      6  C1  UNL     1     -27.749  -3.507 -28.565  0.00  0.00    +0.000 A 
ATOM      7  N2  UNL     1     -28.416  -4.353 -27.726  0.00  0.00    +0.000 N 
ATOM      8  C2  UNL     1     -27.557  -4.703 -26.721  0.00  0.00    +0.000 A 
ATOM      9  C3  UNL     1     -26.377  -4.042 -26.998  0.00  0.00    +0.000 A 
ATOM     10  H2  UNL     1     -29.373  -4.661 -27.832  0.00  0.00    +0.000 HD
ENDBRANCH   1   9
BRANCH   3  11
ATOM     11  C5  UNL     1     -22.934  -5.195 -26.154  0.00  0.00    +0.000 C 
BRANCH  11  12
ATOM     12  C6  UNL     1     -21.908  -5.091 -27.243  0.00  0.00    +0.000 A 
ATOM     13  C7  UNL     1     -20.593  -4.700 -26.971  0.00  0.00    +0.000 A 
ATOM     14  C8  UNL     1     -19.672  -4.604 -28.009  0.00  0.00    +0.000 A 
ATOM     15  C9  UNL     1     -20.098  -4.899 -29.293  0.00  0.00    +0.000 A 
ATOM     16  N4  UNL     1     -21.358  -5.275 -29.598  0.00  0.00    +0.000 NA
ATOM     17  C10 UNL     1     -22.232  -5.357 -28.570  0.00  0.00    +0.000 A 
ENDBRANCH  11  12
ENDBRANCH   3  11
TORSDOF 3
ENDMDL
MODEL 9
REMARK VINA RESULT:    -4.287     14.105     15.875
REMARK INTER + INTRA:          -5.355
REMARK INTER:                  -5.039
REMARK INTRA:                  -0.317
REMARK UNBOUND:                -0.317
REMARK  Name = /home/anacleto/Desktop/manuscript_Mpro/naturecomm/supplementary_file_S2/6-chemical-library/molecular_docking/3D_ligand_structure/836.pdb
REMARK  3 active torsions:
REMARK  status: ('A' for Active; 'I' for Inactive)
REMARK    1  A    between atoms: C3_5  and  C4_6
REMARK    2  A    between atoms: N3_8  and  C5_9
REMARK    3  A    between atoms: C5_9  and  C6_10
REMARK                            x       y       z     vdW  Elec       q    Type
REMARK                         _______ _______ _______ _____ _____    ______ ____
ROOT
ATOM      1  C4  UNL     1     -25.462  -4.136 -27.061  0.00  0.00    +0.000 C 
ATOM      2  O1  UNL     1     -24.587  -3.914 -26.231  0.00  0.00    +0.000 OA
ATOM      3  N3  UNL     1     -25.304  -3.969 -28.416  0.00  0.00    +0.000 N 
ATOM      4  H4  UNL     1     -26.146  -4.095 -28.972  0.00  0.00    +0.000 HD
ENDROOT
BRANCH   1   9
ATOM      5  N1  UNL     1     -27.040  -5.632 -25.810  0.00  0.00    +0.000 NA
ATOM      6  C1  UNL     1     -28.347  -5.762 -25.764  0.00  0.00    +0.000 A 
ATOM      7  N2  UNL     1     -28.972  -4.869 -26.588  0.00  0.00    +0.000 N 
ATOM      8  C2  UNL     1     -28.004  -4.122 -27.200  0.00  0.00    +0.000 A 
ATOM      9  C3  UNL     1     -26.805  -4.601 -26.712  0.00  0.00    +0.000 A 
ATOM     10  H2  UNL     1     -29.970  -4.781 -26.719  0.00  0.00    +0.000 HD
ENDBRANCH   1   9
BRANCH   3  11
ATOM     11  C5  UNL     1     -24.121  -3.401 -29.003  0.00  0.00    +0.000 C 
BRANCH  11  12
ATOM     12  C6  UNL     1     -23.100  -4.455 -29.313  0.00  0.00    +0.000 A 
ATOM     13  C7  UNL     1     -23.344  -5.448 -30.267  0.00  0.00    +0.000 A 
ATOM     14  C8  UNL     1     -22.378  -6.417 -30.519  0.00  0.00    +0.000 A 
ATOM     15  C9  UNL     1     -21.194  -6.363 -29.803  0.00  0.00    +0.000 A 
ATOM     16  N4  UNL     1     -20.921  -5.425 -28.871  0.00  0.00    +0.000 NA
ATOM     17  C10 UNL     1     -21.880  -4.499 -28.646  0.00  0.00    +0.000 A 
ENDBRANCH  11  12
ENDBRANCH   3  11
TORSDOF 3
ENDMDL
