MODEL 1
REMARK VINA RESULT:    -4.888      0.000      0.000
REMARK INTER + INTRA:          -7.909
REMARK INTER:                  -6.682
REMARK INTRA:                  -1.228
REMARK UNBOUND:                -1.306
REMARK  Name = /home/anacleto/Desktop/manuscript_Mpro/naturecomm/supplementary_file_S2/6-chemical-library/molecular_docking/3D_ligand_structure/458.pdb
REMARK  6 active torsions:
REMARK  status: ('A' for Active; 'I' for Inactive)
REMARK    1  A    between atoms: C6_6  and  C7_7
REMARK    2  A    between atoms: C7_7  and  N1_8
REMARK    3  A    between atoms: C8_9  and  C9_11
REMARK    4  A    between atoms: C9_11  and  O2_12
REMARK    5  A    between atoms: O2_12  and  C10_13
REMARK    6  A    between atoms: C10_13  and  C11_14
REMARK                            x       y       z     vdW  Elec       q    Type
REMARK                         _______ _______ _______ _____ _____    ______ ____
ROOT
ATOM      1  N1  UNL     1      17.699   3.901  10.014  0.00  0.00    +0.000 N 
ATOM      2  C8  UNL     1      16.485   3.249  10.114  0.00  0.00    +0.000 C 
ATOM      3  O1  UNL     1      15.736   3.068   9.158  0.00  0.00    +0.000 OA
ATOM      4  H8  UNL     1      18.346   3.843  10.789  0.00  0.00    +0.000 HD
ENDROOT
BRANCH   1   5
ATOM      5  C7  UNL     1      18.246   4.290   8.734  0.00  0.00    +0.000 C 
BRANCH   5  11
ATOM      6  C1  UNL     1      18.899   6.726   8.754  0.00  0.00    +0.000 A 
ATOM      7  C2  UNL     1      19.846   7.742   8.889  0.00  0.00    +0.000 A 
ATOM      8  C3  UNL     1      21.173   7.426   9.172  0.00  0.00    +0.000 A 
ATOM      9  C4  UNL     1      21.554   6.093   9.319  0.00  0.00    +0.000 A 
ATOM     10  C5  UNL     1      20.609   5.074   9.185  0.00  0.00    +0.000 A 
ATOM     11  C6  UNL     1      19.269   5.383   8.906  0.00  0.00    +0.000 A 
ENDBRANCH   5  11
ENDBRANCH   1   5
BRANCH   2  12
ATOM     12  C9  UNL     1      16.158   2.792  11.547  0.00  0.00    +0.000 C 
BRANCH  12  13
ATOM     13  O2  UNL     1      15.485   3.732  12.367  0.00  0.00    +0.000 OA
BRANCH  13  14
ATOM     14  C10 UNL     1      16.218   4.056  13.544  0.00  0.00    +0.000 C 
BRANCH  14  15
ATOM     15  C11 UNL     1      16.357   5.569  13.743  0.00  0.00    +0.000 C 
ATOM     16  O3  UNL     1      15.481   6.212  14.326  0.00  0.00    +0.000 OA
ATOM     17  N2  UNL     1      17.511   6.161  13.277  0.00  0.00    +0.000 N 
ATOM     18  C12 UNL     1      17.735   7.590  13.393  0.00  0.00    +0.000 C 
ATOM     19  C13 UNL     1      18.934   7.858  12.495  0.00  0.00    +0.000 C 
ATOM     20  C14 UNL     1      19.720   6.554  12.579  0.00  0.00    +0.000 C 
ATOM     21  C15 UNL     1      18.624   5.497  12.616  0.00  0.00    +0.000 C 
ENDBRANCH  14  15
ENDBRANCH  13  14
ENDBRANCH  12  13
ENDBRANCH   2  12
TORSDOF 6
ENDMDL
MODEL 2
REMARK VINA RESULT:    -4.818      2.213      4.923
REMARK INTER + INTRA:          -7.814
REMARK INTER:                  -7.113
REMARK INTRA:                  -0.701
REMARK UNBOUND:                -1.306
REMARK  Name = /home/anacleto/Desktop/manuscript_Mpro/naturecomm/supplementary_file_S2/6-chemical-library/molecular_docking/3D_ligand_structure/458.pdb
REMARK  6 active torsions:
REMARK  status: ('A' for Active; 'I' for Inactive)
REMARK    1  A    between atoms: C6_6  and  C7_7
REMARK    2  A    between atoms: C7_7  and  N1_8
REMARK    3  A    between atoms: C8_9  and  C9_11
REMARK    4  A    between atoms: C9_11  and  O2_12
REMARK    5  A    between atoms: O2_12  and  C10_13
REMARK    6  A    between atoms: C10_13  and  C11_14
REMARK                            x       y       z     vdW  Elec       q    Type
REMARK                         _______ _______ _______ _____ _____    ______ ____
ROOT
ATOM      1  N1  UNL     1      15.245   3.743  11.972  0.00  0.00    +0.000 N 
ATOM      2  C8  UNL     1      14.946   4.538  13.061  0.00  0.00    +0.000 C 
ATOM      3  O1  UNL     1      13.802   4.868  13.360  0.00  0.00    +0.000 OA
ATOM      4  H8  UNL     1      16.175   3.353  11.896  0.00  0.00    +0.000 HD
ENDROOT
BRANCH   1   5
ATOM      5  C7  UNL     1      14.207   3.114  11.185  0.00  0.00    +0.000 C 
BRANCH   5  11
ATOM      6  C1  UNL     1      15.955   3.050   9.368  0.00  0.00    +0.000 A 
ATOM      7  C2  UNL     1      16.483   2.517   8.190  0.00  0.00    +0.000 A 
ATOM      8  C3  UNL     1      15.844   1.453   7.559  0.00  0.00    +0.000 A 
ATOM      9  C4  UNL     1      14.677   0.919   8.103  0.00  0.00    +0.000 A 
ATOM     10  C5  UNL     1      14.147   1.449   9.281  0.00  0.00    +0.000 A 
ATOM     11  C6  UNL     1      14.785   2.517   9.928  0.00  0.00    +0.000 A 
ENDBRANCH   5  11
ENDBRANCH   1   5
BRANCH   2  12
ATOM     12  C9  UNL     1      16.191   4.986  13.846  0.00  0.00    +0.000 C 
BRANCH  12  13
ATOM     13  O2  UNL     1      16.873   6.123  13.346  0.00  0.00    +0.000 OA
BRANCH  13  14
ATOM     14  C10 UNL     1      18.185   5.818  12.886  0.00  0.00    +0.000 C 
BRANCH  14  15
ATOM     15  C11 UNL     1      18.712   6.865  11.899  0.00  0.00    +0.000 C 
ATOM     16  O3  UNL     1      18.906   8.030  12.257  0.00  0.00    +0.000 OA
ATOM     17  N2  UNL     1      18.991   6.439  10.619  0.00  0.00    +0.000 N 
ATOM     18  C12 UNL     1      19.472   7.351   9.599  0.00  0.00    +0.000 C 
ATOM     19  C13 UNL     1      19.343   6.568   8.300  0.00  0.00    +0.000 C 
ATOM     20  C14 UNL     1      19.548   5.126   8.750  0.00  0.00    +0.000 C 
ATOM     21  C15 UNL     1      18.843   5.087  10.100  0.00  0.00    +0.000 C 
ENDBRANCH  14  15
ENDBRANCH  13  14
ENDBRANCH  12  13
ENDBRANCH   2  12
TORSDOF 6
ENDMDL
MODEL 3
REMARK VINA RESULT:    -4.766      1.971      4.590
REMARK INTER + INTRA:          -7.744
REMARK INTER:                  -6.892
REMARK INTRA:                  -0.852
REMARK UNBOUND:                -1.306
REMARK  Name = /home/anacleto/Desktop/manuscript_Mpro/naturecomm/supplementary_file_S2/6-chemical-library/molecular_docking/3D_ligand_structure/458.pdb
REMARK  6 active torsions:
REMARK  status: ('A' for Active; 'I' for Inactive)
REMARK    1  A    between atoms: C6_6  and  C7_7
REMARK    2  A    between atoms: C7_7  and  N1_8
REMARK    3  A    between atoms: C8_9  and  C9_11
REMARK    4  A    between atoms: C9_11  and  O2_12
REMARK    5  A    between atoms: O2_12  and  C10_13
REMARK    6  A    between atoms: C10_13  and  C11_14
REMARK                            x       y       z     vdW  Elec       q    Type
REMARK                         _______ _______ _______ _____ _____    ______ ____
ROOT
ATOM      1  N1  UNL     1      17.965   4.584  12.426  0.00  0.00    +0.000 N 
ATOM      2  C8  UNL     1      16.723   4.630  13.029  0.00  0.00    +0.000 C 
ATOM      3  O1  UNL     1      16.284   5.629  13.592  0.00  0.00    +0.000 OA
ATOM      4  H8  UNL     1      18.181   3.804  11.820  0.00  0.00    +0.000 HD
ENDROOT
BRANCH   1   5
ATOM      5  C7  UNL     1      18.783   5.768  12.285  0.00  0.00    +0.000 C 
BRANCH   5  11
ATOM      6  C1  UNL     1      19.467   7.338  10.433  0.00  0.00    +0.000 A 
ATOM      7  C2  UNL     1      19.683   7.625   9.085  0.00  0.00    +0.000 A 
ATOM      8  C3  UNL     1      19.465   6.645   8.119  0.00  0.00    +0.000 A 
ATOM      9  C4  UNL     1      19.032   5.376   8.501  0.00  0.00    +0.000 A 
ATOM     10  C5  UNL     1      18.816   5.085   9.849  0.00  0.00    +0.000 A 
ATOM     11  C6  UNL     1      19.038   6.063  10.829  0.00  0.00    +0.000 A 
ENDBRANCH   5  11
ENDBRANCH   1   5
BRANCH   2  12
ATOM     12  C9  UNL     1      15.957   3.299  12.944  0.00  0.00    +0.000 C 
BRANCH  12  13
ATOM     13  O2  UNL     1      14.552   3.392  12.778  0.00  0.00    +0.000 OA
BRANCH  13  14
ATOM     14  C10 UNL     1      14.175   3.656  11.431  0.00  0.00    +0.000 C 
BRANCH  14  15
ATOM     15  C11 UNL     1      14.023   2.371  10.610  0.00  0.00    +0.000 C 
ATOM     16  O3  UNL     1      13.166   1.533  10.901  0.00  0.00    +0.000 OA
ATOM     17  N2  UNL     1      14.854   2.218   9.522  0.00  0.00    +0.000 N 
ATOM     18  C12 UNL     1      14.809   1.030   8.690  0.00  0.00    +0.000 C 
ATOM     19  C13 UNL     1      16.064   1.121   7.834  0.00  0.00    +0.000 C 
ATOM     20  C14 UNL     1      16.271   2.625   7.692  0.00  0.00    +0.000 C 
ATOM     21  C15 UNL     1      15.866   3.155   9.061  0.00  0.00    +0.000 C 
ENDBRANCH  14  15
ENDBRANCH  13  14
ENDBRANCH  12  13
ENDBRANCH   2  12
TORSDOF 6
ENDMDL
MODEL 4
REMARK VINA RESULT:    -4.638     14.716     16.828
REMARK INTER + INTRA:          -7.572
REMARK INTER:                  -6.852
REMARK INTRA:                  -0.719
REMARK UNBOUND:                -1.306
REMARK  Name = /home/anacleto/Desktop/manuscript_Mpro/naturecomm/supplementary_file_S2/6-chemical-library/molecular_docking/3D_ligand_structure/458.pdb
REMARK  6 active torsions:
REMARK  status: ('A' for Active; 'I' for Inactive)
REMARK    1  A    between atoms: C6_6  and  C7_7
REMARK    2  A    between atoms: C7_7  and  N1_8
REMARK    3  A    between atoms: C8_9  and  C9_11
REMARK    4  A    between atoms: C9_11  and  O2_12
REMARK    5  A    between atoms: O2_12  and  C10_13
REMARK    6  A    between atoms: C10_13  and  C11_14
REMARK                            x       y       z     vdW  Elec       q    Type
REMARK                         _______ _______ _______ _____ _____    ______ ____
ROOT
ATOM      1  N1  UNL     1      15.872  13.768  -3.485  0.00  0.00    +0.000 N 
ATOM      2  C8  UNL     1      16.061  15.136  -3.485  0.00  0.00    +0.000 C 
ATOM      3  O1  UNL     1      16.821  15.712  -4.259  0.00  0.00    +0.000 OA
ATOM      4  H8  UNL     1      15.096  13.386  -2.961  0.00  0.00    +0.000 HD
ENDROOT
BRANCH   1   5
ATOM      5  C7  UNL     1      16.450  12.923  -4.507  0.00  0.00    +0.000 C 
BRANCH   5  11
ATOM      6  C1  UNL     1      14.482  11.347  -4.460  0.00  0.00    +0.000 A 
ATOM      7  C2  UNL     1      13.501  10.589  -5.101  0.00  0.00    +0.000 A 
ATOM      8  C3  UNL     1      13.409  10.599  -6.491  0.00  0.00    +0.000 A 
ATOM      9  C4  UNL     1      14.298  11.367  -7.242  0.00  0.00    +0.000 A 
ATOM     10  C5  UNL     1      15.281  12.127  -6.603  0.00  0.00    +0.000 A 
ATOM     11  C6  UNL     1      15.377  12.128  -5.204  0.00  0.00    +0.000 A 
ENDBRANCH   5  11
ENDBRANCH   1   5
BRANCH   2  12
ATOM     12  C9  UNL     1      15.241  15.863  -2.405  0.00  0.00    +0.000 C 
BRANCH  12  13
ATOM     13  O2  UNL     1      15.122  15.202  -1.157  0.00  0.00    +0.000 OA
BRANCH  13  14
ATOM     14  C10 UNL     1      16.148  15.570  -0.241  0.00  0.00    +0.000 C 
BRANCH  14  15
ATOM     15  C11 UNL     1      17.308  14.569  -0.238  0.00  0.00    +0.000 C 
ATOM     16  O3  UNL     1      17.123  13.386  -0.534  0.00  0.00    +0.000 OA
ATOM     17  N2  UNL     1      18.560  15.056   0.071  0.00  0.00    +0.000 N 
ATOM     18  C12 UNL     1      19.723  14.192   0.125  0.00  0.00    +0.000 C 
ATOM     19  C13 UNL     1      20.794  15.041   0.796  0.00  0.00    +0.000 C 
ATOM     20  C14 UNL     1      20.425  16.456   0.366  0.00  0.00    +0.000 C 
ATOM     21  C15 UNL     1      18.902  16.434   0.392  0.00  0.00    +0.000 C 
ENDBRANCH  14  15
ENDBRANCH  13  14
ENDBRANCH  12  13
ENDBRANCH   2  12
TORSDOF 6
ENDMDL
MODEL 5
REMARK VINA RESULT:    -4.539     14.865     17.199
REMARK INTER + INTRA:          -7.438
REMARK INTER:                  -6.203
REMARK INTRA:                  -1.235
REMARK UNBOUND:                -1.306
REMARK  Name = /home/anacleto/Desktop/manuscript_Mpro/naturecomm/supplementary_file_S2/6-chemical-library/molecular_docking/3D_ligand_structure/458.pdb
REMARK  6 active torsions:
REMARK  status: ('A' for Active; 'I' for Inactive)
REMARK    1  A    between atoms: C6_6  and  C7_7
REMARK    2  A    between atoms: C7_7  and  N1_8
REMARK    3  A    between atoms: C8_9  and  C9_11
REMARK    4  A    between atoms: C9_11  and  O2_12
REMARK    5  A    between atoms: O2_12  and  C10_13
REMARK    6  A    between atoms: C10_13  and  C11_14
REMARK                            x       y       z     vdW  Elec       q    Type
REMARK                         _______ _______ _______ _____ _____    ______ ____
ROOT
ATOM      1  N1  UNL     1      15.592  13.821  -2.633  0.00  0.00    +0.000 N 
ATOM      2  C8  UNL     1      16.144  14.672  -1.696  0.00  0.00    +0.000 C 
ATOM      3  O1  UNL     1      15.890  15.872  -1.642  0.00  0.00    +0.000 OA
ATOM      4  H8  UNL     1      15.691  12.823  -2.500  0.00  0.00    +0.000 HD
ENDROOT
BRANCH   1   5
ATOM      5  C7  UNL     1      14.550  14.260  -3.534  0.00  0.00    +0.000 C 
BRANCH   5  11
ATOM      6  C1  UNL     1      13.869  12.426  -5.126  0.00  0.00    +0.000 A 
ATOM      7  C2  UNL     1      13.985  11.749  -6.341  0.00  0.00    +0.000 A 
ATOM      8  C3  UNL     1      14.900  12.185  -7.297  0.00  0.00    +0.000 A 
ATOM      9  C4  UNL     1      15.700  13.297  -7.040  0.00  0.00    +0.000 A 
ATOM     10  C5  UNL     1      15.585  13.976  -5.825  0.00  0.00    +0.000 A 
ATOM     11  C6  UNL     1      14.663  13.550  -4.858  0.00  0.00    +0.000 A 
ENDBRANCH   5  11
ENDBRANCH   1   5
BRANCH   2  12
ATOM     12  C9  UNL     1      17.126  13.970  -0.741  0.00  0.00    +0.000 C 
BRANCH  12  13
ATOM     13  O2  UNL     1      16.841  12.617  -0.431  0.00  0.00    +0.000 OA
BRANCH  13  14
ATOM     14  C10 UNL     1      17.769  11.712  -1.018  0.00  0.00    +0.000 C 
BRANCH  14  15
ATOM     15  C11 UNL     1      17.180  10.982  -2.230  0.00  0.00    +0.000 C 
ATOM     16  O3  UNL     1      16.223  10.215  -2.102  0.00  0.00    +0.000 OA
ATOM     17  N2  UNL     1      17.740  11.251  -3.460  0.00  0.00    +0.000 N 
ATOM     18  C12 UNL     1      17.275  10.598  -4.669  0.00  0.00    +0.000 C 
ATOM     19  C13 UNL     1      18.339  10.923  -5.707  0.00  0.00    +0.000 C 
ATOM     20  C14 UNL     1      18.854  12.284  -5.254  0.00  0.00    +0.000 C 
ATOM     21  C15 UNL     1      18.838  12.165  -3.735  0.00  0.00    +0.000 C 
ENDBRANCH  14  15
ENDBRANCH  13  14
ENDBRANCH  12  13
ENDBRANCH   2  12
TORSDOF 6
ENDMDL
MODEL 6
REMARK VINA RESULT:    -4.526     14.794     16.726
REMARK INTER + INTRA:          -7.420
REMARK INTER:                  -6.552
REMARK INTRA:                  -0.868
REMARK UNBOUND:                -1.306
REMARK  Name = /home/anacleto/Desktop/manuscript_Mpro/naturecomm/supplementary_file_S2/6-chemical-library/molecular_docking/3D_ligand_structure/458.pdb
REMARK  6 active torsions:
REMARK  status: ('A' for Active; 'I' for Inactive)
REMARK    1  A    between atoms: C6_6  and  C7_7
REMARK    2  A    between atoms: C7_7  and  N1_8
REMARK    3  A    between atoms: C8_9  and  C9_11
REMARK    4  A    between atoms: C9_11  and  O2_12
REMARK    5  A    between atoms: O2_12  and  C10_13
REMARK    6  A    between atoms: C10_13  and  C11_14
REMARK                            x       y       z     vdW  Elec       q    Type
REMARK                         _______ _______ _______ _____ _____    ______ ____
ROOT
ATOM      1  N1  UNL     1      18.123  11.806  -4.089  0.00  0.00    +0.000 N 
ATOM      2  C8  UNL     1      18.342  11.570  -2.746  0.00  0.00    +0.000 C 
ATOM      3  O1  UNL     1      17.965  10.554  -2.169  0.00  0.00    +0.000 OA
ATOM      4  H8  UNL     1      18.623  12.562  -4.537  0.00  0.00    +0.000 HD
ENDROOT
BRANCH   1   5
ATOM      5  C7  UNL     1      17.559  10.793  -4.953  0.00  0.00    +0.000 C 
BRANCH   5  11
ATOM      6  C1  UNL     1      15.881  11.771  -6.563  0.00  0.00    +0.000 A 
ATOM      7  C2  UNL     1      14.578  12.127  -6.912  0.00  0.00    +0.000 A 
ATOM      8  C3  UNL     1      13.527  11.872  -6.033  0.00  0.00    +0.000 A 
ATOM      9  C4  UNL     1      13.778  11.263  -4.805  0.00  0.00    +0.000 A 
ATOM     10  C5  UNL     1      15.081  10.905  -4.454  0.00  0.00    +0.000 A 
ATOM     11  C6  UNL     1      16.145  11.151  -5.334  0.00  0.00    +0.000 A 
ENDBRANCH   5  11
ENDBRANCH   1   5
BRANCH   2  12
ATOM     12  C9  UNL     1      19.084  12.719  -2.041  0.00  0.00    +0.000 C 
BRANCH  12  13
ATOM     13  O2  UNL     1      18.325  13.885  -1.769  0.00  0.00    +0.000 OA
BRANCH  13  14
ATOM     14  C10 UNL     1      17.570  13.779  -0.567  0.00  0.00    +0.000 C 
BRANCH  14  15
ATOM     15  C11 UNL     1      16.547  14.911  -0.424  0.00  0.00    +0.000 C 
ATOM     16  O3  UNL     1      16.690  15.787   0.432  0.00  0.00    +0.000 OA
ATOM     17  N2  UNL     1      15.494  14.925  -1.313  0.00  0.00    +0.000 N 
ATOM     18  C12 UNL     1      14.458  15.937  -1.253  0.00  0.00    +0.000 C 
ATOM     19  C13 UNL     1      13.361  15.411  -2.167  0.00  0.00    +0.000 C 
ATOM     20  C14 UNL     1      14.139  14.614  -3.208  0.00  0.00    +0.000 C 
ATOM     21  C15 UNL     1      15.250  13.973  -2.386  0.00  0.00    +0.000 C 
ENDBRANCH  14  15
ENDBRANCH  13  14
ENDBRANCH  12  13
ENDBRANCH   2  12
TORSDOF 6
ENDMDL
MODEL 7
REMARK VINA RESULT:    -4.516     14.557     16.221
REMARK INTER + INTRA:          -7.407
REMARK INTER:                  -6.571
REMARK INTRA:                  -0.836
REMARK UNBOUND:                -1.306
REMARK  Name = /home/anacleto/Desktop/manuscript_Mpro/naturecomm/supplementary_file_S2/6-chemical-library/molecular_docking/3D_ligand_structure/458.pdb
REMARK  6 active torsions:
REMARK  status: ('A' for Active; 'I' for Inactive)
REMARK    1  A    between atoms: C6_6  and  C7_7
REMARK    2  A    between atoms: C7_7  and  N1_8
REMARK    3  A    between atoms: C8_9  and  C9_11
REMARK    4  A    between atoms: C9_11  and  O2_12
REMARK    5  A    between atoms: O2_12  and  C10_13
REMARK    6  A    between atoms: C10_13  and  C11_14
REMARK                            x       y       z     vdW  Elec       q    Type
REMARK                         _______ _______ _______ _____ _____    ______ ____
ROOT
ATOM      1  N1  UNL     1      15.628  15.182  -1.034  0.00  0.00    +0.000 N 
ATOM      2  C8  UNL     1      14.353  15.576  -1.390  0.00  0.00    +0.000 C 
ATOM      3  O1  UNL     1      13.603  16.190  -0.636  0.00  0.00    +0.000 OA
ATOM      4  H8  UNL     1      16.255  14.857  -1.758  0.00  0.00    +0.000 HD
ENDROOT
BRANCH   1   5
ATOM      5  C7  UNL     1      16.231  15.600   0.212  0.00  0.00    +0.000 C 
BRANCH   5  11
ATOM      6  C1  UNL     1      18.644  16.140   0.710  0.00  0.00    +0.000 A 
ATOM      7  C2  UNL     1      19.999  15.806   0.723  0.00  0.00    +0.000 A 
ATOM      8  C3  UNL     1      20.413  14.557   0.267  0.00  0.00    +0.000 A 
ATOM      9  C4  UNL     1      19.474  13.640  -0.204  0.00  0.00    +0.000 A 
ATOM     10  C5  UNL     1      18.118  13.971  -0.217  0.00  0.00    +0.000 A 
ATOM     11  C6  UNL     1      17.689  15.223   0.246  0.00  0.00    +0.000 A 
ENDBRANCH   5  11
ENDBRANCH   1   5
BRANCH   2  12
ATOM     12  C9  UNL     1      13.960  15.148  -2.814  0.00  0.00    +0.000 C 
BRANCH  12  13
ATOM     13  O2  UNL     1      14.985  14.565  -3.600  0.00  0.00    +0.000 OA
BRANCH  13  14
ATOM     14  C10 UNL     1      14.695  13.220  -3.968  0.00  0.00    +0.000 C 
BRANCH  14  15
ATOM     15  C11 UNL     1      15.468  12.207  -3.118  0.00  0.00    +0.000 C 
ATOM     16  O3  UNL     1      15.182  12.029  -1.931  0.00  0.00    +0.000 OA
ATOM     17  N2  UNL     1      16.462  11.487  -3.745  0.00  0.00    +0.000 N 
ATOM     18  C12 UNL     1      17.270  10.519  -3.028  0.00  0.00    +0.000 C 
ATOM     19  C13 UNL     1      18.416  10.206  -3.980  0.00  0.00    +0.000 C 
ATOM     20  C14 UNL     1      17.779  10.389  -5.352  0.00  0.00    +0.000 C 
ATOM     21  C15 UNL     1      16.856  11.582  -5.142  0.00  0.00    +0.000 C 
ENDBRANCH  14  15
ENDBRANCH  13  14
ENDBRANCH  12  13
ENDBRANCH   2  12
TORSDOF 6
ENDMDL
MODEL 8
REMARK VINA RESULT:    -4.468     14.338     16.469
REMARK INTER + INTRA:          -7.342
REMARK INTER:                  -6.506
REMARK INTRA:                  -0.836
REMARK UNBOUND:                -1.306
REMARK  Name = /home/anacleto/Desktop/manuscript_Mpro/naturecomm/supplementary_file_S2/6-chemical-library/molecular_docking/3D_ligand_structure/458.pdb
REMARK  6 active torsions:
REMARK  status: ('A' for Active; 'I' for Inactive)
REMARK    1  A    between atoms: C6_6  and  C7_7
REMARK    2  A    between atoms: C7_7  and  N1_8
REMARK    3  A    between atoms: C8_9  and  C9_11
REMARK    4  A    between atoms: C9_11  and  O2_12
REMARK    5  A    between atoms: O2_12  and  C10_13
REMARK    6  A    between atoms: C10_13  and  C11_14
REMARK                            x       y       z     vdW  Elec       q    Type
REMARK                         _______ _______ _______ _____ _____    ______ ____
ROOT
ATOM      1  N1  UNL     1      17.049  11.905  -1.816  0.00  0.00    +0.000 N 
ATOM      2  C8  UNL     1      18.136  12.029  -0.974  0.00  0.00    +0.000 C 
ATOM      3  O1  UNL     1      18.825  11.077  -0.618  0.00  0.00    +0.000 OA
ATOM      4  H8  UNL     1      16.650  12.742  -2.220  0.00  0.00    +0.000 HD
ENDROOT
BRANCH   1   5
ATOM      5  C7  UNL     1      16.731  10.652  -2.464  0.00  0.00    +0.000 C 
BRANCH   5  11
ATOM      6  C1  UNL     1      16.894  11.088  -4.943  0.00  0.00    +0.000 A 
ATOM      7  C2  UNL     1      16.312  11.339  -6.186  0.00  0.00    +0.000 A 
ATOM      8  C3  UNL     1      14.926  11.410  -6.305  0.00  0.00    +0.000 A 
ATOM      9  C4  UNL     1      14.120  11.231  -5.181  0.00  0.00    +0.000 A 
ATOM     10  C5  UNL     1      14.700  10.978  -3.936  0.00  0.00    +0.000 A 
ATOM     11  C6  UNL     1      16.094  10.898  -3.807  0.00  0.00    +0.000 A 
ENDBRANCH   5  11
ENDBRANCH   1   5
BRANCH   2  12
ATOM     12  C9  UNL     1      18.383  13.475  -0.509  0.00  0.00    +0.000 C 
BRANCH  12  13
ATOM     13  O2  UNL     1      17.233  14.228  -0.163  0.00  0.00    +0.000 OA
BRANCH  13  14
ATOM     14  C10 UNL     1      17.006  15.320  -1.048  0.00  0.00    +0.000 C 
BRANCH  14  15
ATOM     15  C11 UNL     1      15.892  15.025  -2.057  0.00  0.00    +0.000 C 
ATOM     16  O3  UNL     1      16.124  14.384  -3.086  0.00  0.00    +0.000 OA
ATOM     17  N2  UNL     1      14.626  15.472  -1.746  0.00  0.00    +0.000 N 
ATOM     18  C12 UNL     1      13.503  15.266  -2.642  0.00  0.00    +0.000 C 
ATOM     19  C13 UNL     1      12.408  16.166  -2.087  0.00  0.00    +0.000 C 
ATOM     20  C14 UNL     1      12.706  16.183  -0.592  0.00  0.00    +0.000 C 
ATOM     21  C15 UNL     1      14.229  16.195  -0.548  0.00  0.00    +0.000 C 
ENDBRANCH  14  15
ENDBRANCH  13  14
ENDBRANCH  12  13
ENDBRANCH   2  12
TORSDOF 6
ENDMDL
MODEL 9
REMARK VINA RESULT:    -4.323     14.612     16.665
REMARK INTER + INTRA:          -7.146
REMARK INTER:                  -5.840
REMARK INTRA:                  -1.306
REMARK UNBOUND:                -1.306
REMARK  Name = /home/anacleto/Desktop/manuscript_Mpro/naturecomm/supplementary_file_S2/6-chemical-library/molecular_docking/3D_ligand_structure/458.pdb
REMARK  6 active torsions:
REMARK  status: ('A' for Active; 'I' for Inactive)
REMARK    1  A    between atoms: C6_6  and  C7_7
REMARK    2  A    between atoms: C7_7  and  N1_8
REMARK    3  A    between atoms: C8_9  and  C9_11
REMARK    4  A    between atoms: C9_11  and  O2_12
REMARK    5  A    between atoms: O2_12  and  C10_13
REMARK    6  A    between atoms: C10_13  and  C11_14
REMARK                            x       y       z     vdW  Elec       q    Type
REMARK                         _______ _______ _______ _____ _____    ______ ____
ROOT
ATOM      1  N1  UNL     1      15.363  14.783  -2.537  0.00  0.00    +0.000 N 
ATOM      2  C8  UNL     1      15.096  15.554  -1.423  0.00  0.00    +0.000 C 
ATOM      3  O1  UNL     1      14.011  16.093  -1.221  0.00  0.00    +0.000 OA
ATOM      4  H8  UNL     1      16.201  14.216  -2.545  0.00  0.00    +0.000 HD
ENDROOT
BRANCH   1   5
ATOM      5  C7  UNL     1      14.326  14.429  -3.480  0.00  0.00    +0.000 C 
BRANCH   5  11
ATOM      6  C1  UNL     1      14.063  12.341  -4.871  0.00  0.00    +0.000 A 
ATOM      7  C2  UNL     1      14.548  11.409  -5.790  0.00  0.00    +0.000 A 
ATOM      8  C3  UNL     1      15.821  11.562  -6.332  0.00  0.00    +0.000 A 
ATOM      9  C4  UNL     1      16.612  12.646  -5.957  0.00  0.00    +0.000 A 
ATOM     10  C5  UNL     1      16.130  13.581  -5.039  0.00  0.00    +0.000 A 
ATOM     11  C6  UNL     1      14.846  13.440  -4.492  0.00  0.00    +0.000 A 
ENDBRANCH   5  11
ENDBRANCH   1   5
BRANCH   2  12
ATOM     12  C9  UNL     1      16.300  15.689  -0.475  0.00  0.00    +0.000 C 
BRANCH  12  13
ATOM     13  O2  UNL     1      17.558  15.293  -0.995  0.00  0.00    +0.000 OA
BRANCH  13  14
ATOM     14  C10 UNL     1      18.103  14.168  -0.315  0.00  0.00    +0.000 C 
BRANCH  14  15
ATOM     15  C11 UNL     1      18.672  13.125  -1.284  0.00  0.00    +0.000 C 
ATOM     16  O3  UNL     1      19.852  13.171  -1.639  0.00  0.00    +0.000 OA
ATOM     17  N2  UNL     1      17.821  12.124  -1.702  0.00  0.00    +0.000 N 
ATOM     18  C12 UNL     1      18.250  11.100  -2.635  0.00  0.00    +0.000 C 
ATOM     19  C13 UNL     1      16.960  10.416  -3.064  0.00  0.00    +0.000 C 
ATOM     20  C14 UNL     1      16.073  10.560  -1.833  0.00  0.00    +0.000 C 
ATOM     21  C15 UNL     1      16.430  11.947  -1.315  0.00  0.00    +0.000 C 
ENDBRANCH  14  15
ENDBRANCH  13  14
ENDBRANCH  12  13
ENDBRANCH   2  12
TORSDOF 6
ENDMDL
