MODEL 1
REMARK VINA RESULT:    -5.082      0.000      0.000
REMARK INTER + INTRA:          -5.508
REMARK INTER:                  -5.384
REMARK INTRA:                  -0.124
REMARK UNBOUND:                -0.129
REMARK  Name = /home/anacleto/Desktop/manuscript_Mpro/naturecomm/supplementary_file_S2/6-chemical-library/molecular_docking/3D_ligand_structure/655.pdb
REMARK  1 active torsions:
REMARK  status: ('A' for Active; 'I' for Inactive)
REMARK    1  A    between atoms: C2_5  and  C5_9
REMARK                            x       y       z     vdW  Elec       q    Type
REMARK                         _______ _______ _______ _____ _____    ______ ____
ROOT
ATOM      1  N1  UNL     1     -18.892  -5.382 -27.503  0.00  0.00    +0.000 N 
ATOM      2  C1  UNL     1     -18.887  -4.036 -27.300  0.00  0.00    +0.000 C 
ATOM      3  O1  UNL     1     -18.010  -3.465 -26.664  0.00  0.00    +0.000 OA
ATOM      4  N2  UNL     1     -19.908  -3.344 -27.872  0.00  0.00    +0.000 N 
ATOM      5  C2  UNL     1     -21.072  -4.034 -28.393  0.00  0.00    +0.000 C 
ATOM      6  C3  UNL     1     -20.632  -5.230 -29.223  0.00  0.00    +0.000 C 
ATOM      7  C4  UNL     1     -19.589  -6.031 -28.486  0.00  0.00    +0.000 C 
ATOM      8  O2  UNL     1     -19.295  -7.179 -28.815  0.00  0.00    +0.000 OA
ATOM      9  H1  UNL     1     -18.122  -5.894 -27.099  0.00  0.00    +0.000 HD
ATOM     10  H2  UNL     1     -19.942  -2.365 -27.618  0.00  0.00    +0.000 HD
ENDROOT
BRANCH   5  11
ATOM     11  C5  UNL     1     -22.052  -4.439 -27.262  0.00  0.00    +0.000 C 
ATOM     12  O3  UNL     1     -21.646  -5.060 -26.276  0.00  0.00    +0.000 OA
ATOM     13  N3  UNL     1     -23.394  -4.116 -27.400  0.00  0.00    +0.000 N 
ATOM     14  C6  UNL     1     -24.031  -3.569 -28.602  0.00  0.00    +0.000 C 
ATOM     15  C7  UNL     1     -25.509  -3.989 -28.713  0.00  0.00    +0.000 C 
ATOM     16  N4  UNL     1     -26.333  -3.593 -27.563  0.00  0.00    +0.000 NA
ATOM     17  C8  UNL     1     -25.567  -3.548 -26.306  0.00  0.00    +0.000 C 
ATOM     18  C9  UNL     1     -24.297  -4.416 -26.283  0.00  0.00    +0.000 C 
ATOM     19  H10 UNL     1     -27.113  -4.245 -27.471  0.00  0.00    +0.000 HD
ENDBRANCH   5  11
TORSDOF 1
ENDMDL
MODEL 2
REMARK VINA RESULT:    -4.760      2.918      6.046
REMARK INTER + INTRA:          -5.167
REMARK INTER:                  -5.040
REMARK INTRA:                  -0.127
REMARK UNBOUND:                -0.129
REMARK  Name = /home/anacleto/Desktop/manuscript_Mpro/naturecomm/supplementary_file_S2/6-chemical-library/molecular_docking/3D_ligand_structure/655.pdb
REMARK  1 active torsions:
REMARK  status: ('A' for Active; 'I' for Inactive)
REMARK    1  A    between atoms: C2_5  and  C5_9
REMARK                            x       y       z     vdW  Elec       q    Type
REMARK                         _______ _______ _______ _____ _____    ______ ____
ROOT
ATOM      1  N1  UNL     1     -26.697  -4.917 -27.184  0.00  0.00    +0.000 N 
ATOM      2  C1  UNL     1     -26.838  -3.984 -28.165  0.00  0.00    +0.000 C 
ATOM      3  O1  UNL     1     -27.907  -3.760 -28.717  0.00  0.00    +0.000 OA
ATOM      4  N2  UNL     1     -25.717  -3.284 -28.485  0.00  0.00    +0.000 N 
ATOM      5  C2  UNL     1     -24.413  -3.721 -28.027  0.00  0.00    +0.000 C 
ATOM      6  C3  UNL     1     -24.480  -4.083 -26.552  0.00  0.00    +0.000 C 
ATOM      7  C4  UNL     1     -25.673  -4.964 -26.277  0.00  0.00    +0.000 C 
ATOM      8  O2  UNL     1     -25.778  -5.614 -25.238  0.00  0.00    +0.000 OA
ATOM      9  H1  UNL     1     -27.533  -5.422 -26.929  0.00  0.00    +0.000 HD
ATOM     10  H2  UNL     1     -25.821  -2.675 -29.287  0.00  0.00    +0.000 HD
ENDROOT
BRANCH   5  11
ATOM     11  C5  UNL     1     -23.865  -4.887 -28.889  0.00  0.00    +0.000 C 
ATOM     12  O3  UNL     1     -24.623  -5.764 -29.309  0.00  0.00    +0.000 OA
ATOM     13  N3  UNL     1     -22.503  -4.936 -29.150  0.00  0.00    +0.000 N 
ATOM     14  C6  UNL     1     -21.477  -4.079 -28.546  0.00  0.00    +0.000 C 
ATOM     15  C7  UNL     1     -20.115  -4.793 -28.445  0.00  0.00    +0.000 C 
ATOM     16  N4  UNL     1     -19.589  -5.264 -29.733  0.00  0.00    +0.000 NA
ATOM     17  C8  UNL     1     -20.655  -5.623 -30.684  0.00  0.00    +0.000 C 
ATOM     18  C9  UNL     1     -22.006  -5.987 -30.045  0.00  0.00    +0.000 C 
ATOM     19  H10 UNL     1     -18.983  -6.069 -29.573  0.00  0.00    +0.000 HD
ENDBRANCH   5  11
TORSDOF 1
ENDMDL
MODEL 3
REMARK VINA RESULT:    -4.715     16.791     17.629
REMARK INTER + INTRA:          -5.120
REMARK INTER:                  -4.987
REMARK INTRA:                  -0.134
REMARK UNBOUND:                -0.129
REMARK  Name = /home/anacleto/Desktop/manuscript_Mpro/naturecomm/supplementary_file_S2/6-chemical-library/molecular_docking/3D_ligand_structure/655.pdb
REMARK  1 active torsions:
REMARK  status: ('A' for Active; 'I' for Inactive)
REMARK    1  A    between atoms: C2_5  and  C5_9
REMARK                            x       y       z     vdW  Elec       q    Type
REMARK                         _______ _______ _______ _____ _____    ______ ____
ROOT
ATOM      1  N1  UNL     1     -17.901   7.779 -40.965  0.00  0.00    +0.000 N 
ATOM      2  C1  UNL     1     -18.486   6.561 -40.802  0.00  0.00    +0.000 C 
ATOM      3  O1  UNL     1     -18.325   5.637 -41.589  0.00  0.00    +0.000 OA
ATOM      4  N2  UNL     1     -19.251   6.413 -39.687  0.00  0.00    +0.000 N 
ATOM      5  C2  UNL     1     -19.652   7.566 -38.904  0.00  0.00    +0.000 C 
ATOM      6  C3  UNL     1     -18.455   8.479 -38.682  0.00  0.00    +0.000 C 
ATOM      7  C4  UNL     1     -17.718   8.708 -39.977  0.00  0.00    +0.000 C 
ATOM      8  O2  UNL     1     -16.906   9.622 -40.112  0.00  0.00    +0.000 OA
ATOM      9  H1  UNL     1     -17.315   7.882 -41.780  0.00  0.00    +0.000 HD
ATOM     10  H2  UNL     1     -19.760   5.539 -39.643  0.00  0.00    +0.000 HD
ENDROOT
BRANCH   5  11
ATOM     11  C5  UNL     1     -20.842   8.314 -39.555  0.00  0.00    +0.000 C 
ATOM     12  O3  UNL     1     -20.894   8.462 -40.779  0.00  0.00    +0.000 OA
ATOM     13  N3  UNL     1     -21.827   8.838 -38.731  0.00  0.00    +0.000 N 
ATOM     14  C6  UNL     1     -21.780   8.910 -37.266  0.00  0.00    +0.000 C 
ATOM     15  C7  UNL     1     -22.576  10.111 -36.722  0.00  0.00    +0.000 C 
ATOM     16  N4  UNL     1     -23.992  10.120 -37.114  0.00  0.00    +0.000 NA
ATOM     17  C8  UNL     1     -24.220   9.487 -38.424  0.00  0.00    +0.000 C 
ATOM     18  C9  UNL     1     -22.998   9.460 -39.359  0.00  0.00    +0.000 C 
ATOM     19  H10 UNL     1     -24.328  11.082 -37.129  0.00  0.00    +0.000 HD
ENDBRANCH   5  11
TORSDOF 1
ENDMDL
MODEL 4
REMARK VINA RESULT:    -4.566     17.014     18.268
REMARK INTER + INTRA:          -4.962
REMARK INTER:                  -4.866
REMARK INTRA:                  -0.096
REMARK UNBOUND:                -0.129
REMARK  Name = /home/anacleto/Desktop/manuscript_Mpro/naturecomm/supplementary_file_S2/6-chemical-library/molecular_docking/3D_ligand_structure/655.pdb
REMARK  1 active torsions:
REMARK  status: ('A' for Active; 'I' for Inactive)
REMARK    1  A    between atoms: C2_5  and  C5_9
REMARK                            x       y       z     vdW  Elec       q    Type
REMARK                         _______ _______ _______ _____ _____    ______ ____
ROOT
ATOM      1  N1  UNL     1     -22.975   8.534 -37.773  0.00  0.00    +0.000 N 
ATOM      2  C1  UNL     1     -22.047   9.286 -37.121  0.00  0.00    +0.000 C 
ATOM      3  O1  UNL     1     -22.338  10.284 -36.474  0.00  0.00    +0.000 OA
ATOM      4  N2  UNL     1     -20.762   8.849 -37.205  0.00  0.00    +0.000 N 
ATOM      5  C2  UNL     1     -20.384   7.836 -38.171  0.00  0.00    +0.000 C 
ATOM      6  C3  UNL     1     -21.393   6.698 -38.145  0.00  0.00    +0.000 C 
ATOM      7  C4  UNL     1     -22.801   7.239 -38.180  0.00  0.00    +0.000 C 
ATOM      8  O2  UNL     1     -23.765   6.527 -38.456  0.00  0.00    +0.000 OA
ATOM      9  H1  UNL     1     -23.932   8.843 -37.692  0.00  0.00    +0.000 HD
ATOM     10  H2  UNL     1     -20.080   9.481 -36.805  0.00  0.00    +0.000 HD
ENDROOT
BRANCH   5  11
ATOM     11  C5  UNL     1     -20.216   8.433 -39.591  0.00  0.00    +0.000 C 
ATOM     12  O3  UNL     1     -21.077   8.244 -40.454  0.00  0.00    +0.000 OA
ATOM     13  N3  UNL     1     -19.067   9.155 -39.877  0.00  0.00    +0.000 N 
ATOM     14  C6  UNL     1     -17.887   9.276 -39.013  0.00  0.00    +0.000 C 
ATOM     15  C7  UNL     1     -16.595   9.476 -39.827  0.00  0.00    +0.000 C 
ATOM     16  N4  UNL     1     -16.616  10.653 -40.706  0.00  0.00    +0.000 NA
ATOM     17  C8  UNL     1     -17.969  10.975 -41.190  0.00  0.00    +0.000 C 
ATOM     18  C9  UNL     1     -18.960   9.797 -41.191  0.00  0.00    +0.000 C 
ATOM     19  H10 UNL     1     -15.994  10.490 -41.498  0.00  0.00    +0.000 HD
ENDBRANCH   5  11
TORSDOF 1
ENDMDL
MODEL 5
REMARK VINA RESULT:    -4.563      2.206      3.450
REMARK INTER + INTRA:          -4.959
REMARK INTER:                  -4.841
REMARK INTRA:                  -0.117
REMARK UNBOUND:                -0.129
REMARK  Name = /home/anacleto/Desktop/manuscript_Mpro/naturecomm/supplementary_file_S2/6-chemical-library/molecular_docking/3D_ligand_structure/655.pdb
REMARK  1 active torsions:
REMARK  status: ('A' for Active; 'I' for Inactive)
REMARK    1  A    between atoms: C2_5  and  C5_9
REMARK                            x       y       z     vdW  Elec       q    Type
REMARK                         _______ _______ _______ _____ _____    ______ ____
ROOT
ATOM      1  N1  UNL     1     -21.121  -5.076 -29.037  0.00  0.00    +0.000 N 
ATOM      2  C1  UNL     1     -21.865  -5.924 -29.799  0.00  0.00    +0.000 C 
ATOM      3  O1  UNL     1     -21.551  -6.238 -30.940  0.00  0.00    +0.000 OA
ATOM      4  N2  UNL     1     -22.979  -6.433 -29.208  0.00  0.00    +0.000 N 
ATOM      5  C2  UNL     1     -23.487  -5.869 -27.973  0.00  0.00    +0.000 C 
ATOM      6  C3  UNL     1     -22.343  -5.659 -26.993  0.00  0.00    +0.000 C 
ATOM      7  C4  UNL     1     -21.183  -4.977 -27.674  0.00  0.00    +0.000 C 
ATOM      8  O2  UNL     1     -20.273  -4.448 -27.037  0.00  0.00    +0.000 OA
ATOM      9  H1  UNL     1     -20.282  -4.716 -29.467  0.00  0.00    +0.000 HD
ATOM     10  H2  UNL     1     -23.570  -6.973 -29.827  0.00  0.00    +0.000 HD
ENDROOT
BRANCH   5  11
ATOM     11  C5  UNL     1     -24.284  -4.563 -28.225  0.00  0.00    +0.000 C 
ATOM     12  O3  UNL     1     -23.702  -3.533 -28.574  0.00  0.00    +0.000 OA
ATOM     13  N3  UNL     1     -25.656  -4.574 -28.022  0.00  0.00    +0.000 N 
ATOM     14  C6  UNL     1     -26.431  -5.663 -27.418  0.00  0.00    +0.000 C 
ATOM     15  C7  UNL     1     -27.684  -5.143 -26.688  0.00  0.00    +0.000 C 
ATOM     16  N4  UNL     1     -28.601  -4.376 -27.542  0.00  0.00    +0.000 NA
ATOM     17  C8  UNL     1     -27.902  -3.658 -28.622  0.00  0.00    +0.000 C 
ATOM     18  C9  UNL     1     -26.416  -3.363 -28.355  0.00  0.00    +0.000 C 
ATOM     19  H10 UNL     1     -29.120  -3.714 -26.965  0.00  0.00    +0.000 HD
ENDBRANCH   5  11
TORSDOF 1
ENDMDL
MODEL 6
REMARK VINA RESULT:    -4.425     15.471     17.380
REMARK INTER + INTRA:          -4.813
REMARK INTER:                  -5.079
REMARK INTRA:                   0.265
REMARK UNBOUND:                -0.129
REMARK  Name = /home/anacleto/Desktop/manuscript_Mpro/naturecomm/supplementary_file_S2/6-chemical-library/molecular_docking/3D_ligand_structure/655.pdb
REMARK  1 active torsions:
REMARK  status: ('A' for Active; 'I' for Inactive)
REMARK    1  A    between atoms: C2_5  and  C5_9
REMARK                            x       y       z     vdW  Elec       q    Type
REMARK                         _______ _______ _______ _____ _____    ______ ____
ROOT
ATOM      1  N1  UNL     1     -30.724   6.778 -39.455  0.00  0.00    +0.000 N 
ATOM      2  C1  UNL     1     -30.506   6.009 -38.353  0.00  0.00    +0.000 C 
ATOM      3  O1  UNL     1     -30.453   6.473 -37.221  0.00  0.00    +0.000 OA
ATOM      4  N2  UNL     1     -30.375   4.674 -38.576  0.00  0.00    +0.000 N 
ATOM      5  C2  UNL     1     -30.178   4.161 -39.917  0.00  0.00    +0.000 C 
ATOM      6  C3  UNL     1     -31.158   4.825 -40.872  0.00  0.00    +0.000 C 
ATOM      7  C4  UNL     1     -31.169   6.319 -40.665  0.00  0.00    +0.000 C 
ATOM      8  O2  UNL     1     -31.652   7.089 -41.494  0.00  0.00    +0.000 OA
ATOM      9  H1  UNL     1     -30.844   7.766 -39.289  0.00  0.00    +0.000 HD
ATOM     10  H2  UNL     1     -30.108   4.139 -37.759  0.00  0.00    +0.000 HD
ENDROOT
BRANCH   5  11
ATOM     11  C5  UNL     1     -28.709   4.327 -40.384  0.00  0.00    +0.000 C 
ATOM     12  O3  UNL     1     -28.455   4.799 -41.495  0.00  0.00    +0.000 OA
ATOM     13  N3  UNL     1     -27.692   3.907 -39.538  0.00  0.00    +0.000 N 
ATOM     14  C6  UNL     1     -27.863   3.151 -38.293  0.00  0.00    +0.000 C 
ATOM     15  C7  UNL     1     -26.650   2.248 -37.996  0.00  0.00    +0.000 C 
ATOM     16  N4  UNL     1     -25.375   2.970 -37.898  0.00  0.00    +0.000 NA
ATOM     17  C8  UNL     1     -25.337   4.172 -38.749  0.00  0.00    +0.000 C 
ATOM     18  C9  UNL     1     -26.305   4.156 -39.945  0.00  0.00    +0.000 C 
ATOM     19  H10 UNL     1     -24.614   2.341 -38.152  0.00  0.00    +0.000 HD
ENDBRANCH   5  11
TORSDOF 1
ENDMDL
MODEL 7
REMARK VINA RESULT:    -4.417     15.462     16.320
REMARK INTER + INTRA:          -4.805
REMARK INTER:                  -4.675
REMARK INTRA:                  -0.129
REMARK UNBOUND:                -0.129
REMARK  Name = /home/anacleto/Desktop/manuscript_Mpro/naturecomm/supplementary_file_S2/6-chemical-library/molecular_docking/3D_ligand_structure/655.pdb
REMARK  1 active torsions:
REMARK  status: ('A' for Active; 'I' for Inactive)
REMARK    1  A    between atoms: C2_5  and  C5_9
REMARK                            x       y       z     vdW  Elec       q    Type
REMARK                         _______ _______ _______ _____ _____    ______ ____
ROOT
ATOM      1  N1  UNL     1     -20.478   8.740 -37.444  0.00  0.00    +0.000 N 
ATOM      2  C1  UNL     1     -21.689   9.356 -37.361  0.00  0.00    +0.000 C 
ATOM      3  O1  UNL     1     -21.992  10.103 -36.439  0.00  0.00    +0.000 OA
ATOM      4  N2  UNL     1     -22.550   9.116 -38.387  0.00  0.00    +0.000 N 
ATOM      5  C2  UNL     1     -22.300   8.043 -39.329  0.00  0.00    +0.000 C 
ATOM      6  C3  UNL     1     -20.846   8.078 -39.775  0.00  0.00    +0.000 C 
ATOM      7  C4  UNL     1     -19.931   8.219 -38.585  0.00  0.00    +0.000 C 
ATOM      8  O2  UNL     1     -18.726   7.984 -38.657  0.00  0.00    +0.000 OA
ATOM      9  H1  UNL     1     -19.831   8.936 -36.695  0.00  0.00    +0.000 HD
ATOM     10  H2  UNL     1     -23.478   9.496 -38.250  0.00  0.00    +0.000 HD
ENDROOT
BRANCH   5  11
ATOM     11  C5  UNL     1     -22.697   6.664 -38.746  0.00  0.00    +0.000 C 
ATOM     12  O3  UNL     1     -21.970   6.101 -37.923  0.00  0.00    +0.000 OA
ATOM     13  N3  UNL     1     -23.867   6.066 -39.191  0.00  0.00    +0.000 N 
ATOM     14  C6  UNL     1     -24.703   6.529 -40.304  0.00  0.00    +0.000 C 
ATOM     15  C7  UNL     1     -25.437   5.365 -40.996  0.00  0.00    +0.000 C 
ATOM     16  N4  UNL     1     -26.297   4.580 -40.101  0.00  0.00    +0.000 NA
ATOM     17  C8  UNL     1     -25.794   4.548 -38.716  0.00  0.00    +0.000 C 
ATOM     18  C9  UNL     1     -24.285   4.807 -38.564  0.00  0.00    +0.000 C 
ATOM     19  H10 UNL     1     -26.377   3.630 -40.462  0.00  0.00    +0.000 HD
ENDBRANCH   5  11
TORSDOF 1
ENDMDL
MODEL 8
REMARK VINA RESULT:    -4.417     15.829     17.574
REMARK INTER + INTRA:          -4.804
REMARK INTER:                  -4.731
REMARK INTRA:                  -0.074
REMARK UNBOUND:                -0.129
REMARK  Name = /home/anacleto/Desktop/manuscript_Mpro/naturecomm/supplementary_file_S2/6-chemical-library/molecular_docking/3D_ligand_structure/655.pdb
REMARK  1 active torsions:
REMARK  status: ('A' for Active; 'I' for Inactive)
REMARK    1  A    between atoms: C2_5  and  C5_9
REMARK                            x       y       z     vdW  Elec       q    Type
REMARK                         _______ _______ _______ _____ _____    ______ ____
ROOT
ATOM      1  N1  UNL     1     -35.912  -0.752 -37.133  0.00  0.00    +0.000 N 
ATOM      2  C1  UNL     1     -35.442  -1.507 -36.102  0.00  0.00    +0.000 C 
ATOM      3  O1  UNL     1     -34.666  -1.072 -35.262  0.00  0.00    +0.000 OA
ATOM      4  N2  UNL     1     -35.909  -2.783 -36.039  0.00  0.00    +0.000 N 
ATOM      5  C2  UNL     1     -36.611  -3.374 -37.162  0.00  0.00    +0.000 C 
ATOM      6  C3  UNL     1     -37.644  -2.394 -37.696  0.00  0.00    +0.000 C 
ATOM      7  C4  UNL     1     -37.036  -1.024 -37.865  0.00  0.00    +0.000 C 
ATOM      8  O2  UNL     1     -37.576  -0.150 -38.541  0.00  0.00    +0.000 OA
ATOM      9  H1  UNL     1     -35.585   0.201 -37.168  0.00  0.00    +0.000 HD
ATOM     10  H2  UNL     1     -35.465  -3.355 -35.331  0.00  0.00    +0.000 HD
ENDROOT
BRANCH   5  11
ATOM     11  C5  UNL     1     -35.630  -3.845 -38.266  0.00  0.00    +0.000 C 
ATOM     12  O3  UNL     1     -35.538  -3.222 -39.327  0.00  0.00    +0.000 OA
ATOM     13  N3  UNL     1     -34.886  -4.994 -38.047  0.00  0.00    +0.000 N 
ATOM     14  C6  UNL     1     -35.051  -5.929 -36.928  0.00  0.00    +0.000 C 
ATOM     15  C7  UNL     1     -34.654  -7.367 -37.315  0.00  0.00    +0.000 C 
ATOM     16  N4  UNL     1     -33.272  -7.499 -37.795  0.00  0.00    +0.000 NA
ATOM     17  C8  UNL     1     -32.790  -6.285 -38.476  0.00  0.00    +0.000 C 
ATOM     18  C9  UNL     1     -33.891  -5.379 -39.054  0.00  0.00    +0.000 C 
ATOM     19  H10 UNL     1     -33.214  -8.298 -38.427  0.00  0.00    +0.000 HD
ENDBRANCH   5  11
TORSDOF 1
ENDMDL
MODEL 9
REMARK VINA RESULT:    -4.404     15.201     16.259
REMARK INTER + INTRA:          -4.790
REMARK INTER:                  -4.661
REMARK INTRA:                  -0.129
REMARK UNBOUND:                -0.129
REMARK  Name = /home/anacleto/Desktop/manuscript_Mpro/naturecomm/supplementary_file_S2/6-chemical-library/molecular_docking/3D_ligand_structure/655.pdb
REMARK  1 active torsions:
REMARK  status: ('A' for Active; 'I' for Inactive)
REMARK    1  A    between atoms: C2_5  and  C5_9
REMARK                            x       y       z     vdW  Elec       q    Type
REMARK                         _______ _______ _______ _____ _____    ______ ____
ROOT
ATOM      1  N1  UNL     1     -24.687   4.095 -41.090  0.00  0.00    +0.000 N 
ATOM      2  C1  UNL     1     -25.013   2.805 -40.803  0.00  0.00    +0.000 C 
ATOM      3  O1  UNL     1     -24.540   1.852 -41.407  0.00  0.00    +0.000 OA
ATOM      4  N2  UNL     1     -25.887   2.627 -39.776  0.00  0.00    +0.000 N 
ATOM      5  C2  UNL     1     -26.639   3.744 -39.239  0.00  0.00    +0.000 C 
ATOM      6  C3  UNL     1     -25.715   4.934 -39.028  0.00  0.00    +0.000 C 
ATOM      7  C4  UNL     1     -24.859   5.161 -40.249  0.00  0.00    +0.000 C 
ATOM      8  O2  UNL     1     -24.253   6.215 -40.432  0.00  0.00    +0.000 OA
ATOM      9  H1  UNL     1     -24.022   4.228 -41.836  0.00  0.00    +0.000 HD
ATOM     10  H2  UNL     1     -26.195   1.671 -39.652  0.00  0.00    +0.000 HD
ENDROOT
BRANCH   5  11
ATOM     11  C5  UNL     1     -27.852   4.100 -40.135  0.00  0.00    +0.000 C 
ATOM     12  O3  UNL     1     -27.757   4.050 -41.364  0.00  0.00    +0.000 OA
ATOM     13  N3  UNL     1     -29.032   4.504 -39.527  0.00  0.00    +0.000 N 
ATOM     14  C6  UNL     1     -29.210   4.799 -38.101  0.00  0.00    +0.000 C 
ATOM     15  C7  UNL     1     -30.305   5.857 -37.864  0.00  0.00    +0.000 C 
ATOM     16  N4  UNL     1     -31.621   5.488 -38.402  0.00  0.00    +0.000 NA
ATOM     17  C8  UNL     1     -31.525   4.634 -39.598  0.00  0.00    +0.000 C 
ATOM     18  C9  UNL     1     -30.203   4.746 -40.377  0.00  0.00    +0.000 C 
ATOM     19  H10 UNL     1     -32.142   6.337 -38.622  0.00  0.00    +0.000 HD
ENDBRANCH   5  11
TORSDOF 1
ENDMDL
