MODEL 1
REMARK VINA RESULT:    -4.112      0.000      0.000
REMARK INTER + INTRA:          -4.730
REMARK INTER:                  -4.572
REMARK INTRA:                  -0.158
REMARK UNBOUND:                -0.137
REMARK  Name = /home/anacleto/Desktop/manuscript_Mpro/naturecomm/supplementary_file_S2/6-chemical-library/molecular_docking/3D_ligand_structure/1168.pdb
REMARK  2 active torsions:
REMARK  status: ('A' for Active; 'I' for Inactive)
REMARK    1  A    between atoms: C4_5  and  C5_6
REMARK    2  A    between atoms: C5_6  and  C6_8
REMARK                            x       y       z     vdW  Elec       q    Type
REMARK                         _______ _______ _______ _____ _____    ______ ____
ROOT
ATOM      1  C5  UNL     1     -24.325  -3.970 -26.523  0.00  0.00    +0.000 C 
ATOM      2  O1  UNL     1     -23.648  -3.931 -27.544  0.00  0.00    +0.000 OA
ENDROOT
BRANCH   1   3
ATOM      3  C6  UNL     1     -25.765  -4.086 -26.643  0.00  0.00    +0.000 A 
ATOM      4  C7  UNL     1     -26.599  -5.152 -26.229  0.00  0.00    +0.000 A 
ATOM      5  N1  UNL     1     -27.893  -4.869 -26.481  0.00  0.00    +0.000 NA
ATOM      6  O2  UNL     1     -27.954  -3.593 -27.061  0.00  0.00    +0.000 OA
ATOM      7  N2  UNL     1     -26.607  -3.124 -27.143  0.00  0.00    +0.000 N 
ATOM      8  H5  UNL     1     -26.434  -2.203 -27.537  0.00  0.00    +0.000 HD
ENDBRANCH   1   3
BRANCH   1  13
ATOM      9  S1  UNL     1     -24.162  -2.839 -23.963  0.00  0.00    +0.000 S 
ATOM     10  C1  UNL     1     -23.021  -3.477 -22.866  0.00  0.00    +0.000 A 
ATOM     11  C2  UNL     1     -22.294  -4.503 -23.423  0.00  0.00    +0.000 A 
ATOM     12  C3  UNL     1     -22.689  -4.766 -24.766  0.00  0.00    +0.000 A 
ATOM     13  C4  UNL     1     -23.728  -3.956 -25.193  0.00  0.00    +0.000 A 
ENDBRANCH   1  13
TORSDOF 2
ENDMDL
MODEL 2
REMARK VINA RESULT:    -4.044     17.455     18.616
REMARK INTER + INTRA:          -4.654
REMARK INTER:                  -4.547
REMARK INTRA:                  -0.107
REMARK UNBOUND:                -0.137
REMARK  Name = /home/anacleto/Desktop/manuscript_Mpro/naturecomm/supplementary_file_S2/6-chemical-library/molecular_docking/3D_ligand_structure/1168.pdb
REMARK  2 active torsions:
REMARK  status: ('A' for Active; 'I' for Inactive)
REMARK    1  A    between atoms: C4_5  and  C5_6
REMARK    2  A    between atoms: C5_6  and  C6_8
REMARK                            x       y       z     vdW  Elec       q    Type
REMARK                         _______ _______ _______ _____ _____    ______ ____
ROOT
ATOM      1  C5  UNL     1     -21.183   9.013 -37.674  0.00  0.00    +0.000 C 
ATOM      2  O1  UNL     1     -21.394   9.887 -36.839  0.00  0.00    +0.000 OA
ENDROOT
BRANCH   1   3
ATOM      3  C6  UNL     1     -19.934   9.038 -38.408  0.00  0.00    +0.000 A 
ATOM      4  C7  UNL     1     -19.706   8.704 -39.765  0.00  0.00    +0.000 A 
ATOM      5  N1  UNL     1     -18.411   8.891 -40.090  0.00  0.00    +0.000 NA
ATOM      6  O2  UNL     1     -17.743   9.372 -38.954  0.00  0.00    +0.000 OA
ATOM      7  N2  UNL     1     -18.723   9.461 -37.919  0.00  0.00    +0.000 N 
ATOM      8  H5  UNL     1     -18.437   9.796 -37.003  0.00  0.00    +0.000 HD
ENDBRANCH   1   3
BRANCH   1  13
ATOM      9  S1  UNL     1     -23.777   8.160 -38.304  0.00  0.00    +0.000 S 
ATOM     10  C1  UNL     1     -24.088   6.484 -38.359  0.00  0.00    +0.000 A 
ATOM     11  C2  UNL     1     -22.967   5.745 -38.058  0.00  0.00    +0.000 A 
ATOM     12  C3  UNL     1     -21.842   6.575 -37.787  0.00  0.00    +0.000 A 
ATOM     13  C4  UNL     1     -22.122   7.925 -37.916  0.00  0.00    +0.000 A 
ENDBRANCH   1  13
TORSDOF 2
ENDMDL
MODEL 3
REMARK VINA RESULT:    -3.930     15.599     16.456
REMARK INTER + INTRA:          -4.527
REMARK INTER:                  -4.391
REMARK INTRA:                  -0.136
REMARK UNBOUND:                -0.137
REMARK  Name = /home/anacleto/Desktop/manuscript_Mpro/naturecomm/supplementary_file_S2/6-chemical-library/molecular_docking/3D_ligand_structure/1168.pdb
REMARK  2 active torsions:
REMARK  status: ('A' for Active; 'I' for Inactive)
REMARK    1  A    between atoms: C4_5  and  C5_6
REMARK    2  A    between atoms: C5_6  and  C6_8
REMARK                            x       y       z     vdW  Elec       q    Type
REMARK                         _______ _______ _______ _____ _____    ______ ____
ROOT
ATOM      1  C5  UNL     1     -29.043   3.733 -39.769  0.00  0.00    +0.000 C 
ATOM      2  O1  UNL     1     -29.853   3.154 -40.484  0.00  0.00    +0.000 OA
ENDROOT
BRANCH   1   3
ATOM      3  C6  UNL     1     -29.501   4.831 -38.941  0.00  0.00    +0.000 A 
ATOM      4  C7  UNL     1     -28.950   6.130 -38.820  0.00  0.00    +0.000 A 
ATOM      5  N1  UNL     1     -29.685   6.881 -37.976  0.00  0.00    +0.000 NA
ATOM      6  O2  UNL     1     -30.759   6.101 -37.522  0.00  0.00    +0.000 OA
ATOM      7  N2  UNL     1     -30.623   4.825 -38.150  0.00  0.00    +0.000 N 
ATOM      8  H5  UNL     1     -31.314   4.107 -37.951  0.00  0.00    +0.000 HD
ENDBRANCH   1   3
BRANCH   1  13
ATOM      9  S1  UNL     1     -26.650   3.044 -41.055  0.00  0.00    +0.000 S 
ATOM     10  C1  UNL     1     -25.313   2.594 -40.095  0.00  0.00    +0.000 A 
ATOM     11  C2  UNL     1     -25.616   2.621 -38.753  0.00  0.00    +0.000 A 
ATOM     12  C3  UNL     1     -26.962   3.024 -38.519  0.00  0.00    +0.000 A 
ATOM     13  C4  UNL     1     -27.646   3.324 -39.686  0.00  0.00    +0.000 A 
ENDBRANCH   1  13
TORSDOF 2
ENDMDL
MODEL 4
REMARK VINA RESULT:    -3.893      2.126      2.730
REMARK INTER + INTRA:          -4.486
REMARK INTER:                  -4.346
REMARK INTRA:                  -0.140
REMARK UNBOUND:                -0.137
REMARK  Name = /home/anacleto/Desktop/manuscript_Mpro/naturecomm/supplementary_file_S2/6-chemical-library/molecular_docking/3D_ligand_structure/1168.pdb
REMARK  2 active torsions:
REMARK  status: ('A' for Active; 'I' for Inactive)
REMARK    1  A    between atoms: C4_5  and  C5_6
REMARK    2  A    between atoms: C5_6  and  C6_8
REMARK                            x       y       z     vdW  Elec       q    Type
REMARK                         _______ _______ _______ _____ _____    ______ ____
ROOT
ATOM      1  C5  UNL     1     -26.624  -4.100 -27.205  0.00  0.00    +0.000 C 
ATOM      2  O1  UNL     1     -26.879  -3.307 -28.105  0.00  0.00    +0.000 OA
ENDROOT
BRANCH   1   3
ATOM      3  C6  UNL     1     -27.668  -4.993 -26.746  0.00  0.00    +0.000 A 
ATOM      4  C7  UNL     1     -27.538  -6.173 -25.974  0.00  0.00    +0.000 A 
ATOM      5  N1  UNL     1     -28.749  -6.709 -25.716  0.00  0.00    +0.000 NA
ATOM      6  O2  UNL     1     -29.722  -5.884 -26.301  0.00  0.00    +0.000 OA
ATOM      7  N2  UNL     1     -29.017  -4.814 -26.931  0.00  0.00    +0.000 N 
ATOM      8  H5  UNL     1     -29.549  -4.097 -27.416  0.00  0.00    +0.000 HD
ENDBRANCH   1   3
BRANCH   1  13
ATOM      9  S1  UNL     1     -24.017  -5.123 -27.307  0.00  0.00    +0.000 S 
ATOM     10  C1  UNL     1     -22.949  -4.749 -26.030  0.00  0.00    +0.000 A 
ATOM     11  C2  UNL     1     -23.551  -3.967 -25.072  0.00  0.00    +0.000 A 
ATOM     12  C3  UNL     1     -24.904  -3.670 -25.402  0.00  0.00    +0.000 A 
ATOM     13  C4  UNL     1     -25.294  -4.208 -26.618  0.00  0.00    +0.000 A 
ENDBRANCH   1  13
TORSDOF 2
ENDMDL
MODEL 5
REMARK VINA RESULT:    -3.838      1.766      2.383
REMARK INTER + INTRA:          -4.424
REMARK INTER:                  -4.275
REMARK INTRA:                  -0.149
REMARK UNBOUND:                -0.137
REMARK  Name = /home/anacleto/Desktop/manuscript_Mpro/naturecomm/supplementary_file_S2/6-chemical-library/molecular_docking/3D_ligand_structure/1168.pdb
REMARK  2 active torsions:
REMARK  status: ('A' for Active; 'I' for Inactive)
REMARK    1  A    between atoms: C4_5  and  C5_6
REMARK    2  A    between atoms: C5_6  and  C6_8
REMARK                            x       y       z     vdW  Elec       q    Type
REMARK                         _______ _______ _______ _____ _____    ______ ____
ROOT
ATOM      1  C5  UNL     1     -25.645  -4.746 -25.528  0.00  0.00    +0.000 C 
ATOM      2  O1  UNL     1     -26.493  -5.601 -25.297  0.00  0.00    +0.000 OA
ENDROOT
BRANCH   1   3
ATOM      3  C6  UNL     1     -25.626  -4.115 -26.832  0.00  0.00    +0.000 A 
ATOM      4  C7  UNL     1     -24.606  -4.153 -27.813  0.00  0.00    +0.000 A 
ATOM      5  N1  UNL     1     -24.978  -3.470 -28.914  0.00  0.00    +0.000 NA
ATOM      6  O2  UNL     1     -26.270  -2.969 -28.699  0.00  0.00    +0.000 OA
ATOM      7  N2  UNL     1     -26.654  -3.395 -27.390  0.00  0.00    +0.000 N 
ATOM      8  H5  UNL     1     -27.571  -3.133 -27.040  0.00  0.00    +0.000 HD
ENDBRANCH   1   3
BRANCH   1  13
ATOM      9  S1  UNL     1     -23.883  -5.371 -23.440  0.00  0.00    +0.000 S 
ATOM     10  C1  UNL     1     -23.069  -4.093 -22.655  0.00  0.00    +0.000 A 
ATOM     11  C2  UNL     1     -23.418  -2.868 -23.175  0.00  0.00    +0.000 A 
ATOM     12  C3  UNL     1     -24.362  -2.991 -24.235  0.00  0.00    +0.000 A 
ATOM     13  C4  UNL     1     -24.688  -4.307 -24.519  0.00  0.00    +0.000 A 
ENDBRANCH   1  13
TORSDOF 2
ENDMDL
MODEL 6
REMARK VINA RESULT:    -3.838      2.110      2.614
REMARK INTER + INTRA:          -4.424
REMARK INTER:                  -4.280
REMARK INTRA:                  -0.143
REMARK UNBOUND:                -0.137
REMARK  Name = /home/anacleto/Desktop/manuscript_Mpro/naturecomm/supplementary_file_S2/6-chemical-library/molecular_docking/3D_ligand_structure/1168.pdb
REMARK  2 active torsions:
REMARK  status: ('A' for Active; 'I' for Inactive)
REMARK    1  A    between atoms: C4_5  and  C5_6
REMARK    2  A    between atoms: C5_6  and  C6_8
REMARK                            x       y       z     vdW  Elec       q    Type
REMARK                         _______ _______ _______ _____ _____    ______ ____
ROOT
ATOM      1  C5  UNL     1     -24.665  -3.691 -25.853  0.00  0.00    +0.000 C 
ATOM      2  O1  UNL     1     -24.596  -3.180 -24.741  0.00  0.00    +0.000 OA
ENDROOT
BRANCH   1   3
ATOM      3  C6  UNL     1     -25.968  -3.859 -26.464  0.00  0.00    +0.000 A 
ATOM      4  C7  UNL     1     -26.795  -5.009 -26.470  0.00  0.00    +0.000 A 
ATOM      5  N1  UNL     1     -27.953  -4.758 -27.113  0.00  0.00    +0.000 NA
ATOM      6  O2  UNL     1     -27.933  -3.422 -27.541  0.00  0.00    +0.000 OA
ATOM      7  N2  UNL     1     -26.682  -2.882 -27.113  0.00  0.00    +0.000 N 
ATOM      8  H5  UNL     1     -26.470  -1.911 -27.327  0.00  0.00    +0.000 HD
ENDBRANCH   1   3
BRANCH   1  13
ATOM      9  S1  UNL     1     -23.249  -3.770 -28.270  0.00  0.00    +0.000 S 
ATOM     10  C1  UNL     1     -21.744  -4.572 -28.303  0.00  0.00    +0.000 A 
ATOM     11  C2  UNL     1     -21.423  -5.108 -27.077  0.00  0.00    +0.000 A 
ATOM     12  C3  UNL     1     -22.429  -4.846 -26.103  0.00  0.00    +0.000 A 
ATOM     13  C4  UNL     1     -23.479  -4.091 -26.600  0.00  0.00    +0.000 A 
ENDBRANCH   1  13
TORSDOF 2
ENDMDL
MODEL 7
REMARK VINA RESULT:    -3.818     16.457     17.027
REMARK INTER + INTRA:          -4.402
REMARK INTER:                  -4.252
REMARK INTRA:                  -0.150
REMARK UNBOUND:                -0.137
REMARK  Name = /home/anacleto/Desktop/manuscript_Mpro/naturecomm/supplementary_file_S2/6-chemical-library/molecular_docking/3D_ligand_structure/1168.pdb
REMARK  2 active torsions:
REMARK  status: ('A' for Active; 'I' for Inactive)
REMARK    1  A    between atoms: C4_5  and  C5_6
REMARK    2  A    between atoms: C5_6  and  C6_8
REMARK                            x       y       z     vdW  Elec       q    Type
REMARK                         _______ _______ _______ _____ _____    ______ ____
ROOT
ATOM      1  C5  UNL     1     -22.325   6.743 -38.989  0.00  0.00    +0.000 C 
ATOM      2  O1  UNL     1     -21.359   6.510 -39.707  0.00  0.00    +0.000 OA
ENDROOT
BRANCH   1   3
ATOM      3  C6  UNL     1     -23.438   5.814 -38.994  0.00  0.00    +0.000 A 
ATOM      4  C7  UNL     1     -24.214   5.378 -40.095  0.00  0.00    +0.000 A 
ATOM      5  N1  UNL     1     -25.138   4.478 -39.699  0.00  0.00    +0.000 NA
ATOM      6  O2  UNL     1     -24.988   4.281 -38.318  0.00  0.00    +0.000 OA
ATOM      7  N2  UNL     1     -23.911   5.124 -37.906  0.00  0.00    +0.000 N 
ATOM      8  H5  UNL     1     -23.639   5.125 -36.926  0.00  0.00    +0.000 HD
ENDBRANCH   1   3
BRANCH   1  13
ATOM      9  S1  UNL     1     -23.764   8.874 -37.873  0.00  0.00    +0.000 S 
ATOM     10  C1  UNL     1     -22.957   9.918 -36.791  0.00  0.00    +0.000 A 
ATOM     11  C2  UNL     1     -21.641   9.557 -36.618  0.00  0.00    +0.000 A 
ATOM     12  C3  UNL     1     -21.301   8.404 -37.382  0.00  0.00    +0.000 A 
ATOM     13  C4  UNL     1     -22.372   7.894 -38.097  0.00  0.00    +0.000 A 
ENDBRANCH   1  13
TORSDOF 2
ENDMDL
MODEL 8
REMARK VINA RESULT:    -3.782      2.955      4.684
REMARK INTER + INTRA:          -4.361
REMARK INTER:                  -4.204
REMARK INTRA:                  -0.158
REMARK UNBOUND:                -0.137
REMARK  Name = /home/anacleto/Desktop/manuscript_Mpro/naturecomm/supplementary_file_S2/6-chemical-library/molecular_docking/3D_ligand_structure/1168.pdb
REMARK  2 active torsions:
REMARK  status: ('A' for Active; 'I' for Inactive)
REMARK    1  A    between atoms: C4_5  and  C5_6
REMARK    2  A    between atoms: C5_6  and  C6_8
REMARK                            x       y       z     vdW  Elec       q    Type
REMARK                         _______ _______ _______ _____ _____    ______ ____
ROOT
ATOM      1  C5  UNL     1     -24.101  -4.131 -26.412  0.00  0.00    +0.000 C 
ATOM      2  O1  UNL     1     -23.436  -3.874 -27.410  0.00  0.00    +0.000 OA
ENDROOT
BRANCH   1   3
ATOM      3  C6  UNL     1     -23.449  -4.121 -25.118  0.00  0.00    +0.000 A 
ATOM      4  C7  UNL     1     -23.746  -3.318 -23.990  0.00  0.00    +0.000 A 
ATOM      5  N1  UNL     1     -22.938  -3.631 -22.957  0.00  0.00    +0.000 NA
ATOM      6  O2  UNL     1     -22.087  -4.668 -23.369  0.00  0.00    +0.000 OA
ATOM      7  N2  UNL     1     -22.436  -4.959 -24.723  0.00  0.00    +0.000 N 
ATOM      8  H5  UNL     1     -21.929  -5.694 -25.210  0.00  0.00    +0.000 HD
ENDBRANCH   1   3
BRANCH   1  13
ATOM      9  S1  UNL     1     -26.294  -5.726 -25.705  0.00  0.00    +0.000 S 
ATOM     10  C1  UNL     1     -27.832  -5.307 -26.315  0.00  0.00    +0.000 A 
ATOM     11  C2  UNL     1     -27.776  -4.193 -27.121  0.00  0.00    +0.000 A 
ATOM     12  C3  UNL     1     -26.451  -3.681 -27.229  0.00  0.00    +0.000 A 
ATOM     13  C4  UNL     1     -25.532  -4.397 -26.479  0.00  0.00    +0.000 A 
ENDBRANCH   1  13
TORSDOF 2
ENDMDL
MODEL 9
REMARK VINA RESULT:    -3.743     15.451     16.498
REMARK INTER + INTRA:          -4.318
REMARK INTER:                  -4.181
REMARK INTRA:                  -0.137
REMARK UNBOUND:                -0.137
REMARK  Name = /home/anacleto/Desktop/manuscript_Mpro/naturecomm/supplementary_file_S2/6-chemical-library/molecular_docking/3D_ligand_structure/1168.pdb
REMARK  2 active torsions:
REMARK  status: ('A' for Active; 'I' for Inactive)
REMARK    1  A    between atoms: C4_5  and  C5_6
REMARK    2  A    between atoms: C5_6  and  C6_8
REMARK                            x       y       z     vdW  Elec       q    Type
REMARK                         _______ _______ _______ _____ _____    ______ ____
ROOT
ATOM      1  C5  UNL     1     -27.971   2.841 -38.840  0.00  0.00    +0.000 C 
ATOM      2  O1  UNL     1     -27.482   2.249 -37.885  0.00  0.00    +0.000 OA
ENDROOT
BRANCH   1   3
ATOM      3  C6  UNL     1     -28.266   2.096 -40.047  0.00  0.00    +0.000 A 
ATOM      4  C7  UNL     1     -27.538   2.065 -41.262  0.00  0.00    +0.000 A 
ATOM      5  N1  UNL     1     -28.113   1.219 -42.140  0.00  0.00    +0.000 NA
ATOM      6  O2  UNL     1     -29.238   0.650 -41.523  0.00  0.00    +0.000 OA
ATOM      7  N2  UNL     1     -29.304   1.212 -40.211  0.00  0.00    +0.000 N 
ATOM      8  H5  UNL     1     -30.057   0.923 -39.593  0.00  0.00    +0.000 HD
ENDBRANCH   1   3
BRANCH   1  13
ATOM      9  S1  UNL     1     -27.248   5.515 -39.270  0.00  0.00    +0.000 S 
ATOM     10  C1  UNL     1     -28.365   6.735 -38.850  0.00  0.00    +0.000 A 
ATOM     11  C2  UNL     1     -29.521   6.209 -38.320  0.00  0.00    +0.000 A 
ATOM     12  C3  UNL     1     -29.482   4.786 -38.268  0.00  0.00    +0.000 A 
ATOM     13  C4  UNL     1     -28.311   4.258 -38.786  0.00  0.00    +0.000 A 
ENDBRANCH   1  13
TORSDOF 2
ENDMDL
