MODEL 1
REMARK VINA RESULT:    -4.824      0.000      0.000
REMARK INTER + INTRA:          -5.489
REMARK INTER:                  -5.154
REMARK INTRA:                  -0.334
REMARK UNBOUND:                -0.100
REMARK  Name = /home/anacleto/Desktop/manuscript_Mpro/naturecomm/supplementary_file_S2/6-chemical-library/molecular_docking/3D_ligand_structure/1105.pdb
REMARK  2 active torsions:
REMARK  status: ('A' for Active; 'I' for Inactive)
REMARK    1  A    between atoms: C5_6  and  C6_7
REMARK    2  A    between atoms: C6_7  and  C7_8
REMARK                            x       y       z     vdW  Elec       q    Type
REMARK                         _______ _______ _______ _____ _____    ______ ____
ROOT
ATOM      1  C1  UNL     1      19.112   6.727   9.966  0.00  0.00    +0.000 C 
ATOM      2  N1  UNL     1      19.824   7.818   9.300  0.00  0.00    +0.000 NA
ATOM      3  C2  UNL     1      21.259   7.541   9.176  0.00  0.00    +0.000 C 
ATOM      4  C3  UNL     1      21.631   6.057   9.232  0.00  0.00    +0.000 C 
ATOM      5  C4  UNL     1      20.579   5.200   8.539  0.00  0.00    +0.000 C 
ATOM      6  C5  UNL     1      19.174   5.425   9.140  0.00  0.00    +0.000 C 
ATOM      7  H3  UNL     1      19.427   7.942   8.368  0.00  0.00    +0.000 HD
ENDROOT
BRANCH   6   8
ATOM      8  C6  UNL     1      18.747   4.207   9.986  0.00  0.00    +0.000 C 
BRANCH   8   9
ATOM      9  C7  UNL     1      17.921   3.196   9.227  0.00  0.00    +0.000 A 
ATOM     10  C8  UNL     1      18.129   1.823   9.412  0.00  0.00    +0.000 A 
ATOM     11  C9  UNL     1      17.358   0.890   8.718  0.00  0.00    +0.000 A 
ATOM     12  C10 UNL     1      16.371   1.320   7.833  0.00  0.00    +0.000 A 
ATOM     13  C11 UNL     1      16.157   2.683   7.640  0.00  0.00    +0.000 A 
ATOM     14  C12 UNL     1      16.927   3.617   8.333  0.00  0.00    +0.000 A 
ENDBRANCH   8   9
ENDBRANCH   6   8
TORSDOF 2
ENDMDL
MODEL 2
REMARK VINA RESULT:    -4.725      3.761      5.239
REMARK INTER + INTRA:          -5.378
REMARK INTER:                  -5.058
REMARK INTRA:                  -0.320
REMARK UNBOUND:                -0.100
REMARK  Name = /home/anacleto/Desktop/manuscript_Mpro/naturecomm/supplementary_file_S2/6-chemical-library/molecular_docking/3D_ligand_structure/1105.pdb
REMARK  2 active torsions:
REMARK  status: ('A' for Active; 'I' for Inactive)
REMARK    1  A    between atoms: C5_6  and  C6_7
REMARK    2  A    between atoms: C6_7  and  C7_8
REMARK                            x       y       z     vdW  Elec       q    Type
REMARK                         _______ _______ _______ _____ _____    ______ ____
ROOT
ATOM      1  C1  UNL     1      20.976   6.714  11.328  0.00  0.00    +0.000 C 
ATOM      2  N1  UNL     1      21.705   7.614  10.432  0.00  0.00    +0.000 NA
ATOM      3  C2  UNL     1      21.377   7.370   9.024  0.00  0.00    +0.000 C 
ATOM      4  C3  UNL     1      20.028   6.684   8.792  0.00  0.00    +0.000 C 
ATOM      5  C4  UNL     1      18.986   7.165   9.793  0.00  0.00    +0.000 C 
ATOM      6  C5  UNL     1      19.454   6.951  11.250  0.00  0.00    +0.000 C 
ATOM      7  H3  UNL     1      21.460   8.575  10.670  0.00  0.00    +0.000 HD
ENDROOT
BRANCH   6   8
ATOM      8  C6  UNL     1      18.675   5.789  11.902  0.00  0.00    +0.000 C 
BRANCH   8   9
ATOM      9  C7  UNL     1      17.689   6.232  12.956  0.00  0.00    +0.000 A 
ATOM     10  C8  UNL     1      17.752   7.526  13.493  0.00  0.00    +0.000 A 
ATOM     11  C9  UNL     1      16.833   7.937  14.458  0.00  0.00    +0.000 A 
ATOM     12  C10 UNL     1      15.843   7.061  14.898  0.00  0.00    +0.000 A 
ATOM     13  C11 UNL     1      15.771   5.773  14.373  0.00  0.00    +0.000 A 
ATOM     14  C12 UNL     1      16.689   5.359  13.407  0.00  0.00    +0.000 A 
ENDBRANCH   8   9
ENDBRANCH   6   8
TORSDOF 2
ENDMDL
MODEL 3
REMARK VINA RESULT:    -4.549     13.108     14.664
REMARK INTER + INTRA:          -5.182
REMARK INTER:                  -4.775
REMARK INTRA:                  -0.407
REMARK UNBOUND:                -0.100
REMARK  Name = /home/anacleto/Desktop/manuscript_Mpro/naturecomm/supplementary_file_S2/6-chemical-library/molecular_docking/3D_ligand_structure/1105.pdb
REMARK  2 active torsions:
REMARK  status: ('A' for Active; 'I' for Inactive)
REMARK    1  A    between atoms: C5_6  and  C6_7
REMARK    2  A    between atoms: C6_7  and  C7_8
REMARK                            x       y       z     vdW  Elec       q    Type
REMARK                         _______ _______ _______ _____ _____    ______ ____
ROOT
ATOM      1  C1  UNL     1      17.009  10.222  -2.819  0.00  0.00    +0.000 C 
ATOM      2  N1  UNL     1      17.281   9.893  -4.219  0.00  0.00    +0.000 NA
ATOM      3  C2  UNL     1      16.697  10.875  -5.138  0.00  0.00    +0.000 C 
ATOM      4  C3  UNL     1      16.433  12.250  -4.519  0.00  0.00    +0.000 C 
ATOM      5  C4  UNL     1      17.522  12.623  -3.521  0.00  0.00    +0.000 C 
ATOM      6  C5  UNL     1      17.671  11.555  -2.415  0.00  0.00    +0.000 C 
ATOM      7  H3  UNL     1      18.292   9.869  -4.356  0.00  0.00    +0.000 HD
ENDROOT
BRANCH   6   8
ATOM      8  C6  UNL     1      17.101  12.078  -1.079  0.00  0.00    +0.000 C 
BRANCH   8   9
ATOM      9  C7  UNL     1      17.837  13.276  -0.529  0.00  0.00    +0.000 A 
ATOM     10  C8  UNL     1      19.214  13.211  -0.273  0.00  0.00    +0.000 A 
ATOM     11  C9  UNL     1      19.894  14.323   0.225  0.00  0.00    +0.000 A 
ATOM     12  C10 UNL     1      19.207  15.509   0.473  0.00  0.00    +0.000 A 
ATOM     13  C11 UNL     1      17.838  15.584   0.224  0.00  0.00    +0.000 A 
ATOM     14  C12 UNL     1      17.155  14.474  -0.274  0.00  0.00    +0.000 A 
ENDBRANCH   8   9
ENDBRANCH   6   8
TORSDOF 2
ENDMDL
MODEL 4
REMARK VINA RESULT:    -4.546     17.947     19.112
REMARK INTER + INTRA:          -5.177
REMARK INTER:                  -4.815
REMARK INTRA:                  -0.363
REMARK UNBOUND:                -0.100
REMARK  Name = /home/anacleto/Desktop/manuscript_Mpro/naturecomm/supplementary_file_S2/6-chemical-library/molecular_docking/3D_ligand_structure/1105.pdb
REMARK  2 active torsions:
REMARK  status: ('A' for Active; 'I' for Inactive)
REMARK    1  A    between atoms: C5_6  and  C6_7
REMARK    2  A    between atoms: C6_7  and  C7_8
REMARK                            x       y       z     vdW  Elec       q    Type
REMARK                         _______ _______ _______ _____ _____    ______ ____
ROOT
ATOM      1  C1  UNL     1      15.444  11.878  -4.627  0.00  0.00    +0.000 C 
ATOM      2  N1  UNL     1      14.819  10.574  -4.405  0.00  0.00    +0.000 NA
ATOM      3  C2  UNL     1      13.480  10.499  -4.997  0.00  0.00    +0.000 C 
ATOM      4  C3  UNL     1      13.227  11.492  -6.134  0.00  0.00    +0.000 C 
ATOM      5  C4  UNL     1      14.477  11.686  -6.983  0.00  0.00    +0.000 C 
ATOM      6  C5  UNL     1      15.682  12.141  -6.129  0.00  0.00    +0.000 C 
ATOM      7  H3  UNL     1      15.410   9.856  -4.825  0.00  0.00    +0.000 HD
ENDROOT
BRANCH   6   8
ATOM      8  C6  UNL     1      15.999  13.629  -6.391  0.00  0.00    +0.000 C 
BRANCH   8   9
ATOM      9  C7  UNL     1      16.658  13.886  -7.725  0.00  0.00    +0.000 A 
ATOM     10  C8  UNL     1      17.650  13.022  -8.208  0.00  0.00    +0.000 A 
ATOM     11  C9  UNL     1      18.251  13.255  -9.445  0.00  0.00    +0.000 A 
ATOM     12  C10 UNL     1      17.868  14.354 -10.212  0.00  0.00    +0.000 A 
ATOM     13  C11 UNL     1      16.883  15.220  -9.741  0.00  0.00    +0.000 A 
ATOM     14  C12 UNL     1      16.281  14.989  -8.503  0.00  0.00    +0.000 A 
ENDBRANCH   8   9
ENDBRANCH   6   8
TORSDOF 2
ENDMDL
MODEL 5
REMARK VINA RESULT:    -4.528      2.651      5.850
REMARK INTER + INTRA:          -5.157
REMARK INTER:                  -4.840
REMARK INTRA:                  -0.317
REMARK UNBOUND:                -0.100
REMARK  Name = /home/anacleto/Desktop/manuscript_Mpro/naturecomm/supplementary_file_S2/6-chemical-library/molecular_docking/3D_ligand_structure/1105.pdb
REMARK  2 active torsions:
REMARK  status: ('A' for Active; 'I' for Inactive)
REMARK    1  A    between atoms: C5_6  and  C6_7
REMARK    2  A    between atoms: C6_7  and  C7_8
REMARK                            x       y       z     vdW  Elec       q    Type
REMARK                         _______ _______ _______ _____ _____    ______ ____
ROOT
ATOM      1  C1  UNL     1      16.810   1.025   9.716  0.00  0.00    +0.000 C 
ATOM      2  N1  UNL     1      16.190  -0.046   8.934  0.00  0.00    +0.000 NA
ATOM      3  C2  UNL     1      14.953   0.397   8.282  0.00  0.00    +0.000 C 
ATOM      4  C3  UNL     1      14.845   1.910   8.076  0.00  0.00    +0.000 C 
ATOM      5  C4  UNL     1      16.201   2.517   7.736  0.00  0.00    +0.000 C 
ATOM      6  C5  UNL     1      17.257   2.195   8.816  0.00  0.00    +0.000 C 
ATOM      7  H3  UNL     1      16.852  -0.350   8.220  0.00  0.00    +0.000 HD
ENDROOT
BRANCH   6   8
ATOM      8  C6  UNL     1      17.574   3.453   9.653  0.00  0.00    +0.000 C 
BRANCH   8   9
ATOM      9  C7  UNL     1      18.849   4.151   9.247  0.00  0.00    +0.000 A 
ATOM     10  C8  UNL     1      18.819   5.469   8.770  0.00  0.00    +0.000 A 
ATOM     11  C9  UNL     1      19.999   6.116   8.405  0.00  0.00    +0.000 A 
ATOM     12  C10 UNL     1      21.221   5.455   8.512  0.00  0.00    +0.000 A 
ATOM     13  C11 UNL     1      21.262   4.144   8.985  0.00  0.00    +0.000 A 
ATOM     14  C12 UNL     1      20.083   3.495   9.350  0.00  0.00    +0.000 A 
ENDBRANCH   8   9
ENDBRANCH   6   8
TORSDOF 2
ENDMDL
MODEL 6
REMARK VINA RESULT:    -4.492      3.913      5.500
REMARK INTER + INTRA:          -5.118
REMARK INTER:                  -4.832
REMARK INTRA:                  -0.286
REMARK UNBOUND:                -0.100
REMARK  Name = /home/anacleto/Desktop/manuscript_Mpro/naturecomm/supplementary_file_S2/6-chemical-library/molecular_docking/3D_ligand_structure/1105.pdb
REMARK  2 active torsions:
REMARK  status: ('A' for Active; 'I' for Inactive)
REMARK    1  A    between atoms: C5_6  and  C6_7
REMARK    2  A    between atoms: C6_7  and  C7_8
REMARK                            x       y       z     vdW  Elec       q    Type
REMARK                         _______ _______ _______ _____ _____    ______ ____
ROOT
ATOM      1  C1  UNL     1      17.714   5.689  12.698  0.00  0.00    +0.000 C 
ATOM      2  N1  UNL     1      16.463   5.451  13.419  0.00  0.00    +0.000 NA
ATOM      3  C2  UNL     1      16.535   5.911  14.809  0.00  0.00    +0.000 C 
ATOM      4  C3  UNL     1      17.596   6.983  15.073  0.00  0.00    +0.000 C 
ATOM      5  C4  UNL     1      17.712   7.944  13.896  0.00  0.00    +0.000 C 
ATOM      6  C5  UNL     1      18.019   7.197  12.579  0.00  0.00    +0.000 C 
ATOM      7  H3  UNL     1      15.713   5.951  12.941  0.00  0.00    +0.000 HD
ENDROOT
BRANCH   6   8
ATOM      8  C6  UNL     1      19.481   7.438  12.149  0.00  0.00    +0.000 C 
BRANCH   8   9
ATOM      9  C7  UNL     1      19.822   6.866  10.795  0.00  0.00    +0.000 A 
ATOM     10  C8  UNL     1      20.871   5.948  10.652  0.00  0.00    +0.000 A 
ATOM     11  C9  UNL     1      21.177   5.412   9.401  0.00  0.00    +0.000 A 
ATOM     12  C10 UNL     1      20.439   5.787   8.280  0.00  0.00    +0.000 A 
ATOM     13  C11 UNL     1      19.394   6.699   8.411  0.00  0.00    +0.000 A 
ATOM     14  C12 UNL     1      19.086   7.237   9.661  0.00  0.00    +0.000 A 
ENDBRANCH   8   9
ENDBRANCH   6   8
TORSDOF 2
ENDMDL
MODEL 7
REMARK VINA RESULT:    -4.450     15.078     15.927
REMARK INTER + INTRA:          -5.071
REMARK INTER:                  -4.670
REMARK INTRA:                  -0.401
REMARK UNBOUND:                -0.100
REMARK  Name = /home/anacleto/Desktop/manuscript_Mpro/naturecomm/supplementary_file_S2/6-chemical-library/molecular_docking/3D_ligand_structure/1105.pdb
REMARK  2 active torsions:
REMARK  status: ('A' for Active; 'I' for Inactive)
REMARK    1  A    between atoms: C5_6  and  C6_7
REMARK    2  A    between atoms: C6_7  and  C7_8
REMARK                            x       y       z     vdW  Elec       q    Type
REMARK                         _______ _______ _______ _____ _____    ______ ____
ROOT
ATOM      1  C1  UNL     1      16.759  13.652  -1.404  0.00  0.00    +0.000 C 
ATOM      2  N1  UNL     1      16.177  14.524  -0.383  0.00  0.00    +0.000 NA
ATOM      3  C2  UNL     1      15.675  15.778  -0.954  0.00  0.00    +0.000 C 
ATOM      4  C3  UNL     1      15.348  15.714  -2.448  0.00  0.00    +0.000 C 
ATOM      5  C4  UNL     1      14.759  14.360  -2.825  0.00  0.00    +0.000 C 
ATOM      6  C5  UNL     1      15.699  13.200  -2.430  0.00  0.00    +0.000 C 
ATOM      7  H3  UNL     1      15.405  14.029   0.065  0.00  0.00    +0.000 HD
ENDROOT
BRANCH   6   8
ATOM      8  C6  UNL     1      16.362  12.591  -3.684  0.00  0.00    +0.000 C 
BRANCH   8   9
ATOM      9  C7  UNL     1      15.378  12.033  -4.684  0.00  0.00    +0.000 A 
ATOM     10  C8  UNL     1      15.371  12.490  -6.009  0.00  0.00    +0.000 A 
ATOM     11  C9  UNL     1      14.469  11.965  -6.934  0.00  0.00    +0.000 A 
ATOM     12  C10 UNL     1      13.563  10.980  -6.546  0.00  0.00    +0.000 A 
ATOM     13  C11 UNL     1      13.560  10.519  -5.231  0.00  0.00    +0.000 A 
ATOM     14  C12 UNL     1      14.462  11.042  -4.304  0.00  0.00    +0.000 A 
ENDBRANCH   8   9
ENDBRANCH   6   8
TORSDOF 2
ENDMDL
MODEL 8
REMARK VINA RESULT:    -4.423      2.907      3.965
REMARK INTER + INTRA:          -5.041
REMARK INTER:                  -4.940
REMARK INTRA:                  -0.100
REMARK UNBOUND:                -0.100
REMARK  Name = /home/anacleto/Desktop/manuscript_Mpro/naturecomm/supplementary_file_S2/6-chemical-library/molecular_docking/3D_ligand_structure/1105.pdb
REMARK  2 active torsions:
REMARK  status: ('A' for Active; 'I' for Inactive)
REMARK    1  A    between atoms: C5_6  and  C6_7
REMARK    2  A    between atoms: C6_7  and  C7_8
REMARK                            x       y       z     vdW  Elec       q    Type
REMARK                         _______ _______ _______ _____ _____    ______ ____
ROOT
ATOM      1  C1  UNL     1      18.762   7.571  11.539  0.00  0.00    +0.000 C 
ATOM      2  N1  UNL     1      19.390   8.349  12.607  0.00  0.00    +0.000 NA
ATOM      3  C2  UNL     1      20.437   7.588  13.297  0.00  0.00    +0.000 C 
ATOM      4  C3  UNL     1      21.033   6.438  12.481  0.00  0.00    +0.000 C 
ATOM      5  C4  UNL     1      21.139   6.805  11.007  0.00  0.00    +0.000 C 
ATOM      6  C5  UNL     1      19.771   7.225  10.424  0.00  0.00    +0.000 C 
ATOM      7  H3  UNL     1      19.803   9.188  12.197  0.00  0.00    +0.000 HD
ENDROOT
BRANCH   6   8
ATOM      8  C6  UNL     1      19.219   6.123   9.495  0.00  0.00    +0.000 C 
BRANCH   8   9
ATOM      9  C7  UNL     1      20.215   5.033   9.182  0.00  0.00    +0.000 A 
ATOM     10  C8  UNL     1      21.250   5.256   8.262  0.00  0.00    +0.000 A 
ATOM     11  C9  UNL     1      22.176   4.251   7.982  0.00  0.00    +0.000 A 
ATOM     12  C10 UNL     1      22.078   3.014   8.617  0.00  0.00    +0.000 A 
ATOM     13  C11 UNL     1      21.053   2.782   9.531  0.00  0.00    +0.000 A 
ATOM     14  C12 UNL     1      20.126   3.785   9.813  0.00  0.00    +0.000 A 
ENDBRANCH   8   9
ENDBRANCH   6   8
TORSDOF 2
ENDMDL
MODEL 9
REMARK VINA RESULT:    -4.398     14.484     15.950
REMARK INTER + INTRA:          -5.013
REMARK INTER:                  -4.733
REMARK INTRA:                  -0.280
REMARK UNBOUND:                -0.100
REMARK  Name = /home/anacleto/Desktop/manuscript_Mpro/naturecomm/supplementary_file_S2/6-chemical-library/molecular_docking/3D_ligand_structure/1105.pdb
REMARK  2 active torsions:
REMARK  status: ('A' for Active; 'I' for Inactive)
REMARK    1  A    between atoms: C5_6  and  C6_7
REMARK    2  A    between atoms: C6_7  and  C7_8
REMARK                            x       y       z     vdW  Elec       q    Type
REMARK                         _______ _______ _______ _____ _____    ______ ____
ROOT
ATOM      1  C1  UNL     1      14.576  11.423  -3.945  0.00  0.00    +0.000 C 
ATOM      2  N1  UNL     1      13.906  10.271  -4.551  0.00  0.00    +0.000 NA
ATOM      3  C2  UNL     1      13.461  10.553  -5.920  0.00  0.00    +0.000 C 
ATOM      4  C3  UNL     1      14.216  11.689  -6.616  0.00  0.00    +0.000 C 
ATOM      5  C4  UNL     1      15.689  11.690  -6.228  0.00  0.00    +0.000 C 
ATOM      6  C5  UNL     1      15.875  11.780  -4.697  0.00  0.00    +0.000 C 
ATOM      7  H3  UNL     1      14.560   9.488  -4.568  0.00  0.00    +0.000 HD
ENDROOT
BRANCH   6   8
ATOM      8  C6  UNL     1      16.384  13.181  -4.296  0.00  0.00    +0.000 C 
BRANCH   8   9
ATOM      9  C7  UNL     1      17.111  13.211  -2.973  0.00  0.00    +0.000 A 
ATOM     10  C8  UNL     1      18.394  12.660  -2.852  0.00  0.00    +0.000 A 
ATOM     11  C9  UNL     1      19.068  12.697  -1.632  0.00  0.00    +0.000 A 
ATOM     12  C10 UNL     1      18.468  13.285  -0.520  0.00  0.00    +0.000 A 
ATOM     13  C11 UNL     1      17.192  13.835  -0.628  0.00  0.00    +0.000 A 
ATOM     14  C12 UNL     1      16.516  13.798  -1.848  0.00  0.00    +0.000 A 
ENDBRANCH   8   9
ENDBRANCH   6   8
TORSDOF 2
ENDMDL
