MODEL 1
REMARK VINA RESULT:    -4.685      0.000      0.000
REMARK INTER + INTRA:          -5.086
REMARK INTER:                  -5.009
REMARK INTRA:                  -0.077
REMARK UNBOUND:                -0.127
REMARK  Name = /home/anacleto/Desktop/manuscript_Mpro/naturecomm/supplementary_file_S2/6-chemical-library/molecular_docking/3D_ligand_structure/1220.pdb
REMARK  1 active torsions:
REMARK  status: ('A' for Active; 'I' for Inactive)
REMARK    1  A    between atoms: C6_6  and  C7_7
REMARK                            x       y       z     vdW  Elec       q    Type
REMARK                         _______ _______ _______ _____ _____    ______ ____
ROOT
ATOM      1  C7  UNL     1      20.498   6.443  10.364  0.00  0.00    +0.000 C 
ATOM      2  C8  UNL     1      20.424   7.449   9.203  0.00  0.00    +0.000 C 
ATOM      3  C9  UNL     1      19.136   7.364   8.387  0.00  0.00    +0.000 C 
ATOM      4  N1  UNL     1      18.848   5.997   7.954  0.00  0.00    +0.000 NA
ATOM      5  C10 UNL     1      18.706   5.101   9.099  0.00  0.00    +0.000 C 
ATOM      6  C11 UNL     1      19.969   5.058   9.957  0.00  0.00    +0.000 C 
ATOM      7  H11 UNL     1      19.611   5.666   7.363  0.00  0.00    +0.000 HD
ENDROOT
BRANCH   1  13
ATOM      8  C1  UNL     1      20.782   7.294  12.724  0.00  0.00    +0.000 A 
ATOM      9  C2  UNL     1      20.295   7.777  13.940  0.00  0.00    +0.000 A 
ATOM     10  C3  UNL     1      18.927   7.941  14.126  0.00  0.00    +0.000 A 
ATOM     11  C4  UNL     1      18.049   7.622  13.095  0.00  0.00    +0.000 A 
ATOM     12  C5  UNL     1      18.537   7.139  11.877  0.00  0.00    +0.000 A 
ATOM     13  C6  UNL     1      19.911   6.966  11.669  0.00  0.00    +0.000 A 
ENDBRANCH   1  13
TORSDOF 1
ENDMDL
MODEL 2
REMARK VINA RESULT:    -4.542      2.169      4.674
REMARK INTER + INTRA:          -4.935
REMARK INTER:                  -4.842
REMARK INTRA:                  -0.093
REMARK UNBOUND:                -0.127
REMARK  Name = /home/anacleto/Desktop/manuscript_Mpro/naturecomm/supplementary_file_S2/6-chemical-library/molecular_docking/3D_ligand_structure/1220.pdb
REMARK  1 active torsions:
REMARK  status: ('A' for Active; 'I' for Inactive)
REMARK    1  A    between atoms: C6_6  and  C7_7
REMARK                            x       y       z     vdW  Elec       q    Type
REMARK                         _______ _______ _______ _____ _____    ______ ____
ROOT
ATOM      1  C7  UNL     1      19.136   5.933  12.392  0.00  0.00    +0.000 C 
ATOM      2  C8  UNL     1      17.759   6.246  13.000  0.00  0.00    +0.000 C 
ATOM      3  C9  UNL     1      17.584   7.701  13.430  0.00  0.00    +0.000 C 
ATOM      4  N1  UNL     1      18.682   8.160  14.280  0.00  0.00    +0.000 NA
ATOM      5  C10 UNL     1      19.964   8.054  13.586  0.00  0.00    +0.000 C 
ATOM      6  C11 UNL     1      20.274   6.619  13.165  0.00  0.00    +0.000 C 
ATOM      7  H11 UNL     1      18.712   7.589  15.125  0.00  0.00    +0.000 HD
ENDROOT
BRANCH   1  13
ATOM      8  C1  UNL     1      18.855   5.080  10.032  0.00  0.00    +0.000 A 
ATOM      9  C2  UNL     1      18.899   5.221   8.643  0.00  0.00    +0.000 A 
ATOM     10  C3  UNL     1      19.295   6.429   8.079  0.00  0.00    +0.000 A 
ATOM     11  C4  UNL     1      19.645   7.493   8.904  0.00  0.00    +0.000 A 
ATOM     12  C5  UNL     1      19.599   7.351  10.295  0.00  0.00    +0.000 A 
ATOM     13  C6  UNL     1      19.204   6.143  10.884  0.00  0.00    +0.000 A 
ENDBRANCH   1  13
TORSDOF 1
ENDMDL
MODEL 3
REMARK VINA RESULT:    -4.464     15.070     17.441
REMARK INTER + INTRA:          -4.852
REMARK INTER:                  -4.611
REMARK INTRA:                  -0.241
REMARK UNBOUND:                -0.127
REMARK  Name = /home/anacleto/Desktop/manuscript_Mpro/naturecomm/supplementary_file_S2/6-chemical-library/molecular_docking/3D_ligand_structure/1220.pdb
REMARK  1 active torsions:
REMARK  status: ('A' for Active; 'I' for Inactive)
REMARK    1  A    between atoms: C6_6  and  C7_7
REMARK                            x       y       z     vdW  Elec       q    Type
REMARK                         _______ _______ _______ _____ _____    ______ ____
ROOT
ATOM      1  C7  UNL     1      14.990  12.216  -5.689  0.00  0.00    +0.000 C 
ATOM      2  C8  UNL     1      13.585  12.420  -5.101  0.00  0.00    +0.000 C 
ATOM      3  C9  UNL     1      12.598  11.306  -5.443  0.00  0.00    +0.000 C 
ATOM      4  N1  UNL     1      12.563  11.023  -6.878  0.00  0.00    +0.000 NA
ATOM      5  C10 UNL     1      13.879  10.615  -7.366  0.00  0.00    +0.000 C 
ATOM      6  C11 UNL     1      14.938  11.690  -7.133  0.00  0.00    +0.000 C 
ATOM      7  H11 UNL     1      12.266  11.862  -7.377  0.00  0.00    +0.000 HD
ENDROOT
BRANCH   1  13
ATOM      8  C1  UNL     1      17.150  10.968  -5.302  0.00  0.00    +0.000 A 
ATOM      9  C2  UNL     1      18.045  10.241  -4.513  0.00  0.00    +0.000 A 
ATOM     10  C3  UNL     1      17.732   9.958  -3.187  0.00  0.00    +0.000 A 
ATOM     11  C4  UNL     1      16.526  10.403  -2.654  0.00  0.00    +0.000 A 
ATOM     12  C5  UNL     1      15.632  11.131  -3.445  0.00  0.00    +0.000 A 
ATOM     13  C6  UNL     1      15.927  11.426  -4.782  0.00  0.00    +0.000 A 
ENDBRANCH   1  13
TORSDOF 1
ENDMDL
MODEL 4
REMARK VINA RESULT:    -4.401     13.977     17.026
REMARK INTER + INTRA:          -4.786
REMARK INTER:                  -4.691
REMARK INTRA:                  -0.095
REMARK UNBOUND:                -0.127
REMARK  Name = /home/anacleto/Desktop/manuscript_Mpro/naturecomm/supplementary_file_S2/6-chemical-library/molecular_docking/3D_ligand_structure/1220.pdb
REMARK  1 active torsions:
REMARK  status: ('A' for Active; 'I' for Inactive)
REMARK    1  A    between atoms: C6_6  and  C7_7
REMARK                            x       y       z     vdW  Elec       q    Type
REMARK                         _______ _______ _______ _____ _____    ______ ____
ROOT
ATOM      1  C7  UNL     1      16.740  11.487  -4.045  0.00  0.00    +0.000 C 
ATOM      2  C8  UNL     1      16.852  10.444  -2.922  0.00  0.00    +0.000 C 
ATOM      3  C9  UNL     1      16.119  10.828  -1.639  0.00  0.00    +0.000 C 
ATOM      4  N1  UNL     1      16.472  12.172  -1.184  0.00  0.00    +0.000 NA
ATOM      5  C10 UNL     1      16.147  13.173  -2.197  0.00  0.00    +0.000 C 
ATOM      6  C11 UNL     1      16.883  12.922  -3.511  0.00  0.00    +0.000 C 
ATOM      7  H11 UNL     1      17.473  12.206  -0.989  0.00  0.00    +0.000 HD
ENDROOT
BRANCH   1  13
ATOM      8  C1  UNL     1      15.664  11.551  -6.328  0.00  0.00    +0.000 A 
ATOM      9  C2  UNL     1      14.588  11.383  -7.203  0.00  0.00    +0.000 A 
ATOM     10  C3  UNL     1      13.359  10.947  -6.718  0.00  0.00    +0.000 A 
ATOM     11  C4  UNL     1      13.209  10.680  -5.361  0.00  0.00    +0.000 A 
ATOM     12  C5  UNL     1      14.287  10.849  -4.486  0.00  0.00    +0.000 A 
ATOM     13  C6  UNL     1      15.533  11.287  -4.953  0.00  0.00    +0.000 A 
ENDBRANCH   1  13
TORSDOF 1
ENDMDL
MODEL 5
REMARK VINA RESULT:    -4.401      2.388      4.999
REMARK INTER + INTRA:          -4.785
REMARK INTER:                  -4.658
REMARK INTRA:                  -0.127
REMARK UNBOUND:                -0.127
REMARK  Name = /home/anacleto/Desktop/manuscript_Mpro/naturecomm/supplementary_file_S2/6-chemical-library/molecular_docking/3D_ligand_structure/1220.pdb
REMARK  1 active torsions:
REMARK  status: ('A' for Active; 'I' for Inactive)
REMARK    1  A    between atoms: C6_6  and  C7_7
REMARK                            x       y       z     vdW  Elec       q    Type
REMARK                         _______ _______ _______ _____ _____    ______ ____
ROOT
ATOM      1  C7  UNL     1      19.399   5.226   9.338  0.00  0.00    +0.000 C 
ATOM      2  C8  UNL     1      19.244   6.465   8.440  0.00  0.00    +0.000 C 
ATOM      3  C9  UNL     1      20.036   7.681   8.915  0.00  0.00    +0.000 C 
ATOM      4  N1  UNL     1      19.788   7.984  10.324  0.00  0.00    +0.000 NA
ATOM      5  C10 UNL     1      20.156   6.856  11.177  0.00  0.00    +0.000 C 
ATOM      6  C11 UNL     1      19.370   5.593  10.831  0.00  0.00    +0.000 C 
ATOM      7  H11 UNL     1      18.797   8.191  10.452  0.00  0.00    +0.000 HD
ENDROOT
BRANCH   1  13
ATOM      8  C1  UNL     1      20.595   3.005   9.426  0.00  0.00    +0.000 A 
ATOM      9  C2  UNL     1      21.642   2.139   9.099  0.00  0.00    +0.000 A 
ATOM     10  C3  UNL     1      22.680   2.581   8.286  0.00  0.00    +0.000 A 
ATOM     11  C4  UNL     1      22.670   3.886   7.803  0.00  0.00    +0.000 A 
ATOM     12  C5  UNL     1      21.622   4.751   8.131  0.00  0.00    +0.000 A 
ATOM     13  C6  UNL     1      20.566   4.327   8.948  0.00  0.00    +0.000 A 
ENDBRANCH   1  13
TORSDOF 1
ENDMDL
MODEL 6
REMARK VINA RESULT:    -4.385     15.207     17.613
REMARK INTER + INTRA:          -4.769
REMARK INTER:                  -4.516
REMARK INTRA:                  -0.253
REMARK UNBOUND:                -0.127
REMARK  Name = /home/anacleto/Desktop/manuscript_Mpro/naturecomm/supplementary_file_S2/6-chemical-library/molecular_docking/3D_ligand_structure/1220.pdb
REMARK  1 active torsions:
REMARK  status: ('A' for Active; 'I' for Inactive)
REMARK    1  A    between atoms: C6_6  and  C7_7
REMARK                            x       y       z     vdW  Elec       q    Type
REMARK                         _______ _______ _______ _____ _____    ______ ____
ROOT
ATOM      1  C7  UNL     1      17.004  11.829  -5.034  0.00  0.00    +0.000 C 
ATOM      2  C8  UNL     1      18.121  11.447  -6.018  0.00  0.00    +0.000 C 
ATOM      3  C9  UNL     1      18.697  10.050  -5.796  0.00  0.00    +0.000 C 
ATOM      4  N1  UNL     1      19.087   9.831  -4.404  0.00  0.00    +0.000 NA
ATOM      5  C10 UNL     1      17.945   9.987  -3.506  0.00  0.00    +0.000 C 
ATOM      6  C11 UNL     1      17.326  11.381  -3.599  0.00  0.00    +0.000 C 
ATOM      7  H11 UNL     1      19.808  10.506  -4.149  0.00  0.00    +0.000 HD
ENDROOT
BRANCH   1  13
ATOM      8  C1  UNL     1      15.318  11.470  -6.877  0.00  0.00    +0.000 A 
ATOM      9  C2  UNL     1      14.055  11.117  -7.360  0.00  0.00    +0.000 A 
ATOM     10  C3  UNL     1      13.059  10.721  -6.474  0.00  0.00    +0.000 A 
ATOM     11  C4  UNL     1      13.327  10.678  -5.109  0.00  0.00    +0.000 A 
ATOM     12  C5  UNL     1      14.592  11.032  -4.628  0.00  0.00    +0.000 A 
ATOM     13  C6  UNL     1      15.609  11.434  -5.502  0.00  0.00    +0.000 A 
ENDBRANCH   1  13
TORSDOF 1
ENDMDL
MODEL 7
REMARK VINA RESULT:    -4.360     16.397     18.322
REMARK INTER + INTRA:          -4.742
REMARK INTER:                  -4.648
REMARK INTRA:                  -0.094
REMARK UNBOUND:                -0.127
REMARK  Name = /home/anacleto/Desktop/manuscript_Mpro/naturecomm/supplementary_file_S2/6-chemical-library/molecular_docking/3D_ligand_structure/1220.pdb
REMARK  1 active torsions:
REMARK  status: ('A' for Active; 'I' for Inactive)
REMARK    1  A    between atoms: C6_6  and  C7_7
REMARK                            x       y       z     vdW  Elec       q    Type
REMARK                         _______ _______ _______ _____ _____    ______ ____
ROOT
ATOM      1  C7  UNL     1      15.482  12.194  -6.886  0.00  0.00    +0.000 C 
ATOM      2  C8  UNL     1      14.978  13.324  -5.974  0.00  0.00    +0.000 C 
ATOM      3  C9  UNL     1      13.912  12.886  -4.971  0.00  0.00    +0.000 C 
ATOM      4  N1  UNL     1      12.816  12.161  -5.613  0.00  0.00    +0.000 NA
ATOM      5  C10 UNL     1      13.304  10.963  -6.293  0.00  0.00    +0.000 C 
ATOM      6  C11 UNL     1      14.335  11.292  -7.371  0.00  0.00    +0.000 C 
ATOM      7  H11 UNL     1      12.366  12.772  -6.295  0.00  0.00    +0.000 HD
ENDROOT
BRANCH   1  13
ATOM      8  C1  UNL     1      17.686  11.000  -7.188  0.00  0.00    +0.000 A 
ATOM      9  C2  UNL     1      18.795  10.294  -6.716  0.00  0.00    +0.000 A 
ATOM     10  C3  UNL     1      18.906   9.999  -5.361  0.00  0.00    +0.000 A 
ATOM     11  C4  UNL     1      17.910  10.412  -4.482  0.00  0.00    +0.000 A 
ATOM     12  C5  UNL     1      16.801  11.120  -4.956  0.00  0.00    +0.000 A 
ATOM     13  C6  UNL     1      16.669  11.426  -6.316  0.00  0.00    +0.000 A 
ENDBRANCH   1  13
TORSDOF 1
ENDMDL
MODEL 8
REMARK VINA RESULT:    -4.357     14.806     17.047
REMARK INTER + INTRA:          -4.739
REMARK INTER:                  -4.655
REMARK INTRA:                  -0.085
REMARK UNBOUND:                -0.127
REMARK  Name = /home/anacleto/Desktop/manuscript_Mpro/naturecomm/supplementary_file_S2/6-chemical-library/molecular_docking/3D_ligand_structure/1220.pdb
REMARK  1 active torsions:
REMARK  status: ('A' for Active; 'I' for Inactive)
REMARK    1  A    between atoms: C6_6  and  C7_7
REMARK                            x       y       z     vdW  Elec       q    Type
REMARK                         _______ _______ _______ _____ _____    ______ ____
ROOT
ATOM      1  C7  UNL     1      15.449  10.976  -3.127  0.00  0.00    +0.000 C 
ATOM      2  C8  UNL     1      15.355  12.308  -2.366  0.00  0.00    +0.000 C 
ATOM      3  C9  UNL     1      16.629  13.147  -2.419  0.00  0.00    +0.000 C 
ATOM      4  N1  UNL     1      17.812  12.375  -2.040  0.00  0.00    +0.000 NA
ATOM      5  C10 UNL     1      18.000  11.229  -2.927  0.00  0.00    +0.000 C 
ATOM      6  C11 UNL     1      16.802  10.282  -2.903  0.00  0.00    +0.000 C 
ATOM      7  H11 UNL     1      17.701  12.042  -1.082  0.00  0.00    +0.000 HD
ENDROOT
BRANCH   1  13
ATOM      8  C1  UNL     1      13.747  10.685  -4.969  0.00  0.00    +0.000 A 
ATOM      9  C2  UNL     1      13.326  10.757  -6.299  0.00  0.00    +0.000 A 
ATOM     10  C3  UNL     1      14.197  11.221  -7.279  0.00  0.00    +0.000 A 
ATOM     11  C4  UNL     1      15.485  11.611  -6.928  0.00  0.00    +0.000 A 
ATOM     12  C5  UNL     1      15.905  11.539  -5.596  0.00  0.00    +0.000 A 
ATOM     13  C6  UNL     1      15.044  11.075  -4.593  0.00  0.00    +0.000 A 
ENDBRANCH   1  13
TORSDOF 1
ENDMDL
MODEL 9
REMARK VINA RESULT:    -4.283     14.107     17.115
REMARK INTER + INTRA:          -4.660
REMARK INTER:                  -4.430
REMARK INTRA:                  -0.230
REMARK UNBOUND:                -0.127
REMARK  Name = /home/anacleto/Desktop/manuscript_Mpro/naturecomm/supplementary_file_S2/6-chemical-library/molecular_docking/3D_ligand_structure/1220.pdb
REMARK  1 active torsions:
REMARK  status: ('A' for Active; 'I' for Inactive)
REMARK    1  A    between atoms: C6_6  and  C7_7
REMARK                            x       y       z     vdW  Elec       q    Type
REMARK                         _______ _______ _______ _____ _____    ______ ____
ROOT
ATOM      1  C7  UNL     1      15.751  12.519  -3.535  0.00  0.00    +0.000 C 
ATOM      2  C8  UNL     1      17.262  12.737  -3.715  0.00  0.00    +0.000 C 
ATOM      3  C9  UNL     1      18.115  11.526  -3.344  0.00  0.00    +0.000 C 
ATOM      4  N1  UNL     1      17.784  11.005  -2.018  0.00  0.00    +0.000 NA
ATOM      5  C10 UNL     1      16.382  10.599  -1.946  0.00  0.00    +0.000 C 
ATOM      6  C11 UNL     1      15.431  11.758  -2.238  0.00  0.00    +0.000 C 
ATOM      7  H11 UNL     1      17.958  11.730  -1.322  0.00  0.00    +0.000 HD
ENDROOT
BRANCH   1  13
ATOM      8  C1  UNL     1      15.416  12.442  -6.036  0.00  0.00    +0.000 A 
ATOM      9  C2  UNL     1      14.814  11.953  -7.198  0.00  0.00    +0.000 A 
ATOM     10  C3  UNL     1      13.844  10.960  -7.113  0.00  0.00    +0.000 A 
ATOM     11  C4  UNL     1      13.479  10.458  -5.868  0.00  0.00    +0.000 A 
ATOM     12  C5  UNL     1      14.082  10.949  -4.706  0.00  0.00    +0.000 A 
ATOM     13  C6  UNL     1      15.061  11.949  -4.769  0.00  0.00    +0.000 A 
ENDBRANCH   1  13
TORSDOF 1
ENDMDL
