MODEL 1
REMARK VINA RESULT:    -3.375      0.000      0.000
REMARK INTER + INTRA:          -3.375
REMARK INTER:                  -3.375
REMARK INTRA:                   0.000
REMARK UNBOUND:                 0.000
REMARK  Name = /home/anacleto/Desktop/manuscript_Mpro/naturecomm/supplementary_file_S2/6-chemical-library/molecular_docking/3D_ligand_structure/376.pdb
REMARK  0 active torsions:
REMARK  status: ('A' for Active; 'I' for Inactive)
REMARK                            x       y       z     vdW  Elec       q    Type
REMARK                         _______ _______ _______ _____ _____    ______ ____
ROOT
ATOM      1  C1  UNL     1     -34.964  12.207 -34.167  0.00  0.00    +0.000 C 
ATOM      2  C2  UNL     1     -33.535  11.734 -33.795  0.00  0.00    +0.000 C 
ATOM      3  C3  UNL     1     -34.180  10.561 -33.013  0.00  0.00    +0.000 C 
ATOM      4  C4  UNL     1     -35.448  11.388 -33.000  0.00  0.00    +0.000 C 
ATOM      5  C5  UNL     1     -35.831  12.087 -31.714  0.00  0.00    +0.000 C 
ATOM      6  C6  UNL     1     -36.897  10.975 -31.537  0.00  0.00    +0.000 C 
ATOM      7  C7  UNL     1     -36.783  10.691 -33.057  0.00  0.00    +0.000 C 
ENDROOT
TORSDOF 0
ENDMDL
MODEL 2
REMARK VINA RESULT:    -3.312      0.214      2.956
REMARK INTER + INTRA:          -3.312
REMARK INTER:                  -3.312
REMARK INTRA:                   0.000
REMARK UNBOUND:                 0.000
REMARK  Name = /home/anacleto/Desktop/manuscript_Mpro/naturecomm/supplementary_file_S2/6-chemical-library/molecular_docking/3D_ligand_structure/376.pdb
REMARK  0 active torsions:
REMARK  status: ('A' for Active; 'I' for Inactive)
REMARK                            x       y       z     vdW  Elec       q    Type
REMARK                         _______ _______ _______ _____ _____    ______ ____
ROOT
ATOM      1  C1  UNL     1     -36.709  10.912 -33.221  0.00  0.00    +0.000 C 
ATOM      2  C2  UNL     1     -36.904  11.018 -31.687  0.00  0.00    +0.000 C 
ATOM      3  C3  UNL     1     -35.749  12.052 -31.661  0.00  0.00    +0.000 C 
ATOM      4  C4  UNL     1     -35.334  11.486 -33.002  0.00  0.00    +0.000 C 
ATOM      5  C5  UNL     1     -34.133  10.566 -33.046  0.00  0.00    +0.000 C 
ATOM      6  C6  UNL     1     -33.352  11.768 -33.637  0.00  0.00    +0.000 C 
ATOM      7  C7  UNL     1     -34.714  12.398 -34.028  0.00  0.00    +0.000 C 
ENDROOT
TORSDOF 0
ENDMDL
MODEL 3
REMARK VINA RESULT:    -3.271      1.584      3.016
REMARK INTER + INTRA:          -3.271
REMARK INTER:                  -3.271
REMARK INTRA:                   0.000
REMARK UNBOUND:                 0.000
REMARK  Name = /home/anacleto/Desktop/manuscript_Mpro/naturecomm/supplementary_file_S2/6-chemical-library/molecular_docking/3D_ligand_structure/376.pdb
REMARK  0 active torsions:
REMARK  status: ('A' for Active; 'I' for Inactive)
REMARK                            x       y       z     vdW  Elec       q    Type
REMARK                         _______ _______ _______ _____ _____    ______ ____
ROOT
ATOM      1  C1  UNL     1     -35.535  12.532 -30.925  0.00  0.00    +0.000 C 
ATOM      2  C2  UNL     1     -36.729  12.502 -29.937  0.00  0.00    +0.000 C 
ATOM      3  C3  UNL     1     -37.251  11.246 -30.682  0.00  0.00    +0.000 C 
ATOM      4  C4  UNL     1     -36.380  11.684 -31.839  0.00  0.00    +0.000 C 
ATOM      5  C5  UNL     1     -37.051  12.326 -33.034  0.00  0.00    +0.000 C 
ATOM      6  C6  UNL     1     -36.839  10.974 -33.762  0.00  0.00    +0.000 C 
ATOM      7  C7  UNL     1     -35.742  10.639 -32.719  0.00  0.00    +0.000 C 
ENDROOT
TORSDOF 0
ENDMDL
MODEL 4
REMARK VINA RESULT:    -3.217     14.088     15.463
REMARK INTER + INTRA:          -3.217
REMARK INTER:                  -3.217
REMARK INTRA:                   0.000
REMARK UNBOUND:                 0.000
REMARK  Name = /home/anacleto/Desktop/manuscript_Mpro/naturecomm/supplementary_file_S2/6-chemical-library/molecular_docking/3D_ligand_structure/376.pdb
REMARK  0 active torsions:
REMARK  status: ('A' for Active; 'I' for Inactive)
REMARK                            x       y       z     vdW  Elec       q    Type
REMARK                         _______ _______ _______ _____ _____    ______ ____
ROOT
ATOM      1  C1  UNL     1     -20.074   7.333 -38.853  0.00  0.00    +0.000 C 
ATOM      2  C2  UNL     1     -19.960   8.746 -38.226  0.00  0.00    +0.000 C 
ATOM      3  C3  UNL     1     -21.123   8.363 -37.273  0.00  0.00    +0.000 C 
ATOM      4  C4  UNL     1     -21.463   7.280 -38.274  0.00  0.00    +0.000 C 
ATOM      5  C5  UNL     1     -22.653   7.498 -39.183  0.00  0.00    +0.000 C 
ATOM      6  C6  UNL     1     -23.412   6.496 -38.275  0.00  0.00    +0.000 C 
ATOM      7  C7  UNL     1     -22.037   5.976 -37.782  0.00  0.00    +0.000 C 
ENDROOT
TORSDOF 0
ENDMDL
MODEL 5
REMARK VINA RESULT:    -3.215     14.050     15.528
REMARK INTER + INTRA:          -3.215
REMARK INTER:                  -3.215
REMARK INTRA:                   0.000
REMARK UNBOUND:                 0.000
REMARK  Name = /home/anacleto/Desktop/manuscript_Mpro/naturecomm/supplementary_file_S2/6-chemical-library/molecular_docking/3D_ligand_structure/376.pdb
REMARK  0 active torsions:
REMARK  status: ('A' for Active; 'I' for Inactive)
REMARK                            x       y       z     vdW  Elec       q    Type
REMARK                         _______ _______ _______ _____ _____    ______ ____
ROOT
ATOM      1  C1  UNL     1     -22.121   5.965 -37.787  0.00  0.00    +0.000 C 
ATOM      2  C2  UNL     1     -23.489   6.463 -38.319  0.00  0.00    +0.000 C 
ATOM      3  C3  UNL     1     -22.721   7.499 -39.181  0.00  0.00    +0.000 C 
ATOM      4  C4  UNL     1     -21.560   7.289 -38.233  0.00  0.00    +0.000 C 
ATOM      5  C5  UNL     1     -21.281   8.360 -37.200  0.00  0.00    +0.000 C 
ATOM      6  C6  UNL     1     -20.094   8.787 -38.101  0.00  0.00    +0.000 C 
ATOM      7  C7  UNL     1     -20.152   7.385 -38.760  0.00  0.00    +0.000 C 
ENDROOT
TORSDOF 0
ENDMDL
MODEL 6
REMARK VINA RESULT:    -3.082     11.660     12.934
REMARK INTER + INTRA:          -3.082
REMARK INTER:                  -3.082
REMARK INTRA:                   0.000
REMARK UNBOUND:                 0.000
REMARK  Name = /home/anacleto/Desktop/manuscript_Mpro/naturecomm/supplementary_file_S2/6-chemical-library/molecular_docking/3D_ligand_structure/376.pdb
REMARK  0 active torsions:
REMARK  status: ('A' for Active; 'I' for Inactive)
REMARK                            x       y       z     vdW  Elec       q    Type
REMARK                         _______ _______ _______ _____ _____    ______ ____
ROOT
ATOM      1  C1  UNL     1     -26.041   3.004 -39.663  0.00  0.00    +0.000 C 
ATOM      2  C2  UNL     1     -25.577   2.470 -38.284  0.00  0.00    +0.000 C 
ATOM      3  C3  UNL     1     -27.070   2.276 -37.912  0.00  0.00    +0.000 C 
ATOM      4  C4  UNL     1     -27.378   3.259 -39.020  0.00  0.00    +0.000 C 
ATOM      5  C5  UNL     1     -27.756   4.673 -38.633  0.00  0.00    +0.000 C 
ATOM      6  C6  UNL     1     -29.216   4.276 -38.972  0.00  0.00    +0.000 C 
ATOM      7  C7  UNL     1     -28.650   3.102 -39.812  0.00  0.00    +0.000 C 
ENDROOT
TORSDOF 0
ENDMDL
MODEL 7
REMARK VINA RESULT:    -3.058     17.592     19.180
REMARK INTER + INTRA:          -3.058
REMARK INTER:                  -3.058
REMARK INTRA:                   0.000
REMARK UNBOUND:                 0.000
REMARK  Name = /home/anacleto/Desktop/manuscript_Mpro/naturecomm/supplementary_file_S2/6-chemical-library/molecular_docking/3D_ligand_structure/376.pdb
REMARK  0 active torsions:
REMARK  status: ('A' for Active; 'I' for Inactive)
REMARK                            x       y       z     vdW  Elec       q    Type
REMARK                         _______ _______ _______ _____ _____    ______ ____
ROOT
ATOM      1  C1  UNL     1     -37.396   8.756 -15.406  0.00  0.00    +0.000 C 
ATOM      2  C2  UNL     1     -38.727   9.439 -15.811  0.00  0.00    +0.000 C 
ATOM      3  C3  UNL     1     -39.283   9.075 -14.411  0.00  0.00    +0.000 C 
ATOM      4  C4  UNL     1     -38.186   8.035 -14.347  0.00  0.00    +0.000 C 
ATOM      5  C5  UNL     1     -38.563   6.585 -14.564  0.00  0.00    +0.000 C 
ATOM      6  C6  UNL     1     -38.418   6.415 -13.030  0.00  0.00    +0.000 C 
ATOM      7  C7  UNL     1     -37.559   7.706 -13.016  0.00  0.00    +0.000 C 
ENDROOT
TORSDOF 0
ENDMDL
MODEL 8
REMARK VINA RESULT:    -3.013     11.521     12.964
REMARK INTER + INTRA:          -3.013
REMARK INTER:                  -3.013
REMARK INTRA:                   0.000
REMARK UNBOUND:                 0.000
REMARK  Name = /home/anacleto/Desktop/manuscript_Mpro/naturecomm/supplementary_file_S2/6-chemical-library/molecular_docking/3D_ligand_structure/376.pdb
REMARK  0 active torsions:
REMARK  status: ('A' for Active; 'I' for Inactive)
REMARK                            x       y       z     vdW  Elec       q    Type
REMARK                         _______ _______ _______ _____ _____    ______ ____
ROOT
ATOM      1  C1  UNL     1     -28.622   4.327 -38.395  0.00  0.00    +0.000 C 
ATOM      2  C2  UNL     1     -28.893   4.516 -39.909  0.00  0.00    +0.000 C 
ATOM      3  C3  UNL     1     -28.025   3.258 -40.171  0.00  0.00    +0.000 C 
ATOM      4  C4  UNL     1     -27.436   3.492 -38.797  0.00  0.00    +0.000 C 
ATOM      5  C5  UNL     1     -26.047   4.087 -38.709  0.00  0.00    +0.000 C 
ATOM      6  C6  UNL     1     -25.559   2.658 -38.359  0.00  0.00    +0.000 C 
ATOM      7  C7  UNL     1     -27.017   2.308 -37.964  0.00  0.00    +0.000 C 
ENDROOT
TORSDOF 0
ENDMDL
MODEL 9
REMARK VINA RESULT:    -2.900     17.636     19.386
REMARK INTER + INTRA:          -2.900
REMARK INTER:                  -2.900
REMARK INTRA:                   0.000
REMARK UNBOUND:                 0.000
REMARK  Name = /home/anacleto/Desktop/manuscript_Mpro/naturecomm/supplementary_file_S2/6-chemical-library/molecular_docking/3D_ligand_structure/376.pdb
REMARK  0 active torsions:
REMARK  status: ('A' for Active; 'I' for Inactive)
REMARK                            x       y       z     vdW  Elec       q    Type
REMARK                         _______ _______ _______ _____ _____    ______ ____
ROOT
ATOM      1  C1  UNL     1     -40.105   7.713 -13.962  0.00  0.00    +0.000 C 
ATOM      2  C2  UNL     1     -39.558   7.584 -12.517  0.00  0.00    +0.000 C 
ATOM      3  C3  UNL     1     -38.435   8.579 -12.906  0.00  0.00    +0.000 C 
ATOM      4  C4  UNL     1     -38.739   8.218 -14.344  0.00  0.00    +0.000 C 
ATOM      5  C5  UNL     1     -37.782   7.293 -15.064  0.00  0.00    +0.000 C 
ATOM      6  C6  UNL     1     -37.259   8.556 -15.795  0.00  0.00    +0.000 C 
ATOM      7  C7  UNL     1     -38.584   9.266 -15.416  0.00  0.00    +0.000 C 
ENDROOT
TORSDOF 0
ENDMDL
