MODEL 1
REMARK VINA RESULT:    -4.231      0.000      0.000
REMARK INTER + INTRA:          -4.514
REMARK INTER:                  -4.387
REMARK INTRA:                  -0.127
REMARK UNBOUND:                -0.037
REMARK  Name = /home/anacleto/Desktop/manuscript_Mpro/naturecomm/supplementary_file_S2/6-chemical-library/molecular_docking/3D_ligand_structure/1176.pdb
REMARK  1 active torsions:
REMARK  status: ('A' for Active; 'I' for Inactive)
REMARK    1  A    between atoms: C4_5  and  C5_6
REMARK                            x       y       z     vdW  Elec       q    Type
REMARK                         _______ _______ _______ _____ _____    ______ ____
ROOT
ATOM      1  C5  UNL     1      20.447   7.105  11.731  0.00  0.00    +0.000 C 
ATOM      2  O1  UNL     1      21.658   7.126  11.969  0.00  0.00    +0.000 OA
ATOM      3  N1  UNL     1      19.629   7.444  12.845  0.00  0.00    +0.000 N 
ATOM      4  C6  UNL     1      20.059   7.781  14.121  0.00  0.00    +0.000 A 
ATOM      5  C7  UNL     1      18.945   8.033  14.880  0.00  0.00    +0.000 A 
ATOM      6  C8  UNL     1      17.872   7.830  14.002  0.00  0.00    +0.000 A 
ATOM      7  N2  UNL     1      18.267   7.476  12.778  0.00  0.00    +0.000 NA
ENDROOT
BRANCH   1  12
ATOM      8  S1  UNL     1      19.434   5.122  10.132  0.00  0.00    +0.000 S 
ATOM      9  C1  UNL     1      18.968   5.442   8.523  0.00  0.00    +0.000 A 
ATOM     10  C2  UNL     1      19.167   6.758   8.182  0.00  0.00    +0.000 A 
ATOM     11  C3  UNL     1      19.712   7.513   9.265  0.00  0.00    +0.000 A 
ATOM     12  C4  UNL     1      19.917   6.758  10.406  0.00  0.00    +0.000 A 
ENDBRANCH   1  12
TORSDOF 1
ENDMDL
MODEL 2
REMARK VINA RESULT:    -4.075     15.811     17.215
REMARK INTER + INTRA:          -4.350
REMARK INTER:                  -4.236
REMARK INTRA:                  -0.114
REMARK UNBOUND:                -0.037
REMARK  Name = /home/anacleto/Desktop/manuscript_Mpro/naturecomm/supplementary_file_S2/6-chemical-library/molecular_docking/3D_ligand_structure/1176.pdb
REMARK  1 active torsions:
REMARK  status: ('A' for Active; 'I' for Inactive)
REMARK    1  A    between atoms: C4_5  and  C5_6
REMARK                            x       y       z     vdW  Elec       q    Type
REMARK                         _______ _______ _______ _____ _____    ______ ____
ROOT
ATOM      1  C5  UNL     1      15.424  11.489  -3.627  0.00  0.00    +0.000 C 
ATOM      2  O1  UNL     1      16.037  10.607  -3.018  0.00  0.00    +0.000 OA
ATOM      3  N1  UNL     1      15.457  12.763  -2.993  0.00  0.00    +0.000 N 
ATOM      4  C6  UNL     1      16.092  13.083  -1.801  0.00  0.00    +0.000 A 
ATOM      5  C7  UNL     1      15.871  14.415  -1.559  0.00  0.00    +0.000 A 
ATOM      6  C8  UNL     1      15.094  14.842  -2.645  0.00  0.00    +0.000 A 
ATOM      7  N2  UNL     1      14.837  13.862  -3.513  0.00  0.00    +0.000 NA
ENDROOT
BRANCH   1  12
ATOM      8  S1  UNL     1      15.526  11.660  -6.361  0.00  0.00    +0.000 S 
ATOM      9  C1  UNL     1      14.230  11.109  -7.325  0.00  0.00    +0.000 A 
ATOM     10  C2  UNL     1      13.204  10.602  -6.565  0.00  0.00    +0.000 A 
ATOM     11  C3  UNL     1      13.490  10.669  -5.168  0.00  0.00    +0.000 A 
ATOM     12  C4  UNL     1      14.727  11.226  -4.892  0.00  0.00    +0.000 A 
ENDBRANCH   1  12
TORSDOF 1
ENDMDL
MODEL 3
REMARK VINA RESULT:    -4.057      2.254      4.875
REMARK INTER + INTRA:          -4.330
REMARK INTER:                  -4.205
REMARK INTRA:                  -0.126
REMARK UNBOUND:                -0.037
REMARK  Name = /home/anacleto/Desktop/manuscript_Mpro/naturecomm/supplementary_file_S2/6-chemical-library/molecular_docking/3D_ligand_structure/1176.pdb
REMARK  1 active torsions:
REMARK  status: ('A' for Active; 'I' for Inactive)
REMARK    1  A    between atoms: C4_5  and  C5_6
REMARK                            x       y       z     vdW  Elec       q    Type
REMARK                         _______ _______ _______ _____ _____    ______ ____
ROOT
ATOM      1  C5  UNL     1      18.665   5.712  11.520  0.00  0.00    +0.000 C 
ATOM      2  O1  UNL     1      18.397   4.510  11.596  0.00  0.00    +0.000 OA
ATOM      3  N1  UNL     1      19.001   6.151  10.208  0.00  0.00    +0.000 N 
ATOM      4  C6  UNL     1      19.050   5.375   9.059  0.00  0.00    +0.000 A 
ATOM      5  C7  UNL     1      19.416   6.194   8.021  0.00  0.00    +0.000 A 
ATOM      6  C8  UNL     1      19.572   7.455   8.612  0.00  0.00    +0.000 A 
ATOM      7  N2  UNL     1      19.327   7.445   9.923  0.00  0.00    +0.000 NA
ENDROOT
BRANCH   1  12
ATOM      8  S1  UNL     1      20.123   6.897  13.517  0.00  0.00    +0.000 S 
ATOM      9  C1  UNL     1      19.377   7.914  14.665  0.00  0.00    +0.000 A 
ATOM     10  C2  UNL     1      18.026   8.036  14.443  0.00  0.00    +0.000 A 
ATOM     11  C3  UNL     1      17.601   7.278  13.309  0.00  0.00    +0.000 A 
ATOM     12  C4  UNL     1      18.635   6.596  12.692  0.00  0.00    +0.000 A 
ENDBRANCH   1  12
TORSDOF 1
ENDMDL
MODEL 4
REMARK VINA RESULT:    -4.019     15.119     16.926
REMARK INTER + INTRA:          -4.290
REMARK INTER:                  -4.158
REMARK INTRA:                  -0.132
REMARK UNBOUND:                -0.037
REMARK  Name = /home/anacleto/Desktop/manuscript_Mpro/naturecomm/supplementary_file_S2/6-chemical-library/molecular_docking/3D_ligand_structure/1176.pdb
REMARK  1 active torsions:
REMARK  status: ('A' for Active; 'I' for Inactive)
REMARK    1  A    between atoms: C4_5  and  C5_6
REMARK                            x       y       z     vdW  Elec       q    Type
REMARK                         _______ _______ _______ _____ _____    ______ ____
ROOT
ATOM      1  C5  UNL     1      15.188  12.333  -3.667  0.00  0.00    +0.000 C 
ATOM      2  O1  UNL     1      14.681  13.301  -3.093  0.00  0.00    +0.000 OA
ATOM      3  N1  UNL     1      16.253  11.721  -2.947  0.00  0.00    +0.000 N 
ATOM      4  C6  UNL     1      16.747  12.104  -1.708  0.00  0.00    +0.000 A 
ATOM      5  C7  UNL     1      17.767  11.246  -1.386  0.00  0.00    +0.000 A 
ATOM      6  C8  UNL     1      17.838  10.366  -2.475  0.00  0.00    +0.000 A 
ATOM      7  N2  UNL     1      16.936  10.639  -3.419  0.00  0.00    +0.000 NA
ENDROOT
BRANCH   1  12
ATOM      8  S1  UNL     1      13.481  10.666  -5.017  0.00  0.00    +0.000 S 
ATOM      9  C1  UNL     1      13.455  10.629  -6.722  0.00  0.00    +0.000 A 
ATOM     10  C2  UNL     1      14.360  11.505  -7.270  0.00  0.00    +0.000 A 
ATOM     11  C3  UNL     1      15.087  12.218  -6.268  0.00  0.00    +0.000 A 
ATOM     12  C4  UNL     1      14.719  11.870  -4.979  0.00  0.00    +0.000 A 
ENDBRANCH   1  12
TORSDOF 1
ENDMDL
MODEL 5
REMARK VINA RESULT:    -4.003     16.519     17.611
REMARK INTER + INTRA:          -4.274
REMARK INTER:                  -4.145
REMARK INTRA:                  -0.129
REMARK UNBOUND:                -0.037
REMARK  Name = /home/anacleto/Desktop/manuscript_Mpro/naturecomm/supplementary_file_S2/6-chemical-library/molecular_docking/3D_ligand_structure/1176.pdb
REMARK  1 active torsions:
REMARK  status: ('A' for Active; 'I' for Inactive)
REMARK    1  A    between atoms: C4_5  and  C5_6
REMARK                            x       y       z     vdW  Elec       q    Type
REMARK                         _______ _______ _______ _____ _____    ______ ____
ROOT
ATOM      1  C5  UNL     1      15.031  12.955  -2.770  0.00  0.00    +0.000 C 
ATOM      2  O1  UNL     1      15.519  12.177  -1.945  0.00  0.00    +0.000 OA
ATOM      3  N1  UNL     1      14.584  12.327  -3.968  0.00  0.00    +0.000 N 
ATOM      4  C6  UNL     1      14.648  10.974  -4.271  0.00  0.00    +0.000 A 
ATOM      5  C7  UNL     1      14.110  10.805  -5.521  0.00  0.00    +0.000 A 
ATOM      6  C8  UNL     1      13.739  12.096  -5.918  0.00  0.00    +0.000 A 
ATOM      7  N2  UNL     1      14.018  13.020  -4.997  0.00  0.00    +0.000 NA
ENDROOT
BRANCH   1  12
ATOM      8  S1  UNL     1      16.318  15.375  -2.848  0.00  0.00    +0.000 S 
ATOM      9  C1  UNL     1      15.527  16.806  -2.364  0.00  0.00    +0.000 A 
ATOM     10  C2  UNL     1      14.235  16.568  -1.959  0.00  0.00    +0.000 A 
ATOM     11  C3  UNL     1      13.894  15.185  -2.049  0.00  0.00    +0.000 A 
ATOM     12  C4  UNL     1      14.931  14.398  -2.521  0.00  0.00    +0.000 A 
ENDBRANCH   1  12
TORSDOF 1
ENDMDL
MODEL 6
REMARK VINA RESULT:    -3.878     15.111     17.259
REMARK INTER + INTRA:          -4.141
REMARK INTER:                  -4.021
REMARK INTRA:                  -0.120
REMARK UNBOUND:                -0.037
REMARK  Name = /home/anacleto/Desktop/manuscript_Mpro/naturecomm/supplementary_file_S2/6-chemical-library/molecular_docking/3D_ligand_structure/1176.pdb
REMARK  1 active torsions:
REMARK  status: ('A' for Active; 'I' for Inactive)
REMARK    1  A    between atoms: C4_5  and  C5_6
REMARK                            x       y       z     vdW  Elec       q    Type
REMARK                         _______ _______ _______ _____ _____    ______ ____
ROOT
ATOM      1  C5  UNL     1      16.552  12.023  -4.740  0.00  0.00    +0.000 C 
ATOM      2  O1  UNL     1      17.243  12.574  -5.602  0.00  0.00    +0.000 OA
ATOM      3  N1  UNL     1      15.312  11.517  -5.224  0.00  0.00    +0.000 N 
ATOM      4  C6  UNL     1      14.837  11.588  -6.526  0.00  0.00    +0.000 A 
ATOM      5  C7  UNL     1      13.608  10.978  -6.551  0.00  0.00    +0.000 A 
ATOM      6  C8  UNL     1      13.400  10.560  -5.230  0.00  0.00    +0.000 A 
ATOM      7  N2  UNL     1      14.413  10.876  -4.423  0.00  0.00    +0.000 NA
ENDROOT
BRANCH   1  12
ATOM      8  S1  UNL     1      16.396  13.076  -2.214  0.00  0.00    +0.000 S 
ATOM      9  C1  UNL     1      17.250  12.375  -0.915  0.00  0.00    +0.000 A 
ATOM     10  C2  UNL     1      17.975  11.277  -1.310  0.00  0.00    +0.000 A 
ATOM     11  C3  UNL     1      17.824  11.010  -2.705  0.00  0.00    +0.000 A 
ATOM     12  C4  UNL     1      16.988  11.910  -3.343  0.00  0.00    +0.000 A 
ENDBRANCH   1  12
TORSDOF 1
ENDMDL
MODEL 7
REMARK VINA RESULT:    -3.776     17.291     17.744
REMARK INTER + INTRA:          -4.034
REMARK INTER:                  -3.937
REMARK INTRA:                  -0.097
REMARK UNBOUND:                -0.037
REMARK  Name = /home/anacleto/Desktop/manuscript_Mpro/naturecomm/supplementary_file_S2/6-chemical-library/molecular_docking/3D_ligand_structure/1176.pdb
REMARK  1 active torsions:
REMARK  status: ('A' for Active; 'I' for Inactive)
REMARK    1  A    between atoms: C4_5  and  C5_6
REMARK                            x       y       z     vdW  Elec       q    Type
REMARK                         _______ _______ _______ _____ _____    ______ ____
ROOT
ATOM      1  C5  UNL     1      15.812  13.661  -4.473  0.00  0.00    +0.000 C 
ATOM      2  O1  UNL     1      17.006  13.808  -4.747  0.00  0.00    +0.000 OA
ATOM      3  N1  UNL     1      15.311  14.602  -3.529  0.00  0.00    +0.000 N 
ATOM      4  C6  UNL     1      16.021  15.625  -2.918  0.00  0.00    +0.000 A 
ATOM      5  C7  UNL     1      15.157  16.288  -2.084  0.00  0.00    +0.000 A 
ATOM      6  C8  UNL     1      13.939  15.613  -2.238  0.00  0.00    +0.000 A 
ATOM      7  N2  UNL     1      14.016  14.599  -3.101  0.00  0.00    +0.000 NA
ENDROOT
BRANCH   1  12
ATOM      8  S1  UNL     1      14.665  11.194  -4.130  0.00  0.00    +0.000 S 
ATOM      9  C1  UNL     1      13.752  10.469  -5.375  0.00  0.00    +0.000 A 
ATOM     10  C2  UNL     1      13.688  11.263  -6.495  0.00  0.00    +0.000 A 
ATOM     11  C3  UNL     1      14.403  12.487  -6.323  0.00  0.00    +0.000 A 
ATOM     12  C4  UNL     1      14.996  12.600  -5.078  0.00  0.00    +0.000 A 
ENDBRANCH   1  12
TORSDOF 1
ENDMDL
MODEL 8
REMARK VINA RESULT:    -3.760     10.354     11.363
REMARK INTER + INTRA:          -4.016
REMARK INTER:                  -3.887
REMARK INTRA:                  -0.130
REMARK UNBOUND:                -0.037
REMARK  Name = /home/anacleto/Desktop/manuscript_Mpro/naturecomm/supplementary_file_S2/6-chemical-library/molecular_docking/3D_ligand_structure/1176.pdb
REMARK  1 active torsions:
REMARK  status: ('A' for Active; 'I' for Inactive)
REMARK    1  A    between atoms: C4_5  and  C5_6
REMARK                            x       y       z     vdW  Elec       q    Type
REMARK                         _______ _______ _______ _____ _____    ______ ____
ROOT
ATOM      1  C5  UNL     1      25.054  16.518   9.811  0.00  0.00    +0.000 C 
ATOM      2  O1  UNL     1      25.007  17.585   9.193  0.00  0.00    +0.000 OA
ATOM      3  N1  UNL     1      26.072  15.629   9.361  0.00  0.00    +0.000 N 
ATOM      4  C6  UNL     1      26.975  15.852   8.331  0.00  0.00    +0.000 A 
ATOM      5  C7  UNL     1      27.774  14.742   8.234  0.00  0.00    +0.000 A 
ATOM      6  C8  UNL     1      27.301  13.884   9.235  0.00  0.00    +0.000 A 
ATOM      7  N2  UNL     1      26.280  14.402   9.919  0.00  0.00    +0.000 NA
ENDROOT
BRANCH   1  12
ATOM      8  S1  UNL     1      24.650  16.555  12.523  0.00  0.00    +0.000 S 
ATOM      9  C1  UNL     1      23.193  15.985  13.202  0.00  0.00    +0.000 A 
ATOM     10  C2  UNL     1      22.318  15.539  12.241  0.00  0.00    +0.000 A 
ATOM     11  C3  UNL     1      22.858  15.668  10.925  0.00  0.00    +0.000 A 
ATOM     12  C4  UNL     1      24.132  16.210  10.911  0.00  0.00    +0.000 A 
ENDBRANCH   1  12
TORSDOF 1
ENDMDL
MODEL 9
REMARK VINA RESULT:    -3.725     14.082     14.436
REMARK INTER + INTRA:          -3.979
REMARK INTER:                  -3.942
REMARK INTRA:                  -0.037
REMARK UNBOUND:                -0.037
REMARK  Name = /home/anacleto/Desktop/manuscript_Mpro/naturecomm/supplementary_file_S2/6-chemical-library/molecular_docking/3D_ligand_structure/1176.pdb
REMARK  1 active torsions:
REMARK  status: ('A' for Active; 'I' for Inactive)
REMARK    1  A    between atoms: C4_5  and  C5_6
REMARK                            x       y       z     vdW  Elec       q    Type
REMARK                         _______ _______ _______ _____ _____    ______ ____
ROOT
ATOM      1  C5  UNL     1      17.135  14.540  -0.182  0.00  0.00    +0.000 C 
ATOM      2  O1  UNL     1      16.350  15.352   0.315  0.00  0.00    +0.000 OA
ATOM      3  N1  UNL     1      18.508  14.845   0.041  0.00  0.00    +0.000 N 
ATOM      4  C6  UNL     1      19.015  15.931   0.740  0.00  0.00    +0.000 A 
ATOM      5  C7  UNL     1      20.383  15.839   0.711  0.00  0.00    +0.000 A 
ATOM      6  C8  UNL     1      20.638  14.672  -0.022  0.00  0.00    +0.000 A 
ATOM      7  N2  UNL     1      19.523  14.066  -0.431  0.00  0.00    +0.000 NA
ENDROOT
BRANCH   1  12
ATOM      8  S1  UNL     1      15.773  13.641  -2.386  0.00  0.00    +0.000 S 
ATOM      9  C1  UNL     1      15.593  11.972  -2.687  0.00  0.00    +0.000 A 
ATOM     10  C2  UNL     1      16.197  11.207  -1.719  0.00  0.00    +0.000 A 
ATOM     11  C3  UNL     1      16.818  12.009  -0.713  0.00  0.00    +0.000 A 
ATOM     12  C4  UNL     1      16.673  13.368  -0.936  0.00  0.00    +0.000 A 
ENDBRANCH   1  12
TORSDOF 1
ENDMDL
