MODEL 1
REMARK VINA RESULT:    -4.104      0.000      0.000
REMARK INTER + INTRA:          -4.104
REMARK INTER:                  -4.104
REMARK INTRA:                   0.000
REMARK UNBOUND:                 0.000
REMARK  Name = /home/anacleto/Desktop/manuscript_Mpro/naturecomm/supplementary_file_S2/6-chemical-library/molecular_docking/3D_ligand_structure/16.pdb
REMARK  0 active torsions:
REMARK  status: ('A' for Active; 'I' for Inactive)
REMARK                            x       y       z     vdW  Elec       q    Type
REMARK                         _______ _______ _______ _____ _____    ______ ____
ROOT
ATOM      1  N1  UNL     1     -37.613   9.338 -16.149  0.00  0.00    +0.000 NA
ATOM      2  C1  UNL     1     -37.826   8.439 -15.258  0.00  0.00    +0.000 A 
ATOM      3  C2  UNL     1     -38.487   8.659 -13.959  0.00  0.00    +0.000 A 
ATOM      4  C3  UNL     1     -38.631   7.609 -13.144  0.00  0.00    +0.000 A 
ATOM      5  N2  UNL     1     -38.179   6.369 -13.500  0.00  0.00    +0.000 N 
ATOM      6  C4  UNL     1     -37.557   6.101 -14.694  0.00  0.00    +0.000 A 
ATOM      7  O1  UNL     1     -37.165   4.975 -14.980  0.00  0.00    +0.000 OA
ATOM      8  N3  UNL     1     -37.409   7.173 -15.530  0.00  0.00    +0.000 N 
ATOM      9  H1  UNL     1     -37.967  10.249 -15.839  0.00  0.00    +0.000 HD
ATOM     10  H4  UNL     1     -38.290   5.578 -12.878  0.00  0.00    +0.000 HD
ATOM     11  H5  UNL     1     -36.956   7.015 -16.416  0.00  0.00    +0.000 HD
ENDROOT
TORSDOF 0
ENDMDL
MODEL 2
REMARK VINA RESULT:    -4.103     25.287     26.163
REMARK INTER + INTRA:          -4.103
REMARK INTER:                  -4.103
REMARK INTRA:                   0.000
REMARK UNBOUND:                 0.000
REMARK  Name = /home/anacleto/Desktop/manuscript_Mpro/naturecomm/supplementary_file_S2/6-chemical-library/molecular_docking/3D_ligand_structure/16.pdb
REMARK  0 active torsions:
REMARK  status: ('A' for Active; 'I' for Inactive)
REMARK                            x       y       z     vdW  Elec       q    Type
REMARK                         _______ _______ _______ _____ _____    ______ ____
ROOT
ATOM      1  N1  UNL     1     -18.007  -3.488 -24.025  0.00  0.00    +0.000 NA
ATOM      2  C1  UNL     1     -18.077  -4.430 -24.895  0.00  0.00    +0.000 A 
ATOM      3  C2  UNL     1     -18.832  -4.374 -26.160  0.00  0.00    +0.000 A 
ATOM      4  C3  UNL     1     -18.798  -5.447 -26.957  0.00  0.00    +0.000 A 
ATOM      5  N2  UNL     1     -18.088  -6.563 -26.612  0.00  0.00    +0.000 N 
ATOM      6  C4  UNL     1     -17.365  -6.675 -25.451  0.00  0.00    +0.000 A 
ATOM      7  O1  UNL     1     -16.739  -7.692 -25.174  0.00  0.00    +0.000 OA
ATOM      8  N3  UNL     1     -17.398  -5.579 -24.633  0.00  0.00    +0.000 N 
ATOM      9  H1  UNL     1     -18.554  -2.674 -24.325  0.00  0.00    +0.000 HD
ATOM     10  H4  UNL     1     -18.066  -7.373 -27.219  0.00  0.00    +0.000 HD
ATOM     11  H5  UNL     1     -16.880  -5.624 -23.770  0.00  0.00    +0.000 HD
ENDROOT
TORSDOF 0
ENDMDL
MODEL 3
REMARK VINA RESULT:    -3.851     29.421     30.289
REMARK INTER + INTRA:          -3.851
REMARK INTER:                  -3.851
REMARK INTRA:                   0.000
REMARK UNBOUND:                 0.000
REMARK  Name = /home/anacleto/Desktop/manuscript_Mpro/naturecomm/supplementary_file_S2/6-chemical-library/molecular_docking/3D_ligand_structure/16.pdb
REMARK  0 active torsions:
REMARK  status: ('A' for Active; 'I' for Inactive)
REMARK                            x       y       z     vdW  Elec       q    Type
REMARK                         _______ _______ _______ _____ _____    ______ ____
ROOT
ATOM      1  N1  UNL     1     -18.415   6.172 -39.964  0.00  0.00    +0.000 NA
ATOM      2  C1  UNL     1     -18.817   7.203 -39.312  0.00  0.00    +0.000 A 
ATOM      3  C2  UNL     1     -18.128   8.504 -39.257  0.00  0.00    +0.000 A 
ATOM      4  C3  UNL     1     -18.685   9.478 -38.530  0.00  0.00    +0.000 A 
ATOM      5  N2  UNL     1     -19.857   9.275 -37.856  0.00  0.00    +0.000 N 
ATOM      6  C4  UNL     1     -20.546   8.088 -37.869  0.00  0.00    +0.000 A 
ATOM      7  O1  UNL     1     -21.595   7.943 -37.252  0.00  0.00    +0.000 OA
ATOM      8  N3  UNL     1     -19.978   7.090 -38.612  0.00  0.00    +0.000 N 
ATOM      9  H1  UNL     1     -17.535   6.370 -40.452  0.00  0.00    +0.000 HD
ATOM     10  H4  UNL     1     -20.274  10.016 -37.306  0.00  0.00    +0.000 HD
ATOM     11  H5  UNL     1     -20.455   6.204 -38.645  0.00  0.00    +0.000 HD
ENDROOT
TORSDOF 0
ENDMDL
MODEL 4
REMARK VINA RESULT:    -3.730     19.709     20.211
REMARK INTER + INTRA:          -3.730
REMARK INTER:                  -3.730
REMARK INTRA:                   0.000
REMARK UNBOUND:                 0.000
REMARK  Name = /home/anacleto/Desktop/manuscript_Mpro/naturecomm/supplementary_file_S2/6-chemical-library/molecular_docking/3D_ligand_structure/16.pdb
REMARK  0 active torsions:
REMARK  status: ('A' for Active; 'I' for Inactive)
REMARK                            x       y       z     vdW  Elec       q    Type
REMARK                         _______ _______ _______ _____ _____    ______ ____
ROOT
ATOM      1  N1  UNL     1     -29.830  -5.578 -26.480  0.00  0.00    +0.000 NA
ATOM      2  C1  UNL     1     -28.642  -5.132 -26.672  0.00  0.00    +0.000 A 
ATOM      3  C2  UNL     1     -27.446  -5.522 -25.904  0.00  0.00    +0.000 A 
ATOM      4  C3  UNL     1     -26.279  -4.961 -26.235  0.00  0.00    +0.000 A 
ATOM      5  N2  UNL     1     -26.194  -4.051 -27.252  0.00  0.00    +0.000 N 
ATOM      6  C4  UNL     1     -27.269  -3.649 -28.003  0.00  0.00    +0.000 A 
ATOM      7  O1  UNL     1     -27.155  -2.830 -28.909  0.00  0.00    +0.000 OA
ATOM      8  N3  UNL     1     -28.465  -4.221 -27.666  0.00  0.00    +0.000 N 
ATOM      9  H1  UNL     1     -29.846  -6.254 -25.710  0.00  0.00    +0.000 HD
ATOM     10  H4  UNL     1     -25.307  -3.629 -27.498  0.00  0.00    +0.000 HD
ATOM     11  H5  UNL     1     -29.278  -3.950 -28.196  0.00  0.00    +0.000 HD
ENDROOT
TORSDOF 0
ENDMDL
MODEL 5
REMARK VINA RESULT:    -3.720     19.698     19.913
REMARK INTER + INTRA:          -3.720
REMARK INTER:                  -3.720
REMARK INTRA:                   0.000
REMARK UNBOUND:                 0.000
REMARK  Name = /home/anacleto/Desktop/manuscript_Mpro/naturecomm/supplementary_file_S2/6-chemical-library/molecular_docking/3D_ligand_structure/16.pdb
REMARK  0 active torsions:
REMARK  status: ('A' for Active; 'I' for Inactive)
REMARK                            x       y       z     vdW  Elec       q    Type
REMARK                         _______ _______ _______ _____ _____    ______ ____
ROOT
ATOM      1  N1  UNL     1     -27.906  -2.962 -28.535  0.00  0.00    +0.000 NA
ATOM      2  C1  UNL     1     -27.721  -3.849 -27.625  0.00  0.00    +0.000 A 
ATOM      3  C2  UNL     1     -26.452  -4.097 -26.916  0.00  0.00    +0.000 A 
ATOM      4  C3  UNL     1     -26.430  -5.062 -25.992  0.00  0.00    +0.000 A 
ATOM      5  N2  UNL     1     -27.547  -5.799 -25.711  0.00  0.00    +0.000 N 
ATOM      6  C4  UNL     1     -28.755  -5.616 -26.335  0.00  0.00    +0.000 A 
ATOM      7  O1  UNL     1     -29.736  -6.296 -26.057  0.00  0.00    +0.000 OA
ATOM      8  N3  UNL     1     -28.780  -4.629 -27.282  0.00  0.00    +0.000 N 
ATOM      9  H1  UNL     1     -27.044  -2.436 -28.712  0.00  0.00    +0.000 HD
ATOM     10  H4  UNL     1     -27.524  -6.529 -25.010  0.00  0.00    +0.000 HD
ATOM     11  H5  UNL     1     -29.651  -4.466 -27.762  0.00  0.00    +0.000 HD
ENDROOT
TORSDOF 0
ENDMDL
MODEL 6
REMARK VINA RESULT:    -3.668     29.624     30.487
REMARK INTER + INTRA:          -3.668
REMARK INTER:                  -3.668
REMARK INTRA:                   0.000
REMARK UNBOUND:                 0.000
REMARK  Name = /home/anacleto/Desktop/manuscript_Mpro/naturecomm/supplementary_file_S2/6-chemical-library/molecular_docking/3D_ligand_structure/16.pdb
REMARK  0 active torsions:
REMARK  status: ('A' for Active; 'I' for Inactive)
REMARK                            x       y       z     vdW  Elec       q    Type
REMARK                         _______ _______ _______ _____ _____    ______ ____
ROOT
ATOM      1  N1  UNL     1     -18.442   6.366 -39.743  0.00  0.00    +0.000 NA
ATOM      2  C1  UNL     1     -18.977   7.334 -39.091  0.00  0.00    +0.000 A 
ATOM      3  C2  UNL     1     -20.300   7.300 -38.441  0.00  0.00    +0.000 A 
ATOM      4  C3  UNL     1     -20.710   8.398 -37.799  0.00  0.00    +0.000 A 
ATOM      5  N2  UNL     1     -19.930   9.520 -37.746  0.00  0.00    +0.000 N 
ATOM      6  C4  UNL     1     -18.692   9.613 -38.329  0.00  0.00    +0.000 A 
ATOM      7  O1  UNL     1     -18.020  10.636 -38.261  0.00  0.00    +0.000 OA
ATOM      8  N3  UNL     1     -18.270   8.490 -38.987  0.00  0.00    +0.000 N 
ATOM      9  H1  UNL     1     -19.060   5.549 -39.757  0.00  0.00    +0.000 HD
ATOM     10  H4  UNL     1     -20.246  10.349 -37.258  0.00  0.00    +0.000 HD
ATOM     11  H5  UNL     1     -17.365   8.521 -39.429  0.00  0.00    +0.000 HD
ENDROOT
TORSDOF 0
ENDMDL
MODEL 7
REMARK VINA RESULT:    -3.619     19.843     20.415
REMARK INTER + INTRA:          -3.619
REMARK INTER:                  -3.619
REMARK INTRA:                   0.000
REMARK UNBOUND:                 0.000
REMARK  Name = /home/anacleto/Desktop/manuscript_Mpro/naturecomm/supplementary_file_S2/6-chemical-library/molecular_docking/3D_ligand_structure/16.pdb
REMARK  0 active torsions:
REMARK  status: ('A' for Active; 'I' for Inactive)
REMARK                            x       y       z     vdW  Elec       q    Type
REMARK                         _______ _______ _______ _____ _____    ______ ____
ROOT
ATOM      1  N1  UNL     1     -29.153  -5.136 -26.655  0.00  0.00    +0.000 NA
ATOM      2  C1  UNL     1     -28.056  -4.592 -27.041  0.00  0.00    +0.000 A 
ATOM      3  C2  UNL     1     -27.876  -3.813 -28.280  0.00  0.00    +0.000 A 
ATOM      4  C3  UNL     1     -26.663  -3.312 -28.533  0.00  0.00    +0.000 A 
ATOM      5  N2  UNL     1     -25.620  -3.514 -27.673  0.00  0.00    +0.000 N 
ATOM      6  C4  UNL     1     -25.724  -4.228 -26.506  0.00  0.00    +0.000 A 
ATOM      7  O1  UNL     1     -24.766  -4.389 -25.758  0.00  0.00    +0.000 OA
ATOM      8  N3  UNL     1     -26.965  -4.742 -26.244  0.00  0.00    +0.000 N 
ATOM      9  H1  UNL     1     -29.905  -4.959 -27.328  0.00  0.00    +0.000 HD
ATOM     10  H4  UNL     1     -24.703  -3.132 -27.871  0.00  0.00    +0.000 HD
ATOM     11  H5  UNL     1     -27.080  -5.273 -25.396  0.00  0.00    +0.000 HD
ENDROOT
TORSDOF 0
ENDMDL
MODEL 8
REMARK VINA RESULT:    -3.590     28.184     29.055
REMARK INTER + INTRA:          -3.590
REMARK INTER:                  -3.590
REMARK INTRA:                   0.000
REMARK UNBOUND:                 0.000
REMARK  Name = /home/anacleto/Desktop/manuscript_Mpro/naturecomm/supplementary_file_S2/6-chemical-library/molecular_docking/3D_ligand_structure/16.pdb
REMARK  0 active torsions:
REMARK  status: ('A' for Active; 'I' for Inactive)
REMARK                            x       y       z     vdW  Elec       q    Type
REMARK                         _______ _______ _______ _____ _____    ______ ____
ROOT
ATOM      1  N1  UNL     1     -21.912  10.139 -36.458  0.00  0.00    +0.000 NA
ATOM      2  C1  UNL     1     -21.354   9.203 -37.137  0.00  0.00    +0.000 A 
ATOM      3  C2  UNL     1     -21.963   7.899 -37.459  0.00  0.00    +0.000 A 
ATOM      4  C3  UNL     1     -21.243   7.033 -38.179  0.00  0.00    +0.000 A 
ATOM      5  N2  UNL     1     -19.981   7.343 -38.604  0.00  0.00    +0.000 N 
ATOM      6  C4  UNL     1     -19.361   8.538 -38.338  0.00  0.00    +0.000 A 
ATOM      7  O1  UNL     1     -18.228   8.782 -38.737  0.00  0.00    +0.000 OA
ATOM      8  N3  UNL     1     -20.096   9.426 -37.601  0.00  0.00    +0.000 N 
ATOM      9  H1  UNL     1     -22.853   9.863 -36.161  0.00  0.00    +0.000 HD
ATOM     10  H4  UNL     1     -19.441   6.683 -39.150  0.00  0.00    +0.000 HD
ATOM     11  H5  UNL     1     -19.673  10.315 -37.385  0.00  0.00    +0.000 HD
ENDROOT
TORSDOF 0
ENDMDL
MODEL 9
REMARK VINA RESULT:    -3.423     28.194     28.883
REMARK INTER + INTRA:          -3.423
REMARK INTER:                  -3.423
REMARK INTRA:                   0.000
REMARK UNBOUND:                 0.000
REMARK  Name = /home/anacleto/Desktop/manuscript_Mpro/naturecomm/supplementary_file_S2/6-chemical-library/molecular_docking/3D_ligand_structure/16.pdb
REMARK  0 active torsions:
REMARK  status: ('A' for Active; 'I' for Inactive)
REMARK                            x       y       z     vdW  Elec       q    Type
REMARK                         _______ _______ _______ _____ _____    ______ ____
ROOT
ATOM      1  N1  UNL     1     -21.685  10.482 -37.061  0.00  0.00    +0.000 NA
ATOM      2  C1  UNL     1     -21.132   9.441 -37.570  0.00  0.00    +0.000 A 
ATOM      3  C2  UNL     1     -19.830   9.414 -38.261  0.00  0.00    +0.000 A 
ATOM      4  C3  UNL     1     -19.396   8.242 -38.734  0.00  0.00    +0.000 A 
ATOM      5  N2  UNL     1     -20.134   7.101 -38.584  0.00  0.00    +0.000 N 
ATOM      6  C4  UNL     1     -21.351   7.061 -37.950  0.00  0.00    +0.000 A 
ATOM      7  O1  UNL     1     -21.986   6.019 -37.834  0.00  0.00    +0.000 OA
ATOM      8  N3  UNL     1     -21.798   8.260 -37.466  0.00  0.00    +0.000 N 
ATOM      9  H1  UNL     1     -21.098  11.311 -37.198  0.00  0.00    +0.000 HD
ATOM     10  H4  UNL     1     -19.801   6.216 -38.944  0.00  0.00    +0.000 HD
ATOM     11  H5  UNL     1     -22.688   8.270 -36.995  0.00  0.00    +0.000 HD
ENDROOT
TORSDOF 0
ENDMDL
