MODEL 1
REMARK VINA RESULT:    -3.245      0.000      0.000
REMARK INTER + INTRA:          -3.245
REMARK INTER:                  -3.245
REMARK INTRA:                   0.000
REMARK UNBOUND:                 0.000
REMARK  Name = /home/anacleto/Desktop/manuscript_Mpro/naturecomm/supplementary_file_S2/6-chemical-library/molecular_docking/3D_ligand_structure/52.pdb
REMARK  0 active torsions:
REMARK  status: ('A' for Active; 'I' for Inactive)
REMARK                            x       y       z     vdW  Elec       q    Type
REMARK                         _______ _______ _______ _____ _____    ______ ____
ROOT
ATOM      1  O1  UNL     1      22.664   5.628   9.588  0.00  0.00    +0.000 OA
ATOM      2  C1  UNL     1      21.569   6.072   9.244  0.00  0.00    +0.000 C 
ATOM      3  C2  UNL     1      20.503   5.099   8.735  0.00  0.00    +0.000 C 
ATOM      4  C3  UNL     1      19.199   5.731   8.365  0.00  0.00    +0.000 C 
ATOM      5  C4  UNL     1      18.997   7.046   8.462  0.00  0.00    +0.000 C 
ATOM      6  C5  UNL     1      20.129   7.848   8.951  0.00  0.00    +0.000 C 
ATOM      7  N1  UNL     1      21.291   7.421   9.305  0.00  0.00    +0.000 NA
ENDROOT
TORSDOF 0
ENDMDL
MODEL 2
REMARK VINA RESULT:    -3.169     16.439     17.050
REMARK INTER + INTRA:          -3.169
REMARK INTER:                  -3.169
REMARK INTRA:                   0.000
REMARK UNBOUND:                 0.000
REMARK  Name = /home/anacleto/Desktop/manuscript_Mpro/naturecomm/supplementary_file_S2/6-chemical-library/molecular_docking/3D_ligand_structure/52.pdb
REMARK  0 active torsions:
REMARK  status: ('A' for Active; 'I' for Inactive)
REMARK                            x       y       z     vdW  Elec       q    Type
REMARK                         _______ _______ _______ _____ _____    ______ ____
ROOT
ATOM      1  O1  UNL     1      12.754  10.393  -7.324  0.00  0.00    +0.000 OA
ATOM      2  C1  UNL     1      13.620  10.788  -6.544  0.00  0.00    +0.000 C 
ATOM      3  C2  UNL     1      14.830  11.541  -7.102  0.00  0.00    +0.000 C 
ATOM      4  C3  UNL     1      15.813  12.002  -6.074  0.00  0.00    +0.000 C 
ATOM      5  C4  UNL     1      15.645  11.756  -4.773  0.00  0.00    +0.000 C 
ATOM      6  C5  UNL     1      14.438  11.004  -4.400  0.00  0.00    +0.000 C 
ATOM      7  N1  UNL     1      13.520  10.562  -5.188  0.00  0.00    +0.000 NA
ENDROOT
TORSDOF 0
ENDMDL
MODEL 3
REMARK VINA RESULT:    -3.142     15.829     16.403
REMARK INTER + INTRA:          -3.142
REMARK INTER:                  -3.142
REMARK INTRA:                   0.000
REMARK UNBOUND:                 0.000
REMARK  Name = /home/anacleto/Desktop/manuscript_Mpro/naturecomm/supplementary_file_S2/6-chemical-library/molecular_docking/3D_ligand_structure/52.pdb
REMARK  0 active torsions:
REMARK  status: ('A' for Active; 'I' for Inactive)
REMARK                            x       y       z     vdW  Elec       q    Type
REMARK                         _______ _______ _______ _____ _____    ______ ____
ROOT
ATOM      1  O1  UNL     1      15.229  10.866  -3.328  0.00  0.00    +0.000 OA
ATOM      2  C1  UNL     1      14.966  10.979  -4.526  0.00  0.00    +0.000 C 
ATOM      3  C2  UNL     1      13.552  10.648  -5.007  0.00  0.00    +0.000 C 
ATOM      4  C3  UNL     1      13.324  10.842  -6.472  0.00  0.00    +0.000 C 
ATOM      5  C4  UNL     1      14.293  11.258  -7.290  0.00  0.00    +0.000 C 
ATOM      6  C5  UNL     1      15.604  11.516  -6.675  0.00  0.00    +0.000 C 
ATOM      7  N1  UNL     1      15.919  11.393  -5.432  0.00  0.00    +0.000 NA
ENDROOT
TORSDOF 0
ENDMDL
MODEL 4
REMARK VINA RESULT:    -3.131     15.934     16.512
REMARK INTER + INTRA:          -3.131
REMARK INTER:                  -3.131
REMARK INTRA:                   0.000
REMARK UNBOUND:                 0.000
REMARK  Name = /home/anacleto/Desktop/manuscript_Mpro/naturecomm/supplementary_file_S2/6-chemical-library/molecular_docking/3D_ligand_structure/52.pdb
REMARK  0 active torsions:
REMARK  status: ('A' for Active; 'I' for Inactive)
REMARK                            x       y       z     vdW  Elec       q    Type
REMARK                         _______ _______ _______ _____ _____    ______ ____
ROOT
ATOM      1  O1  UNL     1      16.707  11.635  -4.501  0.00  0.00    +0.000 OA
ATOM      2  C1  UNL     1      15.666  11.380  -5.106  0.00  0.00    +0.000 C 
ATOM      3  C2  UNL     1      15.614  11.613  -6.618  0.00  0.00    +0.000 C 
ATOM      4  C3  UNL     1      14.316  11.250  -7.266  0.00  0.00    +0.000 C 
ATOM      5  C4  UNL     1      13.284  10.774  -6.567  0.00  0.00    +0.000 C 
ATOM      6  C5  UNL     1      13.488  10.626  -5.118  0.00  0.00    +0.000 C 
ATOM      7  N1  UNL     1      14.555  10.896  -4.449  0.00  0.00    +0.000 NA
ENDROOT
TORSDOF 0
ENDMDL
MODEL 5
REMARK VINA RESULT:    -3.130      1.321      1.781
REMARK INTER + INTRA:          -3.130
REMARK INTER:                  -3.130
REMARK INTRA:                   0.000
REMARK UNBOUND:                 0.000
REMARK  Name = /home/anacleto/Desktop/manuscript_Mpro/naturecomm/supplementary_file_S2/6-chemical-library/molecular_docking/3D_ligand_structure/52.pdb
REMARK  0 active torsions:
REMARK  status: ('A' for Active; 'I' for Inactive)
REMARK                            x       y       z     vdW  Elec       q    Type
REMARK                         _______ _______ _______ _____ _____    ______ ____
ROOT
ATOM      1  O1  UNL     1      20.445   3.833   9.161  0.00  0.00    +0.000 OA
ATOM      2  C1  UNL     1      20.388   5.059   9.066  0.00  0.00    +0.000 C 
ATOM      3  C2  UNL     1      19.118   5.699   8.501  0.00  0.00    +0.000 C 
ATOM      4  C3  UNL     1      19.136   7.193   8.449  0.00  0.00    +0.000 C 
ATOM      5  C4  UNL     1      20.191   7.903   8.853  0.00  0.00    +0.000 C 
ATOM      6  C5  UNL     1      21.342   7.138   9.353  0.00  0.00    +0.000 C 
ATOM      7  N1  UNL     1      21.443   5.858   9.453  0.00  0.00    +0.000 NA
ENDROOT
TORSDOF 0
ENDMDL
MODEL 6
REMARK VINA RESULT:    -3.116     15.913     16.503
REMARK INTER + INTRA:          -3.116
REMARK INTER:                  -3.116
REMARK INTRA:                   0.000
REMARK UNBOUND:                 0.000
REMARK  Name = /home/anacleto/Desktop/manuscript_Mpro/naturecomm/supplementary_file_S2/6-chemical-library/molecular_docking/3D_ligand_structure/52.pdb
REMARK  0 active torsions:
REMARK  status: ('A' for Active; 'I' for Inactive)
REMARK                            x       y       z     vdW  Elec       q    Type
REMARK                         _______ _______ _______ _____ _____    ______ ____
ROOT
ATOM      1  O1  UNL     1      15.011  10.835  -3.309  0.00  0.00    +0.000 OA
ATOM      2  C1  UNL     1      14.770  10.959  -4.510  0.00  0.00    +0.000 C 
ATOM      3  C2  UNL     1      15.865  11.502  -5.431  0.00  0.00    +0.000 C 
ATOM      4  C3  UNL     1      15.485  11.592  -6.875  0.00  0.00    +0.000 C 
ATOM      5  C4  UNL     1      14.276  11.237  -7.312  0.00  0.00    +0.000 C 
ATOM      6  C5  UNL     1      13.329  10.752  -6.296  0.00  0.00    +0.000 C 
ATOM      7  N1  UNL     1      13.540  10.623  -5.032  0.00  0.00    +0.000 NA
ENDROOT
TORSDOF 0
ENDMDL
MODEL 7
REMARK VINA RESULT:    -2.869      2.360      2.480
REMARK INTER + INTRA:          -2.869
REMARK INTER:                  -2.869
REMARK INTRA:                   0.000
REMARK UNBOUND:                 0.000
REMARK  Name = /home/anacleto/Desktop/manuscript_Mpro/naturecomm/supplementary_file_S2/6-chemical-library/molecular_docking/3D_ligand_structure/52.pdb
REMARK  0 active torsions:
REMARK  status: ('A' for Active; 'I' for Inactive)
REMARK                            x       y       z     vdW  Elec       q    Type
REMARK                         _______ _______ _______ _____ _____    ______ ____
ROOT
ATOM      1  O1  UNL     1      18.566   4.230  11.031  0.00  0.00    +0.000 OA
ATOM      2  C1  UNL     1      18.868   5.179  10.307  0.00  0.00    +0.000 C 
ATOM      3  C2  UNL     1      18.874   4.980   8.790  0.00  0.00    +0.000 C 
ATOM      4  C3  UNL     1      19.227   6.197   7.997  0.00  0.00    +0.000 C 
ATOM      5  C4  UNL     1      19.527   7.359   8.579  0.00  0.00    +0.000 C 
ATOM      6  C5  UNL     1      19.495   7.382  10.049  0.00  0.00    +0.000 C 
ATOM      7  N1  UNL     1      19.200   6.407  10.838  0.00  0.00    +0.000 NA
ENDROOT
TORSDOF 0
ENDMDL
MODEL 8
REMARK VINA RESULT:    -2.853     16.626     17.238
REMARK INTER + INTRA:          -2.853
REMARK INTER:                  -2.853
REMARK INTRA:                   0.000
REMARK UNBOUND:                 0.000
REMARK  Name = /home/anacleto/Desktop/manuscript_Mpro/naturecomm/supplementary_file_S2/6-chemical-library/molecular_docking/3D_ligand_structure/52.pdb
REMARK  0 active torsions:
REMARK  status: ('A' for Active; 'I' for Inactive)
REMARK                            x       y       z     vdW  Elec       q    Type
REMARK                         _______ _______ _______ _____ _____    ______ ____
ROOT
ATOM      1  O1  UNL     1      15.475  13.091  -7.486  0.00  0.00    +0.000 OA
ATOM      2  C1  UNL     1      14.905  12.303  -6.730  0.00  0.00    +0.000 C 
ATOM      3  C2  UNL     1      15.221  12.353  -5.234  0.00  0.00    +0.000 C 
ATOM      4  C3  UNL     1      14.460  11.375  -4.397  0.00  0.00    +0.000 C 
ATOM      5  C4  UNL     1      13.586  10.518  -4.928  0.00  0.00    +0.000 C 
ATOM      6  C5  UNL     1      13.409  10.584  -6.386  0.00  0.00    +0.000 C 
ATOM      7  N1  UNL     1      13.998  11.382  -7.208  0.00  0.00    +0.000 NA
ENDROOT
TORSDOF 0
ENDMDL
MODEL 9
REMARK VINA RESULT:    -2.592      6.827      7.559
REMARK INTER + INTRA:          -2.592
REMARK INTER:                  -2.592
REMARK INTRA:                   0.000
REMARK UNBOUND:                 0.000
REMARK  Name = /home/anacleto/Desktop/manuscript_Mpro/naturecomm/supplementary_file_S2/6-chemical-library/molecular_docking/3D_ligand_structure/52.pdb
REMARK  0 active torsions:
REMARK  status: ('A' for Active; 'I' for Inactive)
REMARK                            x       y       z     vdW  Elec       q    Type
REMARK                         _______ _______ _______ _____ _____    ______ ____
ROOT
ATOM      1  O1  UNL     1      13.474   2.184  10.755  0.00  0.00    +0.000 OA
ATOM      2  C1  UNL     1      14.300   2.052   9.851  0.00  0.00    +0.000 C 
ATOM      3  C2  UNL     1      14.058   0.986   8.780  0.00  0.00    +0.000 C 
ATOM      4  C3  UNL     1      15.102   0.920   7.712  0.00  0.00    +0.000 C 
ATOM      5  C4  UNL     1      16.167   1.723   7.712  0.00  0.00    +0.000 C 
ATOM      6  C5  UNL     1      16.264   2.682   8.823  0.00  0.00    +0.000 C 
ATOM      7  N1  UNL     1      15.430   2.839   9.792  0.00  0.00    +0.000 NA
ENDROOT
TORSDOF 0
ENDMDL
