MODEL 1
REMARK VINA RESULT:    -4.830      0.000      0.000
REMARK INTER + INTRA:          -5.884
REMARK INTER:                  -5.639
REMARK INTRA:                  -0.245
REMARK UNBOUND:                -0.207
REMARK  Name = /home/anacleto/Desktop/manuscript_Mpro/naturecomm/supplementary_file_S2/6-chemical-library/molecular_docking/3D_ligand_structure/687.pdb
REMARK  3 active torsions:
REMARK  status: ('A' for Active; 'I' for Inactive)
REMARK    1  A    between atoms: C3_5  and  C4_6
REMARK    2  A    between atoms: N2_8  and  C5_9
REMARK    3  A    between atoms: C5_9  and  C6_10
REMARK                            x       y       z     vdW  Elec       q    Type
REMARK                         _______ _______ _______ _____ _____    ______ ____
ROOT
ATOM      1  C4  UNL     1     -16.003  10.507 -39.494  0.00  0.00    +0.000 C 
ATOM      2  O2  UNL     1     -16.074  11.731 -39.468  0.00  0.00    +0.000 OA
ATOM      3  N2  UNL     1     -16.996   9.672 -39.039  0.00  0.00    +0.000 N 
ATOM      4  H3  UNL     1     -16.874   8.681 -39.233  0.00  0.00    +0.000 HD
ENDROOT
BRANCH   1   9
ATOM      5  N1  UNL     1     -13.597   9.788 -39.448  0.00  0.00    +0.000 NA
ATOM      6  C1  UNL     1     -12.894   9.018 -40.249  0.00  0.00    +0.000 A 
ATOM      7  O1  UNL     1     -13.580   8.502 -41.306  0.00  0.00    +0.000 OA
ATOM      8  C2  UNL     1     -14.840   8.997 -41.155  0.00  0.00    +0.000 A 
ATOM      9  C3  UNL     1     -14.859   9.785 -40.028  0.00  0.00    +0.000 A 
ENDBRANCH   1   9
BRANCH   3  10
ATOM     10  C5  UNL     1     -18.275  10.182 -38.623  0.00  0.00    +0.000 C 
BRANCH  10  11
ATOM     11  C6  UNL     1     -19.228   9.035 -38.438  0.00  0.00    +0.000 A 
ATOM     12  C7  UNL     1     -20.428   9.255 -37.642  0.00  0.00    +0.000 A 
ATOM     13  C8  UNL     1     -21.321   8.274 -37.450  0.00  0.00    +0.000 A 
ATOM     14  C9  UNL     1     -21.091   6.940 -38.058  0.00  0.00    +0.000 A 
ATOM     15  O3  UNL     1     -21.887   6.022 -37.901  0.00  0.00    +0.000 OA
ATOM     16  N3  UNL     1     -19.941   6.814 -38.799  0.00  0.00    +0.000 N 
ATOM     17  C10 UNL     1     -19.034   7.826 -38.991  0.00  0.00    +0.000 A 
ATOM     18  H8  UNL     1     -19.789   5.904 -39.217  0.00  0.00    +0.000 HD
ENDBRANCH  10  11
ENDBRANCH   3  10
TORSDOF 3
ENDMDL
MODEL 2
REMARK VINA RESULT:    -4.801      5.499      8.121
REMARK INTER + INTRA:          -5.849
REMARK INTER:                  -5.530
REMARK INTRA:                  -0.320
REMARK UNBOUND:                -0.207
REMARK  Name = /home/anacleto/Desktop/manuscript_Mpro/naturecomm/supplementary_file_S2/6-chemical-library/molecular_docking/3D_ligand_structure/687.pdb
REMARK  3 active torsions:
REMARK  status: ('A' for Active; 'I' for Inactive)
REMARK    1  A    between atoms: C3_5  and  C4_6
REMARK    2  A    between atoms: N2_8  and  C5_9
REMARK    3  A    between atoms: C5_9  and  C6_10
REMARK                            x       y       z     vdW  Elec       q    Type
REMARK                         _______ _______ _______ _____ _____    ______ ____
ROOT
ATOM      1  C4  UNL     1     -24.402   8.278 -38.224  0.00  0.00    +0.000 C 
ATOM      2  O2  UNL     1     -25.480   8.767 -37.904  0.00  0.00    +0.000 OA
ATOM      3  N2  UNL     1     -24.268   7.208 -39.076  0.00  0.00    +0.000 N 
ATOM      4  H3  UNL     1     -23.320   6.979 -39.364  0.00  0.00    +0.000 HD
ENDROOT
BRANCH   1   9
ATOM      5  N1  UNL     1     -21.894   8.228 -38.078  0.00  0.00    +0.000 NA
ATOM      6  C1  UNL     1     -21.036   8.994 -37.443  0.00  0.00    +0.000 A 
ATOM      7  O1  UNL     1     -21.586  10.011 -36.724  0.00  0.00    +0.000 OA
ATOM      8  C2  UNL     1     -22.926   9.871 -36.928  0.00  0.00    +0.000 A 
ATOM      9  C3  UNL     1     -23.124   8.785 -37.749  0.00  0.00    +0.000 A 
ENDBRANCH   1   9
BRANCH   3  10
ATOM     10  C5  UNL     1     -25.397   6.663 -39.782  0.00  0.00    +0.000 C 
BRANCH  10  11
ATOM     11  C6  UNL     1     -25.800   5.365 -39.142  0.00  0.00    +0.000 A 
ATOM     12  C7  UNL     1     -27.216   5.027 -39.099  0.00  0.00    +0.000 A 
ATOM     13  C8  UNL     1     -27.637   3.877 -38.552  0.00  0.00    +0.000 A 
ATOM     14  C9  UNL     1     -26.650   2.928 -37.982  0.00  0.00    +0.000 A 
ATOM     15  O3  UNL     1     -27.001   1.870 -37.474  0.00  0.00    +0.000 OA
ATOM     16  N3  UNL     1     -25.334   3.315 -38.068  0.00  0.00    +0.000 N 
ATOM     17  C10 UNL     1     -24.914   4.494 -38.632  0.00  0.00    +0.000 A 
ATOM     18  H8  UNL     1     -24.661   2.664 -37.682  0.00  0.00    +0.000 HD
ENDBRANCH  10  11
ENDBRANCH   3  10
TORSDOF 3
ENDMDL
MODEL 3
REMARK VINA RESULT:    -4.782     18.106     19.996
REMARK INTER + INTRA:          -5.827
REMARK INTER:                  -5.486
REMARK INTRA:                  -0.341
REMARK UNBOUND:                -0.207
REMARK  Name = /home/anacleto/Desktop/manuscript_Mpro/naturecomm/supplementary_file_S2/6-chemical-library/molecular_docking/3D_ligand_structure/687.pdb
REMARK  3 active torsions:
REMARK  status: ('A' for Active; 'I' for Inactive)
REMARK    1  A    between atoms: C3_5  and  C4_6
REMARK    2  A    between atoms: N2_8  and  C5_9
REMARK    3  A    between atoms: C5_9  and  C6_10
REMARK                            x       y       z     vdW  Elec       q    Type
REMARK                         _______ _______ _______ _____ _____    ______ ____
ROOT
ATOM      1  C4  UNL     1     -24.407  -4.234 -28.633  0.00  0.00    +0.000 C 
ATOM      2  O2  UNL     1     -24.799  -3.144 -29.033  0.00  0.00    +0.000 OA
ATOM      3  N2  UNL     1     -24.612  -4.701 -27.356  0.00  0.00    +0.000 N 
ATOM      4  H3  UNL     1     -24.353  -5.669 -27.185  0.00  0.00    +0.000 HD
ENDROOT
BRANCH   1   9
ATOM      5  N1  UNL     1     -22.302  -5.221 -29.584  0.00  0.00    +0.000 NA
ATOM      6  C1  UNL     1     -22.097  -6.209 -30.425  0.00  0.00    +0.000 A 
ATOM      7  O1  UNL     1     -23.221  -6.829 -30.878  0.00  0.00    +0.000 OA
ATOM      8  C2  UNL     1     -24.236  -6.163 -30.259  0.00  0.00    +0.000 A 
ATOM      9  C3  UNL     1     -23.685  -5.179 -29.470  0.00  0.00    +0.000 A 
ENDBRANCH   1   9
BRANCH   3  10
ATOM     10  C5  UNL     1     -25.443  -3.992 -26.421  0.00  0.00    +0.000 C 
BRANCH  10  11
ATOM     11  C6  UNL     1     -26.791  -4.653 -26.358  0.00  0.00    +0.000 A 
ATOM     12  C7  UNL     1     -26.967  -5.779 -25.452  0.00  0.00    +0.000 A 
ATOM     13  C8  UNL     1     -28.149  -6.403 -25.342  0.00  0.00    +0.000 A 
ATOM     14  C9  UNL     1     -29.302  -5.941 -26.153  0.00  0.00    +0.000 A 
ATOM     15  O3  UNL     1     -30.395  -6.489 -26.078  0.00  0.00    +0.000 OA
ATOM     16  N3  UNL     1     -29.059  -4.869 -26.978  0.00  0.00    +0.000 N 
ATOM     17  C10 UNL     1     -27.844  -4.238 -27.080  0.00  0.00    +0.000 A 
ATOM     18  H8  UNL     1     -29.849  -4.553 -27.528  0.00  0.00    +0.000 HD
ENDBRANCH  10  11
ENDBRANCH   3  10
TORSDOF 3
ENDMDL
MODEL 4
REMARK VINA RESULT:    -4.741      2.176      2.522
REMARK INTER + INTRA:          -5.779
REMARK INTER:                  -5.508
REMARK INTRA:                  -0.271
REMARK UNBOUND:                -0.207
REMARK  Name = /home/anacleto/Desktop/manuscript_Mpro/naturecomm/supplementary_file_S2/6-chemical-library/molecular_docking/3D_ligand_structure/687.pdb
REMARK  3 active torsions:
REMARK  status: ('A' for Active; 'I' for Inactive)
REMARK    1  A    between atoms: C3_5  and  C4_6
REMARK    2  A    between atoms: N2_8  and  C5_9
REMARK    3  A    between atoms: C5_9  and  C6_10
REMARK                            x       y       z     vdW  Elec       q    Type
REMARK                         _______ _______ _______ _____ _____    ______ ____
ROOT
ATOM      1  C4  UNL     1     -16.856   9.218 -40.319  0.00  0.00    +0.000 C 
ATOM      2  O2  UNL     1     -17.340   8.968 -41.417  0.00  0.00    +0.000 OA
ATOM      3  N2  UNL     1     -17.388   8.783 -39.129  0.00  0.00    +0.000 N 
ATOM      4  H3  UNL     1     -16.825   8.947 -38.298  0.00  0.00    +0.000 HD
ENDROOT
BRANCH   1   9
ATOM      5  N1  UNL     1     -15.557  11.368 -40.367  0.00  0.00    +0.000 NA
ATOM      6  C1  UNL     1     -14.303  11.643 -40.085  0.00  0.00    +0.000 A 
ATOM      7  O1  UNL     1     -13.550  10.580 -39.690  0.00  0.00    +0.000 OA
ATOM      8  C2  UNL     1     -14.417   9.530 -39.728  0.00  0.00    +0.000 A 
ATOM      9  C3  UNL     1     -15.642  10.000 -40.142  0.00  0.00    +0.000 A 
ENDBRANCH   1   9
BRANCH   3  10
ATOM     10  C5  UNL     1     -18.493   7.862 -39.092  0.00  0.00    +0.000 C 
BRANCH  10  11
ATOM     11  C6  UNL     1     -19.664   8.522 -38.422  0.00  0.00    +0.000 A 
ATOM     12  C7  UNL     1     -20.786   7.689 -38.014  0.00  0.00    +0.000 A 
ATOM     13  C8  UNL     1     -21.855   8.218 -37.401  0.00  0.00    +0.000 A 
ATOM     14  C9  UNL     1     -21.901   9.676 -37.129  0.00  0.00    +0.000 A 
ATOM     15  O3  UNL     1     -22.863  10.191 -36.573  0.00  0.00    +0.000 OA
ATOM     16  N3  UNL     1     -20.803  10.392 -37.538  0.00  0.00    +0.000 N 
ATOM     17  C10 UNL     1     -19.713   9.839 -38.163  0.00  0.00    +0.000 A 
ATOM     18  H8  UNL     1     -20.834  11.386 -37.348  0.00  0.00    +0.000 HD
ENDBRANCH  10  11
ENDBRANCH   3  10
TORSDOF 3
ENDMDL
MODEL 5
REMARK VINA RESULT:    -4.716      5.667      7.784
REMARK INTER + INTRA:          -5.750
REMARK INTER:                  -5.462
REMARK INTRA:                  -0.288
REMARK UNBOUND:                -0.207
REMARK  Name = /home/anacleto/Desktop/manuscript_Mpro/naturecomm/supplementary_file_S2/6-chemical-library/molecular_docking/3D_ligand_structure/687.pdb
REMARK  3 active torsions:
REMARK  status: ('A' for Active; 'I' for Inactive)
REMARK    1  A    between atoms: C3_5  and  C4_6
REMARK    2  A    between atoms: N2_8  and  C5_9
REMARK    3  A    between atoms: C5_9  and  C6_10
REMARK                            x       y       z     vdW  Elec       q    Type
REMARK                         _______ _______ _______ _____ _____    ______ ____
ROOT
ATOM      1  C4  UNL     1     -22.266   7.211 -39.311  0.00  0.00    +0.000 C 
ATOM      2  O2  UNL     1     -21.268   6.808 -39.898  0.00  0.00    +0.000 OA
ATOM      3  N2  UNL     1     -23.542   6.776 -39.578  0.00  0.00    +0.000 N 
ATOM      4  H3  UNL     1     -24.267   7.088 -38.938  0.00  0.00    +0.000 HD
ENDROOT
BRANCH   1   9
ATOM      5  N1  UNL     1     -23.214   9.135 -38.003  0.00  0.00    +0.000 NA
ATOM      6  C1  UNL     1     -22.761   9.798 -36.963  0.00  0.00    +0.000 A 
ATOM      7  O1  UNL     1     -21.555   9.381 -36.488  0.00  0.00    +0.000 OA
ATOM      8  C2  UNL     1     -21.215   8.351 -37.313  0.00  0.00    +0.000 A 
ATOM      9  C3  UNL     1     -22.219   8.196 -38.241  0.00  0.00    +0.000 A 
ENDBRANCH   1   9
BRANCH   3  10
ATOM     10  C5  UNL     1     -23.790   5.687 -40.485  0.00  0.00    +0.000 C 
BRANCH  10  11
ATOM     11  C6  UNL     1     -24.691   4.686 -39.821  0.00  0.00    +0.000 A 
ATOM     12  C7  UNL     1     -25.209   3.584 -40.620  0.00  0.00    +0.000 A 
ATOM     13  C8  UNL     1     -26.009   2.652 -40.081  0.00  0.00    +0.000 A 
ATOM     14  C9  UNL     1     -26.374   2.738 -38.646  0.00  0.00    +0.000 A 
ATOM     15  O3  UNL     1     -27.104   1.904 -38.123  0.00  0.00    +0.000 OA
ATOM     16  N3  UNL     1     -25.841   3.801 -37.958  0.00  0.00    +0.000 N 
ATOM     17  C10 UNL     1     -25.022   4.748 -38.520  0.00  0.00    +0.000 A 
ATOM     18  H8  UNL     1     -26.089   3.855 -36.978  0.00  0.00    +0.000 HD
ENDBRANCH  10  11
ENDBRANCH   3  10
TORSDOF 3
ENDMDL
MODEL 6
REMARK VINA RESULT:    -4.707     17.549     19.415
REMARK INTER + INTRA:          -5.739
REMARK INTER:                  -5.371
REMARK INTRA:                  -0.368
REMARK UNBOUND:                -0.207
REMARK  Name = /home/anacleto/Desktop/manuscript_Mpro/naturecomm/supplementary_file_S2/6-chemical-library/molecular_docking/3D_ligand_structure/687.pdb
REMARK  3 active torsions:
REMARK  status: ('A' for Active; 'I' for Inactive)
REMARK    1  A    between atoms: C3_5  and  C4_6
REMARK    2  A    between atoms: N2_8  and  C5_9
REMARK    3  A    between atoms: C5_9  and  C6_10
REMARK                            x       y       z     vdW  Elec       q    Type
REMARK                         _______ _______ _______ _____ _____    ______ ____
ROOT
ATOM      1  C4  UNL     1     -24.480  -3.980 -28.847  0.00  0.00    +0.000 C 
ATOM      2  O2  UNL     1     -24.096  -2.927 -29.343  0.00  0.00    +0.000 OA
ATOM      3  N2  UNL     1     -23.857  -5.190 -29.041  0.00  0.00    +0.000 N 
ATOM      4  H3  UNL     1     -24.194  -5.964 -28.474  0.00  0.00    +0.000 HD
ENDROOT
BRANCH   1   9
ATOM      5  N1  UNL     1     -26.802  -3.333 -28.141  0.00  0.00    +0.000 NA
ATOM      6  C1  UNL     1     -27.564  -3.737 -27.149  0.00  0.00    +0.000 A 
ATOM      7  O1  UNL     1     -27.011  -4.685 -26.343  0.00  0.00    +0.000 OA
ATOM      8  C2  UNL     1     -25.778  -4.897 -26.881  0.00  0.00    +0.000 A 
ATOM      9  C3  UNL     1     -25.640  -4.076 -27.975  0.00  0.00    +0.000 A 
ENDBRANCH   1   9
BRANCH   3  10
ATOM     10  C5  UNL     1     -22.602  -5.287 -29.736  0.00  0.00    +0.000 C 
BRANCH  10  11
ATOM     11  C6  UNL     1     -21.479  -5.223 -28.740  0.00  0.00    +0.000 A 
ATOM     12  C7  UNL     1     -20.691  -4.001 -28.662  0.00  0.00    +0.000 A 
ATOM     13  C8  UNL     1     -19.684  -3.880 -27.785  0.00  0.00    +0.000 A 
ATOM     14  C9  UNL     1     -19.364  -5.005 -26.873  0.00  0.00    +0.000 A 
ATOM     15  O3  UNL     1     -18.450  -4.928 -26.061  0.00  0.00    +0.000 OA
ATOM     16  N3  UNL     1     -20.156  -6.120 -27.002  0.00  0.00    +0.000 N 
ATOM     17  C10 UNL     1     -21.186  -6.232 -27.902  0.00  0.00    +0.000 A 
ATOM     18  H8  UNL     1     -19.939  -6.885 -26.375  0.00  0.00    +0.000 HD
ENDBRANCH  10  11
ENDBRANCH   3  10
TORSDOF 3
ENDMDL
MODEL 7
REMARK VINA RESULT:    -4.703     17.613     19.356
REMARK INTER + INTRA:          -5.735
REMARK INTER:                  -5.470
REMARK INTRA:                  -0.265
REMARK UNBOUND:                -0.207
REMARK  Name = /home/anacleto/Desktop/manuscript_Mpro/naturecomm/supplementary_file_S2/6-chemical-library/molecular_docking/3D_ligand_structure/687.pdb
REMARK  3 active torsions:
REMARK  status: ('A' for Active; 'I' for Inactive)
REMARK    1  A    between atoms: C3_5  and  C4_6
REMARK    2  A    between atoms: N2_8  and  C5_9
REMARK    3  A    between atoms: C5_9  and  C6_10
REMARK                            x       y       z     vdW  Elec       q    Type
REMARK                         _______ _______ _______ _____ _____    ______ ____
ROOT
ATOM      1  C4  UNL     1     -23.389  -4.290 -28.935  0.00  0.00    +0.000 C 
ATOM      2  O2  UNL     1     -23.613  -4.800 -30.027  0.00  0.00    +0.000 OA
ATOM      3  N2  UNL     1     -24.318  -3.577 -28.217  0.00  0.00    +0.000 N 
ATOM      4  H3  UNL     1     -24.051  -3.316 -27.271  0.00  0.00    +0.000 HD
ENDROOT
BRANCH   1   9
ATOM      5  N1  UNL     1     -20.986  -3.643 -28.594  0.00  0.00    +0.000 NA
ATOM      6  C1  UNL     1     -20.080  -4.051 -27.733  0.00  0.00    +0.000 A 
ATOM      7  O1  UNL     1     -20.501  -5.001 -26.853  0.00  0.00    +0.000 OA
ATOM      8  C2  UNL     1     -21.803  -5.211 -27.194  0.00  0.00    +0.000 A 
ATOM      9  C3  UNL     1     -22.107  -4.391 -28.256  0.00  0.00    +0.000 A 
ENDBRANCH   1   9
BRANCH   3  10
ATOM     10  C5  UNL     1     -25.693  -3.499 -28.635  0.00  0.00    +0.000 C 
BRANCH  10  11
ATOM     11  C6  UNL     1     -26.557  -4.203 -27.628  0.00  0.00    +0.000 A 
ATOM     12  C7  UNL     1     -25.910  -5.046 -26.632  0.00  0.00    +0.000 A 
ATOM     13  C8  UNL     1     -26.626  -5.692 -25.700  0.00  0.00    +0.000 A 
ATOM     14  C9  UNL     1     -28.103  -5.547 -25.675  0.00  0.00    +0.000 A 
ATOM     15  O3  UNL     1     -28.787  -6.123 -24.839  0.00  0.00    +0.000 OA
ATOM     16  N3  UNL     1     -28.636  -4.729 -26.642  0.00  0.00    +0.000 N 
ATOM     17  C10 UNL     1     -27.893  -4.072 -27.590  0.00  0.00    +0.000 A 
ATOM     18  H8  UNL     1     -29.644  -4.628 -26.621  0.00  0.00    +0.000 HD
ENDBRANCH  10  11
ENDBRANCH   3  10
TORSDOF 3
ENDMDL
MODEL 8
REMARK VINA RESULT:    -4.656     18.098     19.953
REMARK INTER + INTRA:          -5.679
REMARK INTER:                  -5.341
REMARK INTRA:                  -0.338
REMARK UNBOUND:                -0.207
REMARK  Name = /home/anacleto/Desktop/manuscript_Mpro/naturecomm/supplementary_file_S2/6-chemical-library/molecular_docking/3D_ligand_structure/687.pdb
REMARK  3 active torsions:
REMARK  status: ('A' for Active; 'I' for Inactive)
REMARK    1  A    between atoms: C3_5  and  C4_6
REMARK    2  A    between atoms: N2_8  and  C5_9
REMARK    3  A    between atoms: C5_9  and  C6_10
REMARK                            x       y       z     vdW  Elec       q    Type
REMARK                         _______ _______ _______ _____ _____    ______ ____
ROOT
ATOM      1  C4  UNL     1     -22.459  -4.892 -27.681  0.00  0.00    +0.000 C 
ATOM      2  O2  UNL     1     -22.434  -5.896 -28.384  0.00  0.00    +0.000 OA
ATOM      3  N2  UNL     1     -21.369  -4.084 -27.458  0.00  0.00    +0.000 N 
ATOM      4  H3  UNL     1     -21.548  -3.214 -26.963  0.00  0.00    +0.000 HD
ENDROOT
BRANCH   1   9
ATOM      5  N1  UNL     1     -23.699  -4.041 -25.669  0.00  0.00    +0.000 NA
ATOM      6  C1  UNL     1     -24.954  -3.694 -25.492  0.00  0.00    +0.000 A 
ATOM      7  O1  UNL     1     -25.748  -3.807 -26.593  0.00  0.00    +0.000 OA
ATOM      8  C2  UNL     1     -24.908  -4.273 -27.558  0.00  0.00    +0.000 A 
ATOM      9  C3  UNL     1     -23.657  -4.422 -27.004  0.00  0.00    +0.000 A 
ENDBRANCH   1   9
BRANCH   3  10
ATOM     10  C5  UNL     1     -20.131  -4.281 -28.164  0.00  0.00    +0.000 C 
BRANCH  10  11
ATOM     11  C6  UNL     1     -19.193  -5.078 -27.303  0.00  0.00    +0.000 A 
ATOM     12  C7  UNL     1     -18.628  -4.440 -26.122  0.00  0.00    +0.000 A 
ATOM     13  C8  UNL     1     -17.793  -5.103 -25.308  0.00  0.00    +0.000 A 
ATOM     14  C9  UNL     1     -17.438  -6.512 -25.609  0.00  0.00    +0.000 A 
ATOM     15  O3  UNL     1     -16.677  -7.146 -24.887  0.00  0.00    +0.000 OA
ATOM     16  N3  UNL     1     -18.016  -7.044 -26.735  0.00  0.00    +0.000 N 
ATOM     17  C10 UNL     1     -18.871  -6.356 -27.560  0.00  0.00    +0.000 A 
ATOM     18  H8  UNL     1     -17.775  -8.008 -26.936  0.00  0.00    +0.000 HD
ENDBRANCH  10  11
ENDBRANCH   3  10
TORSDOF 3
ENDMDL
MODEL 9
REMARK VINA RESULT:    -4.608      5.830      9.095
REMARK INTER + INTRA:          -5.622
REMARK INTER:                  -5.416
REMARK INTRA:                  -0.207
REMARK UNBOUND:                -0.207
REMARK  Name = /home/anacleto/Desktop/manuscript_Mpro/naturecomm/supplementary_file_S2/6-chemical-library/molecular_docking/3D_ligand_structure/687.pdb
REMARK  3 active torsions:
REMARK  status: ('A' for Active; 'I' for Inactive)
REMARK    1  A    between atoms: C3_5  and  C4_6
REMARK    2  A    between atoms: N2_8  and  C5_9
REMARK    3  A    between atoms: C5_9  and  C6_10
REMARK                            x       y       z     vdW  Elec       q    Type
REMARK                         _______ _______ _______ _____ _____    ______ ____
ROOT
ATOM      1  C4  UNL     1     -23.807   5.599 -39.180  0.00  0.00    +0.000 C 
ATOM      2  O2  UNL     1     -23.788   5.414 -40.391  0.00  0.00    +0.000 OA
ATOM      3  N2  UNL     1     -24.591   4.882 -38.307  0.00  0.00    +0.000 N 
ATOM      4  H3  UNL     1     -24.422   5.041 -37.317  0.00  0.00    +0.000 HD
ENDROOT
BRANCH   1   9
ATOM      5  N1  UNL     1     -21.635   6.432 -38.231  0.00  0.00    +0.000 NA
ATOM      6  C1  UNL     1     -21.310   7.558 -37.638  0.00  0.00    +0.000 A 
ATOM      7  O1  UNL     1     -22.324   8.456 -37.503  0.00  0.00    +0.000 OA
ATOM      8  C2  UNL     1     -23.395   7.832 -38.068  0.00  0.00    +0.000 A 
ATOM      9  C3  UNL     1     -22.986   6.596 -38.512  0.00  0.00    +0.000 A 
ENDBRANCH   1   9
BRANCH   3  10
ATOM     10  C5  UNL     1     -25.354   3.743 -38.743  0.00  0.00    +0.000 C 
BRANCH  10  11
ATOM     11  C6  UNL     1     -26.818   4.072 -38.672  0.00  0.00    +0.000 A 
ATOM     12  C7  UNL     1     -27.235   5.437 -38.963  0.00  0.00    +0.000 A 
ATOM     13  C8  UNL     1     -28.528   5.789 -38.928  0.00  0.00    +0.000 A 
ATOM     14  C9  UNL     1     -29.558   4.775 -38.591  0.00  0.00    +0.000 A 
ATOM     15  O3  UNL     1     -30.747   5.063 -38.548  0.00  0.00    +0.000 OA
ATOM     16  N3  UNL     1     -29.086   3.510 -38.337  0.00  0.00    +0.000 N 
ATOM     17  C10 UNL     1     -27.759   3.160 -38.378  0.00  0.00    +0.000 A 
ATOM     18  H8  UNL     1     -29.791   2.818 -38.111  0.00  0.00    +0.000 HD
ENDBRANCH  10  11
ENDBRANCH   3  10
TORSDOF 3
ENDMDL
