MODEL 1
REMARK VINA RESULT:    -5.047      0.000      0.000
REMARK INTER + INTRA:          -6.524
REMARK INTER:                  -6.168
REMARK INTRA:                  -0.356
REMARK UNBOUND:                -0.297
REMARK  Name = /home/anacleto/Desktop/manuscript_Mpro/naturecomm/supplementary_file_S2/6-chemical-library/molecular_docking/3D_ligand_structure/662.pdb
REMARK  4 active torsions:
REMARK  status: ('A' for Active; 'I' for Inactive)
REMARK    1  A    between atoms: C3_4  and  N2_5
REMARK    2  A    between atoms: C4_6  and  C5_8
REMARK    3  A    between atoms: C5_8  and  N3_9
REMARK    4  A    between atoms: C6_10  and  C7_12
REMARK                            x       y       z     vdW  Elec       q    Type
REMARK                         _______ _______ _______ _____ _____    ______ ____
ROOT
ATOM      1  C5  UNL     1      17.646  10.344  -3.125  0.00  0.00    +0.000 C 
ENDROOT
BRANCH   1   3
ATOM      2  N2  UNL     1      15.534  10.599  -4.318  0.00  0.00    +0.000 N 
ATOM      3  C4  UNL     1      16.171  10.739  -3.102  0.00  0.00    +0.000 C 
ATOM      4  O1  UNL     1      15.631  11.201  -2.100  0.00  0.00    +0.000 OA
ATOM      5  H7  UNL     1      16.136  10.420  -5.125  0.00  0.00    +0.000 HD
BRANCH   2   9
ATOM      6  C1  UNL     1      13.554  10.747  -5.919  0.00  0.00    +0.000 C 
ATOM      7  N1  UNL     1      12.941  12.097  -5.917  0.00  0.00    +0.000 NA
ATOM      8  C2  UNL     1      13.967  12.523  -4.934  0.00  0.00    +0.000 C 
ATOM      9  C3  UNL     1      14.143  11.045  -4.524  0.00  0.00    +0.000 C 
ATOM     10  H3  UNL     1      11.996  12.107  -5.533  0.00  0.00    +0.000 HD
ENDBRANCH   2   9
ENDBRANCH   1   3
BRANCH   1  11
ATOM     11  N3  UNL     1      17.985   9.753  -4.408  0.00  0.00    +0.000 N 
ATOM     12  C6  UNL     1      19.028  10.269  -5.156  0.00  0.00    +0.000 C 
ATOM     13  O2  UNL     1      19.656  11.252  -4.767  0.00  0.00    +0.000 OA
ATOM     14  H10 UNL     1      17.671   8.807  -4.578  0.00  0.00    +0.000 HD
BRANCH  12  15
ATOM     15  C7  UNL     1      19.354   9.549  -6.385  0.00  0.00    +0.000 A 
ATOM     16  C8  UNL     1      20.371   8.642  -6.603  0.00  0.00    +0.000 A 
ATOM     17  O3  UNL     1      20.303   8.213  -7.894  0.00  0.00    +0.000 OA
ATOM     18  C9  UNL     1      19.235   8.883  -8.403  0.00  0.00    +0.000 A 
ATOM     19  N4  UNL     1      18.631   9.685  -7.559  0.00  0.00    +0.000 NA
ENDBRANCH  12  15
ENDBRANCH   1  11
TORSDOF 4
ENDMDL
MODEL 2
REMARK VINA RESULT:    -5.002      3.026      5.501
REMARK INTER + INTRA:          -6.469
REMARK INTER:                  -5.994
REMARK INTRA:                  -0.475
REMARK UNBOUND:                -0.297
REMARK  Name = /home/anacleto/Desktop/manuscript_Mpro/naturecomm/supplementary_file_S2/6-chemical-library/molecular_docking/3D_ligand_structure/662.pdb
REMARK  4 active torsions:
REMARK  status: ('A' for Active; 'I' for Inactive)
REMARK    1  A    between atoms: C3_4  and  N2_5
REMARK    2  A    between atoms: C4_6  and  C5_8
REMARK    3  A    between atoms: C5_8  and  N3_9
REMARK    4  A    between atoms: C6_10  and  C7_12
REMARK                            x       y       z     vdW  Elec       q    Type
REMARK                         _______ _______ _______ _____ _____    ______ ____
ROOT
ATOM      1  C5  UNL     1      17.561  10.173  -3.078  0.00  0.00    +0.000 C 
ENDROOT
BRANCH   1   3
ATOM      2  N2  UNL     1      15.487  10.793  -4.203  0.00  0.00    +0.000 N 
ATOM      3  C4  UNL     1      16.843  10.591  -4.360  0.00  0.00    +0.000 C 
ATOM      4  O1  UNL     1      17.423  10.672  -5.440  0.00  0.00    +0.000 OA
ATOM      5  H7  UNL     1      15.084  10.481  -3.317  0.00  0.00    +0.000 HD
BRANCH   2   9
ATOM      6  C1  UNL     1      14.098  12.535  -5.444  0.00  0.00    +0.000 C 
ATOM      7  N1  UNL     1      12.760  12.013  -5.815  0.00  0.00    +0.000 NA
ATOM      8  C2  UNL     1      13.114  10.734  -5.152  0.00  0.00    +0.000 C 
ATOM      9  C3  UNL     1      14.605  11.080  -5.350  0.00  0.00    +0.000 C 
ATOM     10  H3  UNL     1      12.633  11.916  -6.822  0.00  0.00    +0.000 HD
ENDBRANCH   2   9
ENDBRANCH   1   3
BRANCH   1  11
ATOM     11  N3  UNL     1      18.109  11.340  -2.409  0.00  0.00    +0.000 N 
ATOM     12  C6  UNL     1      17.386  11.971  -1.412  0.00  0.00    +0.000 C 
ATOM     13  O2  UNL     1      16.261  11.580  -1.106  0.00  0.00    +0.000 OA
ATOM     14  H10 UNL     1      19.110  11.473  -2.459  0.00  0.00    +0.000 HD
BRANCH  12  15
ATOM     15  C7  UNL     1      18.059  13.076  -0.733  0.00  0.00    +0.000 A 
ATOM     16  C8  UNL     1      17.530  14.288  -0.338  0.00  0.00    +0.000 A 
ATOM     17  O3  UNL     1      18.511  15.016   0.264  0.00  0.00    +0.000 OA
ATOM     18  C9  UNL     1      19.599  14.203   0.209  0.00  0.00    +0.000 A 
ATOM     19  N4  UNL     1      19.394  13.041  -0.364  0.00  0.00    +0.000 NA
ENDBRANCH  12  15
ENDBRANCH   1  11
TORSDOF 4
ENDMDL
MODEL 3
REMARK VINA RESULT:    -4.986      4.161      5.899
REMARK INTER + INTRA:          -6.448
REMARK INTER:                  -6.077
REMARK INTRA:                  -0.372
REMARK UNBOUND:                -0.297
REMARK  Name = /home/anacleto/Desktop/manuscript_Mpro/naturecomm/supplementary_file_S2/6-chemical-library/molecular_docking/3D_ligand_structure/662.pdb
REMARK  4 active torsions:
REMARK  status: ('A' for Active; 'I' for Inactive)
REMARK    1  A    between atoms: C3_4  and  N2_5
REMARK    2  A    between atoms: C4_6  and  C5_8
REMARK    3  A    between atoms: C5_8  and  N3_9
REMARK    4  A    between atoms: C6_10  and  C7_12
REMARK                            x       y       z     vdW  Elec       q    Type
REMARK                         _______ _______ _______ _____ _____    ______ ____
ROOT
ATOM      1  C5  UNL     1      16.253  15.413  -4.215  0.00  0.00    +0.000 C 
ENDROOT
BRANCH   1   3
ATOM      2  N2  UNL     1      14.335  15.824  -2.765  0.00  0.00    +0.000 N 
ATOM      3  C4  UNL     1      15.686  16.043  -2.945  0.00  0.00    +0.000 C 
ATOM      4  O1  UNL     1      16.369  16.736  -2.195  0.00  0.00    +0.000 OA
ATOM      5  H7  UNL     1      13.832  15.427  -3.562  0.00  0.00    +0.000 HD
BRANCH   2   9
ATOM      6  C1  UNL     1      12.130  15.968  -1.492  0.00  0.00    +0.000 C 
ATOM      7  N1  UNL     1      11.717  17.373  -1.257  0.00  0.00    +0.000 NA
ATOM      8  C2  UNL     1      12.929  17.814  -1.992  0.00  0.00    +0.000 C 
ATOM      9  C3  UNL     1      13.584  16.455  -1.663  0.00  0.00    +0.000 C 
ATOM     10  H3  UNL     1      11.734  17.636  -0.271  0.00  0.00    +0.000 HD
ENDBRANCH   2   9
ENDBRANCH   1   3
BRANCH   1  11
ATOM     11  N3  UNL     1      15.359  14.376  -4.701  0.00  0.00    +0.000 N 
ATOM     12  C6  UNL     1      15.796  13.067  -4.786  0.00  0.00    +0.000 C 
ATOM     13  O2  UNL     1      16.952  12.768  -4.490  0.00  0.00    +0.000 OA
ATOM     14  H10 UNL     1      14.367  14.569  -4.666  0.00  0.00    +0.000 HD
BRANCH  12  15
ATOM     15  C7  UNL     1      14.798  12.082  -5.195  0.00  0.00    +0.000 A 
ATOM     16  C8  UNL     1      14.331  10.992  -4.490  0.00  0.00    +0.000 A 
ATOM     17  O3  UNL     1      13.400  10.348  -5.248  0.00  0.00    +0.000 OA
ATOM     18  C9  UNL     1      13.341  11.088  -6.388  0.00  0.00    +0.000 A 
ATOM     19  N4  UNL     1      14.140  12.127  -6.415  0.00  0.00    +0.000 NA
ENDBRANCH  12  15
ENDBRANCH   1  11
TORSDOF 4
ENDMDL
MODEL 4
REMARK VINA RESULT:    -4.757      5.997      8.267
REMARK INTER + INTRA:          -6.166
REMARK INTER:                  -5.836
REMARK INTRA:                  -0.331
REMARK UNBOUND:                -0.297
REMARK  Name = /home/anacleto/Desktop/manuscript_Mpro/naturecomm/supplementary_file_S2/6-chemical-library/molecular_docking/3D_ligand_structure/662.pdb
REMARK  4 active torsions:
REMARK  status: ('A' for Active; 'I' for Inactive)
REMARK    1  A    between atoms: C3_4  and  N2_5
REMARK    2  A    between atoms: C4_6  and  C5_8
REMARK    3  A    between atoms: C5_8  and  N3_9
REMARK    4  A    between atoms: C6_10  and  C7_12
REMARK                            x       y       z     vdW  Elec       q    Type
REMARK                         _______ _______ _______ _____ _____    ______ ____
ROOT
ATOM      1  C5  UNL     1      12.597  17.205  -1.972  0.00  0.00    +0.000 C 
ENDROOT
BRANCH   1   3
ATOM      2  N2  UNL     1      11.685  18.687  -3.682  0.00  0.00    +0.000 N 
ATOM      3  C4  UNL     1      12.702  18.506  -2.767  0.00  0.00    +0.000 C 
ATOM      4  O1  UNL     1      13.649  19.278  -2.639  0.00  0.00    +0.000 OA
ATOM      5  H7  UNL     1      11.083  17.879  -3.854  0.00  0.00    +0.000 HD
BRANCH   2   9
ATOM      6  C1  UNL     1      10.731  20.980  -4.262  0.00  0.00    +0.000 C 
ATOM      7  N1  UNL     1      10.342  21.072  -5.691  0.00  0.00    +0.000 NA
ATOM      8  C2  UNL     1      10.767  19.661  -5.861  0.00  0.00    +0.000 C 
ATOM      9  C3  UNL     1      11.681  19.820  -4.627  0.00  0.00    +0.000 C 
ATOM     10  H3  UNL     1      10.919  21.726  -6.221  0.00  0.00    +0.000 HD
ENDBRANCH   2   9
ENDBRANCH   1   3
BRANCH   1  11
ATOM     11  N3  UNL     1      13.093  16.094  -2.765  0.00  0.00    +0.000 N 
ATOM     12  C6  UNL     1      14.241  15.425  -2.379  0.00  0.00    +0.000 C 
ATOM     13  O2  UNL     1      14.874  15.781  -1.387  0.00  0.00    +0.000 OA
ATOM     14  H10 UNL     1      12.437  15.640  -3.386  0.00  0.00    +0.000 HD
BRANCH  12  15
ATOM     15  C7  UNL     1      14.608  14.262  -3.185  0.00  0.00    +0.000 A 
ATOM     16  C8  UNL     1      14.873  12.976  -2.762  0.00  0.00    +0.000 A 
ATOM     17  O3  UNL     1      15.169  12.212  -3.850  0.00  0.00    +0.000 OA
ATOM     18  C9  UNL     1      15.063  13.078  -4.893  0.00  0.00    +0.000 A 
ATOM     19  N4  UNL     1      14.731  14.303  -4.565  0.00  0.00    +0.000 NA
ENDBRANCH  12  15
ENDBRANCH   1  11
TORSDOF 4
ENDMDL
MODEL 5
REMARK VINA RESULT:    -4.739      4.166      6.430
REMARK INTER + INTRA:          -6.144
REMARK INTER:                  -5.837
REMARK INTRA:                  -0.307
REMARK UNBOUND:                -0.297
REMARK  Name = /home/anacleto/Desktop/manuscript_Mpro/naturecomm/supplementary_file_S2/6-chemical-library/molecular_docking/3D_ligand_structure/662.pdb
REMARK  4 active torsions:
REMARK  status: ('A' for Active; 'I' for Inactive)
REMARK    1  A    between atoms: C3_4  and  N2_5
REMARK    2  A    between atoms: C4_6  and  C5_8
REMARK    3  A    between atoms: C5_8  and  N3_9
REMARK    4  A    between atoms: C6_10  and  C7_12
REMARK                            x       y       z     vdW  Elec       q    Type
REMARK                         _______ _______ _______ _____ _____    ______ ____
ROOT
ATOM      1  C5  UNL     1      16.457  11.697  -1.037  0.00  0.00    +0.000 C 
ENDROOT
BRANCH   1   3
ATOM      2  N2  UNL     1      17.430  13.794  -0.258  0.00  0.00    +0.000 N 
ATOM      3  C4  UNL     1      17.590  12.718  -1.108  0.00  0.00    +0.000 C 
ATOM      4  O1  UNL     1      18.521  12.612  -1.904  0.00  0.00    +0.000 OA
ATOM      5  H7  UNL     1      16.514  13.883   0.188  0.00  0.00    +0.000 HD
BRANCH   2   9
ATOM      6  C1  UNL     1      19.663  14.745   0.524  0.00  0.00    +0.000 C 
ATOM      7  N1  UNL     1      19.526  16.130   1.037  0.00  0.00    +0.000 NA
ATOM      8  C2  UNL     1      18.069  16.047   0.768  0.00  0.00    +0.000 C 
ATOM      9  C3  UNL     1      18.356  14.942  -0.272  0.00  0.00    +0.000 C 
ATOM     10  H3  UNL     1      19.998  16.821   0.454  0.00  0.00    +0.000 HD
ENDBRANCH   2   9
ENDBRANCH   1   3
BRANCH   1  11
ATOM     11  N3  UNL     1      15.513  11.921  -2.119  0.00  0.00    +0.000 N 
ATOM     12  C6  UNL     1      15.619  11.197  -3.292  0.00  0.00    +0.000 C 
ATOM     13  O2  UNL     1      16.528  10.386  -3.452  0.00  0.00    +0.000 OA
ATOM     14  H10 UNL     1      14.634  12.359  -1.880  0.00  0.00    +0.000 HD
BRANCH  12  15
ATOM     15  C7  UNL     1      14.569  11.425  -4.283  0.00  0.00    +0.000 A 
ATOM     16  C8  UNL     1      14.295  12.577  -4.991  0.00  0.00    +0.000 A 
ATOM     17  O3  UNL     1      13.233  12.342  -5.811  0.00  0.00    +0.000 OA
ATOM     18  C9  UNL     1      12.912  11.044  -5.563  0.00  0.00    +0.000 A 
ATOM     19  N4  UNL     1      13.668  10.447  -4.674  0.00  0.00    +0.000 NA
ENDBRANCH  12  15
ENDBRANCH   1  11
TORSDOF 4
ENDMDL
MODEL 6
REMARK VINA RESULT:    -4.733      4.020      7.345
REMARK INTER + INTRA:          -6.136
REMARK INTER:                  -5.824
REMARK INTRA:                  -0.313
REMARK UNBOUND:                -0.297
REMARK  Name = /home/anacleto/Desktop/manuscript_Mpro/naturecomm/supplementary_file_S2/6-chemical-library/molecular_docking/3D_ligand_structure/662.pdb
REMARK  4 active torsions:
REMARK  status: ('A' for Active; 'I' for Inactive)
REMARK    1  A    between atoms: C3_4  and  N2_5
REMARK    2  A    between atoms: C4_6  and  C5_8
REMARK    3  A    between atoms: C5_8  and  N3_9
REMARK    4  A    between atoms: C6_10  and  C7_12
REMARK                            x       y       z     vdW  Elec       q    Type
REMARK                         _______ _______ _______ _____ _____    ______ ____
ROOT
ATOM      1  C5  UNL     1      16.036  13.140  -2.396  0.00  0.00    +0.000 C 
ENDROOT
BRANCH   1   3
ATOM      2  N2  UNL     1      15.048  12.280  -4.454  0.00  0.00    +0.000 N 
ATOM      3  C4  UNL     1      15.632  11.940  -3.251  0.00  0.00    +0.000 C 
ATOM      4  O1  UNL     1      15.760  10.783  -2.859  0.00  0.00    +0.000 OA
ATOM      5  H7  UNL     1      14.793  13.263  -4.571  0.00  0.00    +0.000 HD
BRANCH   2   9
ATOM      6  C1  UNL     1      14.384  11.678  -6.842  0.00  0.00    +0.000 C 
ATOM      7  N1  UNL     1      13.042  11.047  -6.901  0.00  0.00    +0.000 NA
ATOM      8  C2  UNL     1      12.940  11.212  -5.429  0.00  0.00    +0.000 C 
ATOM      9  C3  UNL     1      14.482  11.262  -5.359  0.00  0.00    +0.000 C 
ATOM     10  H3  UNL     1      13.073  10.069  -7.189  0.00  0.00    +0.000 HD
ENDBRANCH   2   9
ENDBRANCH   1   3
BRANCH   1  11
ATOM     11  N3  UNL     1      14.941  14.091  -2.321  0.00  0.00    +0.000 N 
ATOM     12  C6  UNL     1      15.037  15.196  -1.495  0.00  0.00    +0.000 C 
ATOM     13  O2  UNL     1      16.028  15.369  -0.788  0.00  0.00    +0.000 OA
ATOM     14  H10 UNL     1      14.282  14.099  -3.088  0.00  0.00    +0.000 HD
BRANCH  12  15
ATOM     15  C7  UNL     1      13.926  16.144  -1.557  0.00  0.00    +0.000 A 
ATOM     16  C8  UNL     1      12.676  16.037  -0.985  0.00  0.00    +0.000 A 
ATOM     17  O3  UNL     1      11.958  17.153  -1.295  0.00  0.00    +0.000 OA
ATOM     18  C9  UNL     1      12.817  17.894  -2.044  0.00  0.00    +0.000 A 
ATOM     19  N4  UNL     1      13.997  17.353  -2.230  0.00  0.00    +0.000 NA
ENDBRANCH  12  15
ENDBRANCH   1  11
TORSDOF 4
ENDMDL
MODEL 7
REMARK VINA RESULT:    -4.495      4.777      6.982
REMARK INTER + INTRA:          -5.843
REMARK INTER:                  -5.547
REMARK INTRA:                  -0.297
REMARK UNBOUND:                -0.297
REMARK  Name = /home/anacleto/Desktop/manuscript_Mpro/naturecomm/supplementary_file_S2/6-chemical-library/molecular_docking/3D_ligand_structure/662.pdb
REMARK  4 active torsions:
REMARK  status: ('A' for Active; 'I' for Inactive)
REMARK    1  A    between atoms: C3_4  and  N2_5
REMARK    2  A    between atoms: C4_6  and  C5_8
REMARK    3  A    between atoms: C5_8  and  N3_9
REMARK    4  A    between atoms: C6_10  and  C7_12
REMARK                            x       y       z     vdW  Elec       q    Type
REMARK                         _______ _______ _______ _____ _____    ______ ____
ROOT
ATOM      1  C5  UNL     1      15.189  15.876  -2.671  0.00  0.00    +0.000 C 
ENDROOT
BRANCH   1   3
ATOM      2  N2  UNL     1      17.037  15.681  -1.092  0.00  0.00    +0.000 N 
ATOM      3  C4  UNL     1      15.670  15.811  -1.223  0.00  0.00    +0.000 C 
ATOM      4  O1  UNL     1      14.892  15.809  -0.273  0.00  0.00    +0.000 OA
ATOM      5  H7  UNL     1      17.555  15.470  -1.949  0.00  0.00    +0.000 HD
BRANCH   2   9
ATOM      6  C1  UNL     1      18.110  16.769   0.950  0.00  0.00    +0.000 C 
ATOM      7  N1  UNL     1      19.371  16.093   1.339  0.00  0.00    +0.000 NA
ATOM      8  C2  UNL     1      19.191  15.173   0.189  0.00  0.00    +0.000 C 
ATOM      9  C3  UNL     1      17.678  15.479   0.221  0.00  0.00    +0.000 C 
ATOM     10  H3  UNL     1      19.309  15.618   2.240  0.00  0.00    +0.000 HD
ENDBRANCH   2   9
ENDBRANCH   1   3
BRANCH   1  11
ATOM     11  N3  UNL     1      14.629  14.596  -3.070  0.00  0.00    +0.000 N 
ATOM     12  C6  UNL     1      15.020  14.007  -4.258  0.00  0.00    +0.000 C 
ATOM     13  O2  UNL     1      15.814  14.572  -5.009  0.00  0.00    +0.000 OA
ATOM     14  H10 UNL     1      14.219  14.026  -2.343  0.00  0.00    +0.000 HD
BRANCH  12  15
ATOM     15  C7  UNL     1      14.475  12.678  -4.527  0.00  0.00    +0.000 A 
ATOM     16  C8  UNL     1      14.755  11.492  -3.881  0.00  0.00    +0.000 A 
ATOM     17  O3  UNL     1      14.018  10.500  -4.454  0.00  0.00    +0.000 OA
ATOM     18  C9  UNL     1      13.315  11.138  -5.428  0.00  0.00    +0.000 A 
ATOM     19  N4  UNL     1      13.539  12.427  -5.517  0.00  0.00    +0.000 NA
ENDBRANCH  12  15
ENDBRANCH   1  11
TORSDOF 4
ENDMDL
MODEL 8
REMARK VINA RESULT:    -4.454     15.390     17.072
REMARK INTER + INTRA:          -5.792
REMARK INTER:                  -5.515
REMARK INTRA:                  -0.276
REMARK UNBOUND:                -0.297
REMARK  Name = /home/anacleto/Desktop/manuscript_Mpro/naturecomm/supplementary_file_S2/6-chemical-library/molecular_docking/3D_ligand_structure/662.pdb
REMARK  4 active torsions:
REMARK  status: ('A' for Active; 'I' for Inactive)
REMARK    1  A    between atoms: C3_4  and  N2_5
REMARK    2  A    between atoms: C4_6  and  C5_8
REMARK    3  A    between atoms: C5_8  and  N3_9
REMARK    4  A    between atoms: C6_10  and  C7_12
REMARK                            x       y       z     vdW  Elec       q    Type
REMARK                         _______ _______ _______ _____ _____    ______ ____
ROOT
ATOM      1  C5  UNL     1      18.253   3.071   9.263  0.00  0.00    +0.000 C 
ENDROOT
BRANCH   1   3
ATOM      2  N2  UNL     1      19.518   5.157   9.268  0.00  0.00    +0.000 N 
ATOM      3  C4  UNL     1      18.600   4.388   9.954  0.00  0.00    +0.000 C 
ATOM      4  O1  UNL     1      18.145   4.692  11.055  0.00  0.00    +0.000 OA
ATOM      5  H7  UNL     1      19.990   4.703   8.482  0.00  0.00    +0.000 HD
BRANCH   2   9
ATOM      6  C1  UNL     1      19.976   7.641   8.919  0.00  0.00    +0.000 C 
ATOM      7  N1  UNL     1      21.351   8.014   9.332  0.00  0.00    +0.000 NA
ATOM      8  C2  UNL     1      21.594   6.592   9.680  0.00  0.00    +0.000 C 
ATOM      9  C3  UNL     1      20.069   6.402   9.834  0.00  0.00    +0.000 C 
ATOM     10  H3  UNL     1      21.372   8.630  10.145  0.00  0.00    +0.000 HD
ENDBRANCH   2   9
ENDBRANCH   1   3
BRANCH   1  11
ATOM     11  N3  UNL     1      16.916   2.646   9.639  0.00  0.00    +0.000 N 
ATOM     12  C6  UNL     1      15.939   2.493   8.672  0.00  0.00    +0.000 C 
ATOM     13  O2  UNL     1      16.176   2.748   7.492  0.00  0.00    +0.000 OA
ATOM     14  H10 UNL     1      16.813   2.178  10.529  0.00  0.00    +0.000 HD
BRANCH  12  15
ATOM     15  C7  UNL     1      14.655   1.971   9.133  0.00  0.00    +0.000 A 
ATOM     16  C8  UNL     1      14.128   1.999  10.408  0.00  0.00    +0.000 A 
ATOM     17  O3  UNL     1      12.902   1.405  10.385  0.00  0.00    +0.000 OA
ATOM     18  C9  UNL     1      12.739   1.046   9.084  0.00  0.00    +0.000 A 
ATOM     19  N4  UNL     1      13.738   1.357   8.294  0.00  0.00    +0.000 NA
ENDBRANCH  12  15
ENDBRANCH   1  11
TORSDOF 4
ENDMDL
MODEL 9
REMARK VINA RESULT:    -4.451      4.241      6.214
REMARK INTER + INTRA:          -5.789
REMARK INTER:                  -5.527
REMARK INTRA:                  -0.262
REMARK UNBOUND:                -0.297
REMARK  Name = /home/anacleto/Desktop/manuscript_Mpro/naturecomm/supplementary_file_S2/6-chemical-library/molecular_docking/3D_ligand_structure/662.pdb
REMARK  4 active torsions:
REMARK  status: ('A' for Active; 'I' for Inactive)
REMARK    1  A    between atoms: C3_4  and  N2_5
REMARK    2  A    between atoms: C4_6  and  C5_8
REMARK    3  A    between atoms: C5_8  and  N3_9
REMARK    4  A    between atoms: C6_10  and  C7_12
REMARK                            x       y       z     vdW  Elec       q    Type
REMARK                         _______ _______ _______ _____ _____    ______ ____
ROOT
ATOM      1  C5  UNL     1      16.391  11.908  -1.307  0.00  0.00    +0.000 C 
ENDROOT
BRANCH   1   3
ATOM      2  N2  UNL     1      15.232  11.408  -3.394  0.00  0.00    +0.000 N 
ATOM      3  C4  UNL     1      15.385  12.328  -2.376  0.00  0.00    +0.000 C 
ATOM      4  O1  UNL     1      14.821  13.419  -2.355  0.00  0.00    +0.000 OA
ATOM      5  H7  UNL     1      15.913  10.646  -3.420  0.00  0.00    +0.000 HD
BRANCH   2   9
ATOM      6  C1  UNL     1      13.435  10.556  -4.991  0.00  0.00    +0.000 C 
ATOM      7  N1  UNL     1      13.789  10.811  -6.409  0.00  0.00    +0.000 NA
ATOM      8  C2  UNL     1      15.063  11.416  -5.945  0.00  0.00    +0.000 C 
ATOM      9  C3  UNL     1      14.398  11.689  -4.578  0.00  0.00    +0.000 C 
ATOM     10  H3  UNL     1      13.172  11.486  -6.860  0.00  0.00    +0.000 HD
ENDBRANCH   2   9
ENDBRANCH   1   3
BRANCH   1  11
ATOM     11  N3  UNL     1      17.039  13.080  -0.742  0.00  0.00    +0.000 N 
ATOM     12  C6  UNL     1      18.407  13.087  -0.542  0.00  0.00    +0.000 C 
ATOM     13  O2  UNL     1      19.087  12.096  -0.803  0.00  0.00    +0.000 OA
ATOM     14  H10 UNL     1      16.539  13.956  -0.801  0.00  0.00    +0.000 HD
BRANCH  12  15
ATOM     15  C7  UNL     1      18.979  14.343  -0.060  0.00  0.00    +0.000 A 
ATOM     16  C8  UNL     1      18.378  15.582   0.020  0.00  0.00    +0.000 A 
ATOM     17  O3  UNL     1      19.276  16.469   0.535  0.00  0.00    +0.000 OA
ATOM     18  C9  UNL     1      20.387  15.717   0.751  0.00  0.00    +0.000 A 
ATOM     19  N4  UNL     1      20.273  14.452   0.424  0.00  0.00    +0.000 NA
ENDBRANCH  12  15
ENDBRANCH   1  11
TORSDOF 4
ENDMDL
