MODEL 1
REMARK VINA RESULT:    -3.969      0.000      0.000
REMARK INTER + INTRA:          -3.969
REMARK INTER:                  -3.969
REMARK INTRA:                   0.000
REMARK UNBOUND:                 0.000
REMARK  Name = /home/anacleto/Desktop/manuscript_Mpro/naturecomm/supplementary_file_S2/6-chemical-library/molecular_docking/3D_ligand_structure/253.pdb
REMARK  0 active torsions:
REMARK  status: ('A' for Active; 'I' for Inactive)
REMARK                            x       y       z     vdW  Elec       q    Type
REMARK                         _______ _______ _______ _____ _____    ______ ____
ROOT
ATOM      1  C1  UNL     1      21.038   3.869   8.859  0.00  0.00    +0.000 A 
ATOM      2  N1  UNL     1      22.273   3.463   9.210  0.00  0.00    +0.000 NA
ATOM      3  C2  UNL     1      23.113   4.441   9.574  0.00  0.00    +0.000 A 
ATOM      4  N2  UNL     1      22.835   5.754   9.617  0.00  0.00    +0.000 NA
ATOM      5  C3  UNL     1      21.596   6.122   9.260  0.00  0.00    +0.000 A 
ATOM      6  C4  UNL     1      20.626   5.194   8.860  0.00  0.00    +0.000 A 
ATOM      7  C5  UNL     1      21.238   7.465   9.280  0.00  0.00    +0.000 A 
ATOM      8  C6  UNL     1      19.956   7.892   8.915  0.00  0.00    +0.000 A 
ATOM      9  C7  UNL     1      19.000   6.961   8.520  0.00  0.00    +0.000 A 
ATOM     10  C8  UNL     1      19.331   5.609   8.491  0.00  0.00    +0.000 A 
ENDROOT
TORSDOF 0
ENDMDL
MODEL 2
REMARK VINA RESULT:    -3.915     15.469     16.557
REMARK INTER + INTRA:          -3.915
REMARK INTER:                  -3.915
REMARK INTRA:                   0.000
REMARK UNBOUND:                 0.000
REMARK  Name = /home/anacleto/Desktop/manuscript_Mpro/naturecomm/supplementary_file_S2/6-chemical-library/molecular_docking/3D_ligand_structure/253.pdb
REMARK  0 active torsions:
REMARK  status: ('A' for Active; 'I' for Inactive)
REMARK                            x       y       z     vdW  Elec       q    Type
REMARK                         _______ _______ _______ _____ _____    ______ ____
ROOT
ATOM      1  C1  UNL     1      16.960  11.732  -5.184  0.00  0.00    +0.000 A 
ATOM      2  N1  UNL     1      17.308  11.681  -3.885  0.00  0.00    +0.000 NA
ATOM      3  C2  UNL     1      16.340  11.275  -3.051  0.00  0.00    +0.000 A 
ATOM      4  N2  UNL     1      15.089  10.926  -3.393  0.00  0.00    +0.000 NA
ATOM      5  C3  UNL     1      14.779  10.990  -4.696  0.00  0.00    +0.000 A 
ATOM      6  C4  UNL     1      15.702  11.397  -5.667  0.00  0.00    +0.000 A 
ATOM      7  C5  UNL     1      13.502  10.642  -5.122  0.00  0.00    +0.000 A 
ATOM      8  C6  UNL     1      13.136  10.694  -6.473  0.00  0.00    +0.000 A 
ATOM      9  C7  UNL     1      14.062  11.101  -7.428  0.00  0.00    +0.000 A 
ATOM     10  C8  UNL     1      15.348  11.454  -7.029  0.00  0.00    +0.000 A 
ENDROOT
TORSDOF 0
ENDMDL
MODEL 3
REMARK VINA RESULT:    -3.910     15.354     16.391
REMARK INTER + INTRA:          -3.910
REMARK INTER:                  -3.910
REMARK INTRA:                   0.000
REMARK UNBOUND:                 0.000
REMARK  Name = /home/anacleto/Desktop/manuscript_Mpro/naturecomm/supplementary_file_S2/6-chemical-library/molecular_docking/3D_ligand_structure/253.pdb
REMARK  0 active torsions:
REMARK  status: ('A' for Active; 'I' for Inactive)
REMARK                            x       y       z     vdW  Elec       q    Type
REMARK                         _______ _______ _______ _____ _____    ______ ____
ROOT
ATOM      1  C1  UNL     1      15.354  11.001  -3.311  0.00  0.00    +0.000 A 
ATOM      2  N1  UNL     1      16.588  11.344  -2.896  0.00  0.00    +0.000 NA
ATOM      3  C2  UNL     1      17.419  11.759  -3.862  0.00  0.00    +0.000 A 
ATOM      4  N2  UNL     1      17.133  11.858  -5.170  0.00  0.00    +0.000 NA
ATOM      5  C3  UNL     1      15.895  11.507  -5.547  0.00  0.00    +0.000 A 
ATOM      6  C4  UNL     1      14.934  11.058  -4.633  0.00  0.00    +0.000 A 
ATOM      7  C5  UNL     1      15.529  11.584  -6.885  0.00  0.00    +0.000 A 
ATOM      8  C6  UNL     1      14.247  11.227  -7.321  0.00  0.00    +0.000 A 
ATOM      9  C7  UNL     1      13.301  10.782  -6.404  0.00  0.00    +0.000 A 
ATOM     10  C8  UNL     1      13.640  10.695  -5.056  0.00  0.00    +0.000 A 
ENDROOT
TORSDOF 0
ENDMDL
MODEL 4
REMARK VINA RESULT:    -3.835      0.859      2.095
REMARK INTER + INTRA:          -3.835
REMARK INTER:                  -3.835
REMARK INTRA:                   0.000
REMARK UNBOUND:                 0.000
REMARK  Name = /home/anacleto/Desktop/manuscript_Mpro/naturecomm/supplementary_file_S2/6-chemical-library/molecular_docking/3D_ligand_structure/253.pdb
REMARK  0 active torsions:
REMARK  status: ('A' for Active; 'I' for Inactive)
REMARK                            x       y       z     vdW  Elec       q    Type
REMARK                         _______ _______ _______ _____ _____    ______ ____
ROOT
ATOM      1  C1  UNL     1      22.486   5.263   9.889  0.00  0.00    +0.000 A 
ATOM      2  N1  UNL     1      22.605   3.927  10.005  0.00  0.00    +0.000 NA
ATOM      3  C2  UNL     1      21.534   3.224   9.612  0.00  0.00    +0.000 A 
ATOM      4  N2  UNL     1      20.386   3.725   9.127  0.00  0.00    +0.000 NA
ATOM      5  C3  UNL     1      20.304   5.058   9.026  0.00  0.00    +0.000 A 
ATOM      6  C4  UNL     1      21.355   5.904   9.402  0.00  0.00    +0.000 A 
ATOM      7  C5  UNL     1      19.146   5.646   8.531  0.00  0.00    +0.000 A 
ATOM      8  C6  UNL     1      19.017   7.035   8.409  0.00  0.00    +0.000 A 
ATOM      9  C7  UNL     1      20.068   7.865   8.787  0.00  0.00    +0.000 A 
ATOM     10  C8  UNL     1      21.241   7.303   9.285  0.00  0.00    +0.000 A 
ENDROOT
TORSDOF 0
ENDMDL
MODEL 5
REMARK VINA RESULT:    -3.778     15.250     16.357
REMARK INTER + INTRA:          -3.778
REMARK INTER:                  -3.778
REMARK INTRA:                   0.000
REMARK UNBOUND:                 0.000
REMARK  Name = /home/anacleto/Desktop/manuscript_Mpro/naturecomm/supplementary_file_S2/6-chemical-library/molecular_docking/3D_ligand_structure/253.pdb
REMARK  0 active torsions:
REMARK  status: ('A' for Active; 'I' for Inactive)
REMARK                            x       y       z     vdW  Elec       q    Type
REMARK                         _______ _______ _______ _____ _____    ______ ____
ROOT
ATOM      1  C1  UNL     1      15.872  11.535  -6.710  0.00  0.00    +0.000 A 
ATOM      2  N1  UNL     1      14.666  12.040  -7.031  0.00  0.00    +0.000 NA
ATOM      3  C2  UNL     1      13.796  12.129  -6.015  0.00  0.00    +0.000 A 
ATOM      4  N2  UNL     1      14.019  11.768  -4.741  0.00  0.00    +0.000 NA
ATOM      5  C3  UNL     1      15.230  11.268  -4.458  0.00  0.00    +0.000 A 
ATOM      6  C4  UNL     1      16.228  11.125  -5.432  0.00  0.00    +0.000 A 
ATOM      7  C5  UNL     1      15.532  10.874  -3.160  0.00  0.00    +0.000 A 
ATOM      8  C6  UNL     1      16.784  10.348  -2.821  0.00  0.00    +0.000 A 
ATOM      9  C7  UNL     1      17.767  10.210  -3.797  0.00  0.00    +0.000 A 
ATOM     10  C8  UNL     1      17.492  10.598  -5.106  0.00  0.00    +0.000 A 
ENDROOT
TORSDOF 0
ENDMDL
MODEL 6
REMARK VINA RESULT:    -3.777      2.660      3.656
REMARK INTER + INTRA:          -3.777
REMARK INTER:                  -3.777
REMARK INTRA:                   0.000
REMARK UNBOUND:                 0.000
REMARK  Name = /home/anacleto/Desktop/manuscript_Mpro/naturecomm/supplementary_file_S2/6-chemical-library/molecular_docking/3D_ligand_structure/253.pdb
REMARK  0 active torsions:
REMARK  status: ('A' for Active; 'I' for Inactive)
REMARK                            x       y       z     vdW  Elec       q    Type
REMARK                         _______ _______ _______ _____ _____    ______ ____
ROOT
ATOM      1  C1  UNL     1      21.357   6.556  11.916  0.00  0.00    +0.000 A 
ATOM      2  N1  UNL     1      20.764   7.155  12.965  0.00  0.00    +0.000 NA
ATOM      3  C2  UNL     1      19.535   7.636  12.727  0.00  0.00    +0.000 A 
ATOM      4  N2  UNL     1      18.867   7.572  11.564  0.00  0.00    +0.000 NA
ATOM      5  C3  UNL     1      19.489   6.970  10.542  0.00  0.00    +0.000 A 
ATOM      6  C4  UNL     1      20.774   6.425  10.663  0.00  0.00    +0.000 A 
ATOM      7  C5  UNL     1      18.857   6.867   9.308  0.00  0.00    +0.000 A 
ATOM      8  C6  UNL     1      19.471   6.246   8.214  0.00  0.00    +0.000 A 
ATOM      9  C7  UNL     1      20.748   5.709   8.346  0.00  0.00    +0.000 A 
ATOM     10  C8  UNL     1      21.404   5.797   9.571  0.00  0.00    +0.000 A 
ENDROOT
TORSDOF 0
ENDMDL
MODEL 7
REMARK VINA RESULT:    -3.752     16.169     17.207
REMARK INTER + INTRA:          -3.752
REMARK INTER:                  -3.752
REMARK INTRA:                   0.000
REMARK UNBOUND:                 0.000
REMARK  Name = /home/anacleto/Desktop/manuscript_Mpro/naturecomm/supplementary_file_S2/6-chemical-library/molecular_docking/3D_ligand_structure/253.pdb
REMARK  0 active torsions:
REMARK  status: ('A' for Active; 'I' for Inactive)
REMARK                            x       y       z     vdW  Elec       q    Type
REMARK                         _______ _______ _______ _____ _____    ______ ____
ROOT
ATOM      1  C1  UNL     1      14.185  11.340  -7.120  0.00  0.00    +0.000 A 
ATOM      2  N1  UNL     1      13.075  11.051  -6.414  0.00  0.00    +0.000 NA
ATOM      3  C2  UNL     1      13.278  10.787  -5.116  0.00  0.00    +0.000 A 
ATOM      4  N2  UNL     1      14.461  10.784  -4.479  0.00  0.00    +0.000 NA
ATOM      5  C3  UNL     1      15.543  11.075  -5.214  0.00  0.00    +0.000 A 
ATOM      6  C4  UNL     1      15.464  11.371  -6.581  0.00  0.00    +0.000 A 
ATOM      7  C5  UNL     1      16.800  11.091  -4.621  0.00  0.00    +0.000 A 
ATOM      8  C6  UNL     1      17.957  11.390  -5.351  0.00  0.00    +0.000 A 
ATOM      9  C7  UNL     1      17.865  11.682  -6.708  0.00  0.00    +0.000 A 
ATOM     10  C8  UNL     1      16.619  11.673  -7.328  0.00  0.00    +0.000 A 
ENDROOT
TORSDOF 0
ENDMDL
MODEL 8
REMARK VINA RESULT:    -3.685      3.934      4.424
REMARK INTER + INTRA:          -3.685
REMARK INTER:                  -3.685
REMARK INTRA:                   0.000
REMARK UNBOUND:                 0.000
REMARK  Name = /home/anacleto/Desktop/manuscript_Mpro/naturecomm/supplementary_file_S2/6-chemical-library/molecular_docking/3D_ligand_structure/253.pdb
REMARK  0 active torsions:
REMARK  status: ('A' for Active; 'I' for Inactive)
REMARK                            x       y       z     vdW  Elec       q    Type
REMARK                         _______ _______ _______ _____ _____    ______ ____
ROOT
ATOM      1  C1  UNL     1      19.124   6.882  10.709  0.00  0.00    +0.000 A 
ATOM      2  N1  UNL     1      20.254   6.618  10.027  0.00  0.00    +0.000 NA
ATOM      3  C2  UNL     1      21.388   6.739  10.732  0.00  0.00    +0.000 A 
ATOM      4  N2  UNL     1      21.487   7.093  12.024  0.00  0.00    +0.000 NA
ATOM      5  C3  UNL     1      20.342   7.349  12.671  0.00  0.00    +0.000 A 
ATOM      6  C4  UNL     1      19.092   7.256  12.046  0.00  0.00    +0.000 A 
ATOM      7  C5  UNL     1      20.369   7.720  14.010  0.00  0.00    +0.000 A 
ATOM      8  C6  UNL     1      19.196   7.996  14.723  0.00  0.00    +0.000 A 
ATOM      9  C7  UNL     1      17.961   7.901  14.091  0.00  0.00    +0.000 A 
ATOM     10  C8  UNL     1      17.903   7.530  12.750  0.00  0.00    +0.000 A 
ENDROOT
TORSDOF 0
ENDMDL
MODEL 9
REMARK VINA RESULT:    -3.641     15.593     16.646
REMARK INTER + INTRA:          -3.641
REMARK INTER:                  -3.641
REMARK INTRA:                   0.000
REMARK UNBOUND:                 0.000
REMARK  Name = /home/anacleto/Desktop/manuscript_Mpro/naturecomm/supplementary_file_S2/6-chemical-library/molecular_docking/3D_ligand_structure/253.pdb
REMARK  0 active torsions:
REMARK  status: ('A' for Active; 'I' for Inactive)
REMARK                            x       y       z     vdW  Elec       q    Type
REMARK                         _______ _______ _______ _____ _____    ______ ____
ROOT
ATOM      1  C1  UNL     1      13.583  10.689  -5.096  0.00  0.00    +0.000 A 
ATOM      2  N1  UNL     1      13.140  10.755  -6.365  0.00  0.00    +0.000 NA
ATOM      3  C2  UNL     1      14.059  11.112  -7.272  0.00  0.00    +0.000 A 
ATOM      4  N2  UNL     1      15.348  11.403  -7.029  0.00  0.00    +0.000 NA
ATOM      5  C3  UNL     1      15.753  11.328  -5.754  0.00  0.00    +0.000 A 
ATOM      6  C4  UNL     1      14.890  10.964  -4.713  0.00  0.00    +0.000 A 
ATOM      7  C5  UNL     1      17.074  11.614  -5.428  0.00  0.00    +0.000 A 
ATOM      8  C6  UNL     1      17.540  11.548  -4.110  0.00  0.00    +0.000 A 
ATOM      9  C7  UNL     1      16.672  11.186  -3.084  0.00  0.00    +0.000 A 
ATOM     10  C8  UNL     1      15.344  10.893  -3.382  0.00  0.00    +0.000 A 
ENDROOT
TORSDOF 0
ENDMDL
