MODEL 1
REMARK VINA RESULT:    -2.990      0.000      0.000
REMARK INTER + INTRA:          -2.990
REMARK INTER:                  -2.990
REMARK INTRA:                   0.000
REMARK UNBOUND:                 0.000
REMARK  Name = /home/anacleto/Desktop/manuscript_Mpro/naturecomm/supplementary_file_S2/6-chemical-library/molecular_docking/3D_ligand_structure/68.pdb
REMARK  0 active torsions:
REMARK  status: ('A' for Active; 'I' for Inactive)
REMARK                            x       y       z     vdW  Elec       q    Type
REMARK                         _______ _______ _______ _____ _____    ______ ____
ROOT
ATOM      1  C1  UNL     1      19.559   5.407   8.530  0.00  0.00    +0.000 C 
ATOM      2  C2  UNL     1      19.132   6.851   8.295  0.00  0.00    +0.000 C 
ATOM      3  C3  UNL     1      19.933   7.801   9.176  0.00  0.00    +0.000 C 
ATOM      4  O1  UNL     1      21.334   7.626   8.966  0.00  0.00    +0.000 OA
ATOM      5  C4  UNL     1      21.769   6.309   9.302  0.00  0.00    +0.000 C 
ATOM      6  C5  UNL     1      21.074   5.273   8.427  0.00  0.00    +0.000 C 
ENDROOT
TORSDOF 0
ENDMDL
MODEL 2
REMARK VINA RESULT:    -2.881     15.843     16.707
REMARK INTER + INTRA:          -2.881
REMARK INTER:                  -2.881
REMARK INTRA:                   0.000
REMARK UNBOUND:                 0.000
REMARK  Name = /home/anacleto/Desktop/manuscript_Mpro/naturecomm/supplementary_file_S2/6-chemical-library/molecular_docking/3D_ligand_structure/68.pdb
REMARK  0 active torsions:
REMARK  status: ('A' for Active; 'I' for Inactive)
REMARK                            x       y       z     vdW  Elec       q    Type
REMARK                         _______ _______ _______ _____ _____    ______ ____
ROOT
ATOM      1  C1  UNL     1      15.193  11.707  -6.900  0.00  0.00    +0.000 C 
ATOM      2  C2  UNL     1      15.754  11.170  -5.588  0.00  0.00    +0.000 C 
ATOM      3  C3  UNL     1      14.681  11.164  -4.506  0.00  0.00    +0.000 C 
ATOM      4  O1  UNL     1      13.538  10.423  -4.932  0.00  0.00    +0.000 OA
ATOM      5  C4  UNL     1      12.929  10.990  -6.091  0.00  0.00    +0.000 C 
ATOM      6  C5  UNL     1      13.900  10.986  -7.266  0.00  0.00    +0.000 C 
ENDROOT
TORSDOF 0
ENDMDL
MODEL 3
REMARK VINA RESULT:    -2.837      0.845      2.058
REMARK INTER + INTRA:          -2.837
REMARK INTER:                  -2.837
REMARK INTRA:                   0.000
REMARK UNBOUND:                 0.000
REMARK  Name = /home/anacleto/Desktop/manuscript_Mpro/naturecomm/supplementary_file_S2/6-chemical-library/molecular_docking/3D_ligand_structure/68.pdb
REMARK  0 active torsions:
REMARK  status: ('A' for Active; 'I' for Inactive)
REMARK                            x       y       z     vdW  Elec       q    Type
REMARK                         _______ _______ _______ _____ _____    ______ ____
ROOT
ATOM      1  C1  UNL     1      20.893   5.295   8.462  0.00  0.00    +0.000 C 
ATOM      2  C2  UNL     1      21.656   6.272   9.349  0.00  0.00    +0.000 C 
ATOM      3  C3  UNL     1      21.188   7.701   9.105  0.00  0.00    +0.000 C 
ATOM      4  O1  UNL     1      19.777   7.811   9.293  0.00  0.00    +0.000 OA
ATOM      5  C4  UNL     1      19.046   6.991   8.382  0.00  0.00    +0.000 C 
ATOM      6  C5  UNL     1      19.390   5.520   8.585  0.00  0.00    +0.000 C 
ENDROOT
TORSDOF 0
ENDMDL
MODEL 4
REMARK VINA RESULT:    -2.812      1.385      2.473
REMARK INTER + INTRA:          -2.812
REMARK INTER:                  -2.812
REMARK INTRA:                   0.000
REMARK UNBOUND:                 0.000
REMARK  Name = /home/anacleto/Desktop/manuscript_Mpro/naturecomm/supplementary_file_S2/6-chemical-library/molecular_docking/3D_ligand_structure/68.pdb
REMARK  0 active torsions:
REMARK  status: ('A' for Active; 'I' for Inactive)
REMARK                            x       y       z     vdW  Elec       q    Type
REMARK                         _______ _______ _______ _____ _____    ______ ____
ROOT
ATOM      1  C1  UNL     1      19.785   7.754   8.843  0.00  0.00    +0.000 C 
ATOM      2  C2  UNL     1      21.223   7.406   9.212  0.00  0.00    +0.000 C 
ATOM      3  C3  UNL     1      21.282   6.085   9.969  0.00  0.00    +0.000 C 
ATOM      4  O1  UNL     1      20.665   5.042   9.214  0.00  0.00    +0.000 OA
ATOM      5  C4  UNL     1      19.283   5.299   8.967  0.00  0.00    +0.000 C 
ATOM      6  C5  UNL     1      19.109   6.574   8.152  0.00  0.00    +0.000 C 
ENDROOT
TORSDOF 0
ENDMDL
MODEL 5
REMARK VINA RESULT:    -2.795     15.605     16.416
REMARK INTER + INTRA:          -2.795
REMARK INTER:                  -2.795
REMARK INTRA:                   0.000
REMARK UNBOUND:                 0.000
REMARK  Name = /home/anacleto/Desktop/manuscript_Mpro/naturecomm/supplementary_file_S2/6-chemical-library/molecular_docking/3D_ligand_structure/68.pdb
REMARK  0 active torsions:
REMARK  status: ('A' for Active; 'I' for Inactive)
REMARK                            x       y       z     vdW  Elec       q    Type
REMARK                         _______ _______ _______ _____ _____    ______ ____
ROOT
ATOM      1  C1  UNL     1      13.167  11.281  -6.224  0.00  0.00    +0.000 C 
ATOM      2  C2  UNL     1      14.371  11.339  -7.158  0.00  0.00    +0.000 C 
ATOM      3  C3  UNL     1      15.611  11.811  -6.411  0.00  0.00    +0.000 C 
ATOM      4  O1  UNL     1      15.865  10.981  -5.277  0.00  0.00    +0.000 OA
ATOM      5  C4  UNL     1      14.795  11.015  -4.334  0.00  0.00    +0.000 C 
ATOM      6  C5  UNL     1      13.506  10.498  -4.961  0.00  0.00    +0.000 C 
ENDROOT
TORSDOF 0
ENDMDL
MODEL 6
REMARK VINA RESULT:    -2.683     15.874     16.700
REMARK INTER + INTRA:          -2.683
REMARK INTER:                  -2.683
REMARK INTRA:                   0.000
REMARK UNBOUND:                 0.000
REMARK  Name = /home/anacleto/Desktop/manuscript_Mpro/naturecomm/supplementary_file_S2/6-chemical-library/molecular_docking/3D_ligand_structure/68.pdb
REMARK  0 active torsions:
REMARK  status: ('A' for Active; 'I' for Inactive)
REMARK                            x       y       z     vdW  Elec       q    Type
REMARK                         _______ _______ _______ _____ _____    ______ ____
ROOT
ATOM      1  C1  UNL     1      15.749  11.453  -6.184  0.00  0.00    +0.000 C 
ATOM      2  C2  UNL     1      14.636  11.682  -7.200  0.00  0.00    +0.000 C 
ATOM      3  C3  UNL     1      13.429  10.808  -6.884  0.00  0.00    +0.000 C 
ATOM      4  O1  UNL     1      12.977  11.032  -5.549  0.00  0.00    +0.000 OA
ATOM      5  C4  UNL     1      13.972  10.702  -4.580  0.00  0.00    +0.000 C 
ATOM      6  C5  UNL     1      15.211  11.571  -4.762  0.00  0.00    +0.000 C 
ENDROOT
TORSDOF 0
ENDMDL
MODEL 7
REMARK VINA RESULT:    -2.504      5.801      6.723
REMARK INTER + INTRA:          -2.504
REMARK INTER:                  -2.504
REMARK INTRA:                   0.000
REMARK UNBOUND:                 0.000
REMARK  Name = /home/anacleto/Desktop/manuscript_Mpro/naturecomm/supplementary_file_S2/6-chemical-library/molecular_docking/3D_ligand_structure/68.pdb
REMARK  0 active torsions:
REMARK  status: ('A' for Active; 'I' for Inactive)
REMARK                            x       y       z     vdW  Elec       q    Type
REMARK                         _______ _______ _______ _____ _____    ______ ____
ROOT
ATOM      1  C1  UNL     1      15.659   1.388   7.657  0.00  0.00    +0.000 C 
ATOM      2  C2  UNL     1      14.471   1.288   8.607  0.00  0.00    +0.000 C 
ATOM      3  C3  UNL     1      14.837   1.821   9.987  0.00  0.00    +0.000 C 
ATOM      4  O1  UNL     1      15.328   3.159   9.898  0.00  0.00    +0.000 OA
ATOM      5  C4  UNL     1      16.515   3.246   9.109  0.00  0.00    +0.000 C 
ATOM      6  C5  UNL     1      16.246   2.795   7.679  0.00  0.00    +0.000 C 
ENDROOT
TORSDOF 0
ENDMDL
MODEL 8
REMARK VINA RESULT:    -2.421      5.963      6.922
REMARK INTER + INTRA:          -2.421
REMARK INTER:                  -2.421
REMARK INTRA:                   0.000
REMARK UNBOUND:                 0.000
REMARK  Name = /home/anacleto/Desktop/manuscript_Mpro/naturecomm/supplementary_file_S2/6-chemical-library/molecular_docking/3D_ligand_structure/68.pdb
REMARK  0 active torsions:
REMARK  status: ('A' for Active; 'I' for Inactive)
REMARK                            x       y       z     vdW  Elec       q    Type
REMARK                         _______ _______ _______ _____ _____    ______ ____
ROOT
ATOM      1  C1  UNL     1      16.145   2.730   7.642  0.00  0.00    +0.000 C 
ATOM      2  C2  UNL     1      16.513   3.212   9.041  0.00  0.00    +0.000 C 
ATOM      3  C3  UNL     1      15.400   2.896  10.031  0.00  0.00    +0.000 C 
ATOM      4  O1  UNL     1      15.094   1.501  10.019  0.00  0.00    +0.000 OA
ATOM      5  C4  UNL     1      14.629   1.063   8.743  0.00  0.00    +0.000 C 
ATOM      6  C5  UNL     1      15.697   1.273   7.678  0.00  0.00    +0.000 C 
ENDROOT
TORSDOF 0
ENDMDL
MODEL 9
REMARK VINA RESULT:    -2.419      1.978      2.912
REMARK INTER + INTRA:          -2.419
REMARK INTER:                  -2.419
REMARK INTRA:                   0.000
REMARK UNBOUND:                 0.000
REMARK  Name = /home/anacleto/Desktop/manuscript_Mpro/naturecomm/supplementary_file_S2/6-chemical-library/molecular_docking/3D_ligand_structure/68.pdb
REMARK  0 active torsions:
REMARK  status: ('A' for Active; 'I' for Inactive)
REMARK                            x       y       z     vdW  Elec       q    Type
REMARK                         _______ _______ _______ _____ _____    ______ ____
ROOT
ATOM      1  C1  UNL     1      19.175   6.843  10.830  0.00  0.00    +0.000 C 
ATOM      2  C2  UNL     1      19.205   5.331  10.638  0.00  0.00    +0.000 C 
ATOM      3  C3  UNL     1      18.596   4.945   9.296  0.00  0.00    +0.000 C 
ATOM      4  O1  UNL     1      19.257   5.623   8.228  0.00  0.00    +0.000 OA
ATOM      5  C4  UNL     1      19.130   7.041   8.330  0.00  0.00    +0.000 C 
ATOM      6  C5  UNL     1      19.769   7.549   9.616  0.00  0.00    +0.000 C 
ENDROOT
TORSDOF 0
ENDMDL
