MODEL 1
REMARK VINA RESULT:    -5.076      0.000      0.000
REMARK INTER + INTRA:          -6.738
REMARK INTER:                  -6.372
REMARK INTRA:                  -0.366
REMARK UNBOUND:                -0.475
REMARK  Name = /home/anacleto/Desktop/manuscript_Mpro/naturecomm/supplementary_file_S2/6-chemical-library/molecular_docking/3D_ligand_structure/601.pdb
REMARK  4 active torsions:
REMARK  status: ('A' for Active; 'I' for Inactive)
REMARK    1  A    between atoms: N2_4  and  C4_7
REMARK    2  A    between atoms: C4_7  and  C5_8
REMARK    3  A    between atoms: N3_10  and  C6_11
REMARK    4  A    between atoms: C6_11  and  C7_12
REMARK                            x       y       z     vdW  Elec       q    Type
REMARK                         _______ _______ _______ _____ _____    ______ ____
ROOT
ATOM      1  C5  UNL     1     -23.564   6.212 -38.446  0.00  0.00    +0.000 C 
ATOM      2  O2  UNL     1     -23.097   5.360 -37.694  0.00  0.00    +0.000 OA
ATOM      3  N3  UNL     1     -24.199   5.921 -39.633  0.00  0.00    +0.000 N 
ATOM      4  H8  UNL     1     -24.711   6.673 -40.092  0.00  0.00    +0.000 HD
ENDROOT
BRANCH   1   5
ATOM      5  C4  UNL     1     -23.548   7.702 -38.093  0.00  0.00    +0.000 C 
BRANCH   5   9
ATOM      6  N1  UNL     1     -20.592   9.663 -37.349  0.00  0.00    +0.000 N 
ATOM      7  C1  UNL     1     -19.964   8.740 -38.256  0.00  0.00    +0.000 C 
ATOM      8  C2  UNL     1     -21.145   7.997 -38.872  0.00  0.00    +0.000 C 
ATOM      9  N2  UNL     1     -22.200   8.211 -37.905  0.00  0.00    +0.000 N 
ATOM     10  C3  UNL     1     -21.902   9.297 -37.096  0.00  0.00    +0.000 C 
ATOM     11  O1  UNL     1     -22.663   9.869 -36.335  0.00  0.00    +0.000 OA
ATOM     12  H1  UNL     1     -20.130  10.356 -36.775  0.00  0.00    +0.000 HD
ENDBRANCH   5   9
ENDBRANCH   1   5
BRANCH   3  13
ATOM     13  C6  UNL     1     -24.472   4.569 -40.052  0.00  0.00    +0.000 C 
BRANCH  13  14
ATOM     14  C7  UNL     1     -25.738   4.055 -39.418  0.00  0.00    +0.000 A 
ATOM     15  C8  UNL     1     -26.877   4.869 -39.332  0.00  0.00    +0.000 A 
ATOM     16  C9  UNL     1     -28.040   4.396 -38.724  0.00  0.00    +0.000 A 
ATOM     17  C10 UNL     1     -28.075   3.109 -38.188  0.00  0.00    +0.000 A 
ATOM     18  C11 UNL     1     -26.945   2.296 -38.255  0.00  0.00    +0.000 A 
ATOM     19  C12 UNL     1     -25.781   2.768 -38.863  0.00  0.00    +0.000 A 
ENDBRANCH  13  14
ENDBRANCH   3  13
TORSDOF 4
ENDMDL
MODEL 2
REMARK VINA RESULT:    -5.052      1.605      2.207
REMARK INTER + INTRA:          -6.709
REMARK INTER:                  -6.184
REMARK INTRA:                  -0.525
REMARK UNBOUND:                -0.475
REMARK  Name = /home/anacleto/Desktop/manuscript_Mpro/naturecomm/supplementary_file_S2/6-chemical-library/molecular_docking/3D_ligand_structure/601.pdb
REMARK  4 active torsions:
REMARK  status: ('A' for Active; 'I' for Inactive)
REMARK    1  A    between atoms: N2_4  and  C4_7
REMARK    2  A    between atoms: C4_7  and  C5_8
REMARK    3  A    between atoms: N3_10  and  C6_11
REMARK    4  A    between atoms: C6_11  and  C7_12
REMARK                            x       y       z     vdW  Elec       q    Type
REMARK                         _______ _______ _______ _____ _____    ______ ____
ROOT
ATOM      1  C5  UNL     1     -24.584   8.056 -38.933  0.00  0.00    +0.000 C 
ATOM      2  O2  UNL     1     -25.042   8.802 -39.795  0.00  0.00    +0.000 OA
ATOM      3  N3  UNL     1     -25.041   6.775 -38.709  0.00  0.00    +0.000 N 
ATOM      4  H8  UNL     1     -24.483   6.175 -38.104  0.00  0.00    +0.000 HD
ENDROOT
BRANCH   1   5
ATOM      5  C4  UNL     1     -23.395   8.459 -38.057  0.00  0.00    +0.000 C 
BRANCH   5   9
ATOM      6  N1  UNL     1     -20.380   6.509 -38.550  0.00  0.00    +0.000 N 
ATOM      7  C1  UNL     1     -19.974   7.654 -39.321  0.00  0.00    +0.000 C 
ATOM      8  C2  UNL     1     -21.041   8.693 -38.992  0.00  0.00    +0.000 C 
ATOM      9  N2  UNL     1     -22.146   7.883 -38.523  0.00  0.00    +0.000 N 
ATOM     10  C3  UNL     1     -21.696   6.628 -38.140  0.00  0.00    +0.000 C 
ATOM     11  O1  UNL     1     -22.319   5.793 -37.510  0.00  0.00    +0.000 OA
ATOM     12  H1  UNL     1     -19.897   5.623 -38.484  0.00  0.00    +0.000 HD
ENDBRANCH   5   9
ENDBRANCH   1   5
BRANCH   3  13
ATOM     13  C6  UNL     1     -26.033   6.151 -39.548  0.00  0.00    +0.000 C 
BRANCH  13  14
ATOM     14  C7  UNL     1     -26.385   4.780 -39.033  0.00  0.00    +0.000 A 
ATOM     15  C8  UNL     1     -27.723   4.423 -38.806  0.00  0.00    +0.000 A 
ATOM     16  C9  UNL     1     -28.042   3.159 -38.308  0.00  0.00    +0.000 A 
ATOM     17  C10 UNL     1     -27.030   2.243 -38.025  0.00  0.00    +0.000 A 
ATOM     18  C11 UNL     1     -25.697   2.591 -38.235  0.00  0.00    +0.000 A 
ATOM     19  C12 UNL     1     -25.375   3.855 -38.732  0.00  0.00    +0.000 A 
ENDBRANCH  13  14
ENDBRANCH   3  13
TORSDOF 4
ENDMDL
MODEL 3
REMARK VINA RESULT:    -4.918     15.210     17.732
REMARK INTER + INTRA:          -6.543
REMARK INTER:                  -6.073
REMARK INTRA:                  -0.470
REMARK UNBOUND:                -0.475
REMARK  Name = /home/anacleto/Desktop/manuscript_Mpro/naturecomm/supplementary_file_S2/6-chemical-library/molecular_docking/3D_ligand_structure/601.pdb
REMARK  4 active torsions:
REMARK  status: ('A' for Active; 'I' for Inactive)
REMARK    1  A    between atoms: N2_4  and  C4_7
REMARK    2  A    between atoms: C4_7  and  C5_8
REMARK    3  A    between atoms: N3_10  and  C6_11
REMARK    4  A    between atoms: C6_11  and  C7_12
REMARK                            x       y       z     vdW  Elec       q    Type
REMARK                         _______ _______ _______ _____ _____    ______ ____
ROOT
ATOM      1  C5  UNL     1     -38.827  -3.061 -33.199  0.00  0.00    +0.000 C 
ATOM      2  O2  UNL     1     -40.035  -3.077 -32.970  0.00  0.00    +0.000 OA
ATOM      3  N3  UNL     1     -37.864  -2.993 -32.216  0.00  0.00    +0.000 N 
ATOM      4  H8  UNL     1     -36.898  -3.170 -32.490  0.00  0.00    +0.000 HD
ENDROOT
BRANCH   1   5
ATOM      5  C4  UNL     1     -38.268  -3.190 -34.618  0.00  0.00    +0.000 C 
BRANCH   5   9
ATOM      6  N1  UNL     1     -37.734   0.014 -36.227  0.00  0.00    +0.000 N 
ATOM      7  C1  UNL     1     -36.347  -0.336 -36.073  0.00  0.00    +0.000 C 
ATOM      8  C2  UNL     1     -36.402  -1.798 -35.643  0.00  0.00    +0.000 C 
ATOM      9  N2  UNL     1     -37.746  -1.931 -35.122  0.00  0.00    +0.000 N 
ATOM     10  C3  UNL     1     -38.552  -0.907 -35.598  0.00  0.00    +0.000 C 
ATOM     11  O1  UNL     1     -39.766  -0.845 -35.527  0.00  0.00    +0.000 OA
ATOM     12  H1  UNL     1     -38.102   0.904 -36.537  0.00  0.00    +0.000 HD
ENDBRANCH   5   9
ENDBRANCH   1   5
BRANCH   3  13
ATOM     13  C6  UNL     1     -38.186  -3.046 -30.813  0.00  0.00    +0.000 C 
BRANCH  13  14
ATOM     14  C7  UNL     1     -38.158  -1.669 -30.203  0.00  0.00    +0.000 A 
ATOM     15  C8  UNL     1     -37.044  -1.233 -29.471  0.00  0.00    +0.000 A 
ATOM     16  C9  UNL     1     -37.033   0.035 -28.889  0.00  0.00    +0.000 A 
ATOM     17  C10 UNL     1     -38.135   0.877 -29.026  0.00  0.00    +0.000 A 
ATOM     18  C11 UNL     1     -39.253   0.449 -29.740  0.00  0.00    +0.000 A 
ATOM     19  C12 UNL     1     -39.267  -0.819 -30.322  0.00  0.00    +0.000 A 
ENDBRANCH  13  14
ENDBRANCH   3  13
TORSDOF 4
ENDMDL
MODEL 4
REMARK VINA RESULT:    -4.815      1.669      2.103
REMARK INTER + INTRA:          -6.416
REMARK INTER:                  -6.036
REMARK INTRA:                  -0.380
REMARK UNBOUND:                -0.475
REMARK  Name = /home/anacleto/Desktop/manuscript_Mpro/naturecomm/supplementary_file_S2/6-chemical-library/molecular_docking/3D_ligand_structure/601.pdb
REMARK  4 active torsions:
REMARK  status: ('A' for Active; 'I' for Inactive)
REMARK    1  A    between atoms: N2_4  and  C4_7
REMARK    2  A    between atoms: C4_7  and  C5_8
REMARK    3  A    between atoms: N3_10  and  C6_11
REMARK    4  A    between atoms: C6_11  and  C7_12
REMARK                            x       y       z     vdW  Elec       q    Type
REMARK                         _______ _______ _______ _____ _____    ______ ____
ROOT
ATOM      1  C5  UNL     1     -23.221   5.916 -38.434  0.00  0.00    +0.000 C 
ATOM      2  O2  UNL     1     -22.456   5.579 -37.533  0.00  0.00    +0.000 OA
ATOM      3  N3  UNL     1     -24.265   5.137 -38.882  0.00  0.00    +0.000 N 
ATOM      4  H8  UNL     1     -24.950   5.574 -39.497  0.00  0.00    +0.000 HD
ENDROOT
BRANCH   1   5
ATOM      5  C4  UNL     1     -23.129   7.288 -39.106  0.00  0.00    +0.000 C 
BRANCH   5   9
ATOM      6  N1  UNL     1     -23.932  10.181 -37.075  0.00  0.00    +0.000 N 
ATOM      7  C1  UNL     1     -22.513  10.189 -36.836  0.00  0.00    +0.000 C 
ATOM      8  C2  UNL     1     -21.983   9.176 -37.845  0.00  0.00    +0.000 C 
ATOM      9  N2  UNL     1     -23.152   8.378 -38.145  0.00  0.00    +0.000 N 
ATOM     10  C3  UNL     1     -24.308   9.063 -37.797  0.00  0.00    +0.000 C 
ATOM     11  O1  UNL     1     -25.448   8.771 -38.109  0.00  0.00    +0.000 OA
ATOM     12  H1  UNL     1     -24.626  10.755 -36.615  0.00  0.00    +0.000 HD
ENDBRANCH   5   9
ENDBRANCH   1   5
BRANCH   3  13
ATOM     13  C6  UNL     1     -24.625   3.891 -38.253  0.00  0.00    +0.000 C 
BRANCH  13  14
ATOM     14  C7  UNL     1     -25.816   3.270 -38.934  0.00  0.00    +0.000 A 
ATOM     15  C8  UNL     1     -25.856   3.141 -40.330  0.00  0.00    +0.000 A 
ATOM     16  C9  UNL     1     -26.972   2.585 -40.957  0.00  0.00    +0.000 A 
ATOM     17  C10 UNL     1     -28.061   2.159 -40.198  0.00  0.00    +0.000 A 
ATOM     18  C11 UNL     1     -28.037   2.293 -38.811  0.00  0.00    +0.000 A 
ATOM     19  C12 UNL     1     -26.922   2.850 -38.182  0.00  0.00    +0.000 A 
ENDBRANCH  13  14
ENDBRANCH   3  13
TORSDOF 4
ENDMDL
MODEL 5
REMARK VINA RESULT:    -4.806      2.830      6.944
REMARK INTER + INTRA:          -6.405
REMARK INTER:                  -5.966
REMARK INTRA:                  -0.439
REMARK UNBOUND:                -0.475
REMARK  Name = /home/anacleto/Desktop/manuscript_Mpro/naturecomm/supplementary_file_S2/6-chemical-library/molecular_docking/3D_ligand_structure/601.pdb
REMARK  4 active torsions:
REMARK  status: ('A' for Active; 'I' for Inactive)
REMARK    1  A    between atoms: N2_4  and  C4_7
REMARK    2  A    between atoms: C4_7  and  C5_8
REMARK    3  A    between atoms: N3_10  and  C6_11
REMARK    4  A    between atoms: C6_11  and  C7_12
REMARK                            x       y       z     vdW  Elec       q    Type
REMARK                         _______ _______ _______ _____ _____    ______ ____
ROOT
ATOM      1  C5  UNL     1     -26.763   6.645 -39.325  0.00  0.00    +0.000 C 
ATOM      2  O2  UNL     1     -27.761   6.998 -38.701  0.00  0.00    +0.000 OA
ATOM      3  N3  UNL     1     -25.550   7.295 -39.259  0.00  0.00    +0.000 N 
ATOM      4  H8  UNL     1     -24.741   6.826 -39.663  0.00  0.00    +0.000 HD
ENDROOT
BRANCH   1   5
ATOM      5  C4  UNL     1     -26.753   5.387 -40.196  0.00  0.00    +0.000 C 
BRANCH   5   9
ATOM      6  N1  UNL     1     -28.266   2.682 -38.318  0.00  0.00    +0.000 N 
ATOM      7  C1  UNL     1     -26.918   2.478 -37.860  0.00  0.00    +0.000 C 
ATOM      8  C2  UNL     1     -26.187   3.719 -38.361  0.00  0.00    +0.000 C 
ATOM      9  N2  UNL     1     -27.040   4.184 -39.434  0.00  0.00    +0.000 N 
ATOM     10  C3  UNL     1     -28.315   3.651 -39.303  0.00  0.00    +0.000 C 
ATOM     11  O1  UNL     1     -29.315   4.002 -39.903  0.00  0.00    +0.000 OA
ATOM     12  H1  UNL     1     -29.060   2.078 -38.149  0.00  0.00    +0.000 HD
ENDBRANCH   5   9
ENDBRANCH   1   5
BRANCH   3  13
ATOM     13  C6  UNL     1     -25.310   8.394 -38.357  0.00  0.00    +0.000 C 
BRANCH  13  14
ATOM     14  C7  UNL     1     -23.873   8.413 -37.904  0.00  0.00    +0.000 A 
ATOM     15  C8  UNL     1     -23.352   9.523 -37.223  0.00  0.00    +0.000 A 
ATOM     16  C9  UNL     1     -22.015   9.544 -36.825  0.00  0.00    +0.000 A 
ATOM     17  C10 UNL     1     -21.183   8.462 -37.110  0.00  0.00    +0.000 A 
ATOM     18  C11 UNL     1     -21.687   7.359 -37.798  0.00  0.00    +0.000 A 
ATOM     19  C12 UNL     1     -23.024   7.336 -38.197  0.00  0.00    +0.000 A 
ENDBRANCH  13  14
ENDBRANCH   3  13
TORSDOF 4
ENDMDL
MODEL 6
REMARK VINA RESULT:    -4.751      2.907      6.607
REMARK INTER + INTRA:          -6.338
REMARK INTER:                  -5.846
REMARK INTRA:                  -0.491
REMARK UNBOUND:                -0.475
REMARK  Name = /home/anacleto/Desktop/manuscript_Mpro/naturecomm/supplementary_file_S2/6-chemical-library/molecular_docking/3D_ligand_structure/601.pdb
REMARK  4 active torsions:
REMARK  status: ('A' for Active; 'I' for Inactive)
REMARK    1  A    between atoms: N2_4  and  C4_7
REMARK    2  A    between atoms: C4_7  and  C5_8
REMARK    3  A    between atoms: N3_10  and  C6_11
REMARK    4  A    between atoms: C6_11  and  C7_12
REMARK                            x       y       z     vdW  Elec       q    Type
REMARK                         _______ _______ _______ _____ _____    ______ ____
ROOT
ATOM      1  C5  UNL     1     -26.415   4.754 -39.147  0.00  0.00    +0.000 C 
ATOM      2  O2  UNL     1     -26.474   3.652 -38.607  0.00  0.00    +0.000 OA
ATOM      3  N3  UNL     1     -25.333   5.601 -39.039  0.00  0.00    +0.000 N 
ATOM      4  H8  UNL     1     -25.299   6.404 -39.666  0.00  0.00    +0.000 HD
ENDROOT
BRANCH   1   5
ATOM      5  C4  UNL     1     -27.526   5.270 -40.063  0.00  0.00    +0.000 C 
BRANCH   5   9
ATOM      6  N1  UNL     1     -29.873   6.854 -37.800  0.00  0.00    +0.000 N 
ATOM      7  C1  UNL     1     -30.690   5.716 -38.129  0.00  0.00    +0.000 C 
ATOM      8  C2  UNL     1     -29.728   4.801 -38.880  0.00  0.00    +0.000 C 
ATOM      9  N2  UNL     1     -28.694   5.713 -39.321  0.00  0.00    +0.000 N 
ATOM     10  C3  UNL     1     -28.722   6.876 -38.566  0.00  0.00    +0.000 C 
ATOM     11  O1  UNL     1     -27.866   7.743 -38.534  0.00  0.00    +0.000 OA
ATOM     12  H1  UNL     1     -30.155   7.667 -37.268  0.00  0.00    +0.000 HD
ENDBRANCH   5   9
ENDBRANCH   1   5
BRANCH   3  13
ATOM     13  C6  UNL     1     -24.116   5.219 -38.368  0.00  0.00    +0.000 C 
BRANCH  13  14
ATOM     14  C7  UNL     1     -23.232   6.416 -38.137  0.00  0.00    +0.000 A 
ATOM     15  C8  UNL     1     -23.783   7.699 -38.003  0.00  0.00    +0.000 A 
ATOM     16  C9  UNL     1     -22.957   8.807 -37.812  0.00  0.00    +0.000 A 
ATOM     17  C10 UNL     1     -21.573   8.647 -37.760  0.00  0.00    +0.000 A 
ATOM     18  C11 UNL     1     -21.014   7.379 -37.905  0.00  0.00    +0.000 A 
ATOM     19  C12 UNL     1     -21.838   6.270 -38.097  0.00  0.00    +0.000 A 
ENDBRANCH  13  14
ENDBRANCH   3  13
TORSDOF 4
ENDMDL
MODEL 7
REMARK VINA RESULT:    -4.733     14.437     15.971
REMARK INTER + INTRA:          -6.315
REMARK INTER:                  -5.840
REMARK INTRA:                  -0.475
REMARK UNBOUND:                -0.475
REMARK  Name = /home/anacleto/Desktop/manuscript_Mpro/naturecomm/supplementary_file_S2/6-chemical-library/molecular_docking/3D_ligand_structure/601.pdb
REMARK  4 active torsions:
REMARK  status: ('A' for Active; 'I' for Inactive)
REMARK    1  A    between atoms: N2_4  and  C4_7
REMARK    2  A    between atoms: C4_7  and  C5_8
REMARK    3  A    between atoms: N3_10  and  C6_11
REMARK    4  A    between atoms: C6_11  and  C7_12
REMARK                            x       y       z     vdW  Elec       q    Type
REMARK                         _______ _______ _______ _____ _____    ______ ____
ROOT
ATOM      1  C5  UNL     1     -23.861  -3.880 -28.776  0.00  0.00    +0.000 C 
ATOM      2  O2  UNL     1     -23.893  -4.721 -29.672  0.00  0.00    +0.000 OA
ATOM      3  N3  UNL     1     -24.965  -3.501 -28.043  0.00  0.00    +0.000 N 
ATOM      4  H8  UNL     1     -24.806  -2.939 -27.208  0.00  0.00    +0.000 HD
ENDROOT
BRANCH   1   5
ATOM      5  C4  UNL     1     -22.556  -3.214 -28.334  0.00  0.00    +0.000 C 
BRANCH   5   9
ATOM      6  N1  UNL     1     -20.187  -5.440 -26.731  0.00  0.00    +0.000 N 
ATOM      7  C1  UNL     1     -19.521  -5.365 -28.004  0.00  0.00    +0.000 C 
ATOM      8  C2  UNL     1     -20.261  -4.241 -28.720  0.00  0.00    +0.000 C 
ATOM      9  N2  UNL     1     -21.522  -4.183 -28.012  0.00  0.00    +0.000 N 
ATOM     10  C3  UNL     1     -21.407  -4.791 -26.770  0.00  0.00    +0.000 C 
ATOM     11  O1  UNL     1     -22.206  -4.728 -25.853  0.00  0.00    +0.000 OA
ATOM     12  H1  UNL     1     -19.953  -6.054 -25.962  0.00  0.00    +0.000 HD
ENDBRANCH   5   9
ENDBRANCH   1   5
BRANCH   3  13
ATOM     13  C6  UNL     1     -26.247  -4.143 -28.189  0.00  0.00    +0.000 C 
BRANCH  13  14
ATOM     14  C7  UNL     1     -26.667  -4.801 -26.901  0.00  0.00    +0.000 A 
ATOM     15  C8  UNL     1     -25.726  -5.084 -25.900  0.00  0.00    +0.000 A 
ATOM     16  C9  UNL     1     -26.117  -5.713 -24.718  0.00  0.00    +0.000 A 
ATOM     17  C10 UNL     1     -27.451  -6.073 -24.526  0.00  0.00    +0.000 A 
ATOM     18  C11 UNL     1     -28.393  -5.809 -25.519  0.00  0.00    +0.000 A 
ATOM     19  C12 UNL     1     -28.003  -5.180 -26.702  0.00  0.00    +0.000 A 
ENDBRANCH  13  14
ENDBRANCH   3  13
TORSDOF 4
ENDMDL
MODEL 8
REMARK VINA RESULT:    -4.732      2.975      7.096
REMARK INTER + INTRA:          -6.313
REMARK INTER:                  -5.929
REMARK INTRA:                  -0.384
REMARK UNBOUND:                -0.475
REMARK  Name = /home/anacleto/Desktop/manuscript_Mpro/naturecomm/supplementary_file_S2/6-chemical-library/molecular_docking/3D_ligand_structure/601.pdb
REMARK  4 active torsions:
REMARK  status: ('A' for Active; 'I' for Inactive)
REMARK    1  A    between atoms: N2_4  and  C4_7
REMARK    2  A    between atoms: C4_7  and  C5_8
REMARK    3  A    between atoms: N3_10  and  C6_11
REMARK    4  A    between atoms: C6_11  and  C7_12
REMARK                            x       y       z     vdW  Elec       q    Type
REMARK                         _______ _______ _______ _____ _____    ______ ____
ROOT
ATOM      1  C5  UNL     1     -25.280   3.960 -39.291  0.00  0.00    +0.000 C 
ATOM      2  O2  UNL     1     -25.229   3.576 -40.457  0.00  0.00    +0.000 OA
ATOM      3  N3  UNL     1     -24.547   5.020 -38.802  0.00  0.00    +0.000 N 
ATOM      4  H8  UNL     1     -24.792   5.376 -37.879  0.00  0.00    +0.000 HD
ENDROOT
BRANCH   1   5
ATOM      5  C4  UNL     1     -26.231   3.332 -38.269  0.00  0.00    +0.000 C 
BRANCH   5   9
ATOM      6  N1  UNL     1     -29.594   3.560 -39.604  0.00  0.00    +0.000 N 
ATOM      7  C1  UNL     1     -29.610   4.802 -38.879  0.00  0.00    +0.000 C 
ATOM      8  C2  UNL     1     -28.153   4.986 -38.468  0.00  0.00    +0.000 C 
ATOM      9  N2  UNL     1     -27.623   3.642 -38.547  0.00  0.00    +0.000 N 
ATOM     10  C3  UNL     1     -28.436   2.848 -39.344  0.00  0.00    +0.000 C 
ATOM     11  O1  UNL     1     -28.169   1.745 -39.785  0.00  0.00    +0.000 OA
ATOM     12  H1  UNL     1     -30.379   3.118 -40.064  0.00  0.00    +0.000 HD
ENDBRANCH   5   9
ENDBRANCH   1   5
BRANCH   3  13
ATOM     13  C6  UNL     1     -23.730   5.851 -39.650  0.00  0.00    +0.000 C 
BRANCH  13  14
ATOM     14  C7  UNL     1     -22.874   6.779 -38.828  0.00  0.00    +0.000 A 
ATOM     15  C8  UNL     1     -23.424   7.926 -38.238  0.00  0.00    +0.000 A 
ATOM     16  C9  UNL     1     -22.622   8.794 -37.496  0.00  0.00    +0.000 A 
ATOM     17  C10 UNL     1     -21.262   8.530 -37.344  0.00  0.00    +0.000 A 
ATOM     18  C11 UNL     1     -20.701   7.400 -37.937  0.00  0.00    +0.000 A 
ATOM     19  C12 UNL     1     -21.502   6.531 -38.679  0.00  0.00    +0.000 A 
ENDBRANCH  13  14
ENDBRANCH   3  13
TORSDOF 4
ENDMDL
MODEL 9
REMARK VINA RESULT:    -4.713     16.465     17.640
REMARK INTER + INTRA:          -6.290
REMARK INTER:                  -5.880
REMARK INTRA:                  -0.410
REMARK UNBOUND:                -0.475
REMARK  Name = /home/anacleto/Desktop/manuscript_Mpro/naturecomm/supplementary_file_S2/6-chemical-library/molecular_docking/3D_ligand_structure/601.pdb
REMARK  4 active torsions:
REMARK  status: ('A' for Active; 'I' for Inactive)
REMARK    1  A    between atoms: N2_4  and  C4_7
REMARK    2  A    between atoms: C4_7  and  C5_8
REMARK    3  A    between atoms: N3_10  and  C6_11
REMARK    4  A    between atoms: C6_11  and  C7_12
REMARK                            x       y       z     vdW  Elec       q    Type
REMARK                         _______ _______ _______ _____ _____    ______ ____
ROOT
ATOM      1  C5  UNL     1     -20.701  -5.244 -27.592  0.00  0.00    +0.000 C 
ATOM      2  O2  UNL     1     -21.129  -4.322 -28.283  0.00  0.00    +0.000 OA
ATOM      3  N3  UNL     1     -21.453  -5.904 -26.646  0.00  0.00    +0.000 N 
ATOM      4  H8  UNL     1     -21.073  -6.766 -26.259  0.00  0.00    +0.000 HD
ENDROOT
BRANCH   1   5
ATOM      5  C4  UNL     1     -19.287  -5.803 -27.771  0.00  0.00    +0.000 C 
BRANCH   5   9
ATOM      6  N1  UNL     1     -17.124  -5.662 -24.866  0.00  0.00    +0.000 N 
ATOM      7  C1  UNL     1     -17.450  -4.262 -24.908  0.00  0.00    +0.000 C 
ATOM      8  C2  UNL     1     -18.579  -4.196 -25.931  0.00  0.00    +0.000 C 
ATOM      9  N2  UNL     1     -18.399  -5.417 -26.688  0.00  0.00    +0.000 N 
ATOM     10  C3  UNL     1     -17.637  -6.324 -25.967  0.00  0.00    +0.000 C 
ATOM     11  O1  UNL     1     -17.483  -7.506 -26.218  0.00  0.00    +0.000 OA
ATOM     12  H1  UNL     1     -16.435  -6.105 -24.272  0.00  0.00    +0.000 HD
ENDBRANCH   5   9
ENDBRANCH   1   5
BRANCH   3  13
ATOM     13  C6  UNL     1     -22.858  -5.644 -26.456  0.00  0.00    +0.000 C 
BRANCH  13  14
ATOM     14  C7  UNL     1     -23.078  -4.690 -25.311  0.00  0.00    +0.000 A 
ATOM     15  C8  UNL     1     -22.299  -4.777 -24.148  0.00  0.00    +0.000 A 
ATOM     16  C9  UNL     1     -22.522  -3.905 -23.081  0.00  0.00    +0.000 A 
ATOM     17  C10 UNL     1     -23.528  -2.944 -23.162  0.00  0.00    +0.000 A 
ATOM     18  C11 UNL     1     -24.317  -2.857 -24.309  0.00  0.00    +0.000 A 
ATOM     19  C12 UNL     1     -24.096  -3.728 -25.376  0.00  0.00    +0.000 A 
ENDBRANCH  13  14
ENDBRANCH   3  13
TORSDOF 4
ENDMDL
