MODEL 1
REMARK VINA RESULT:    -4.015      0.000      0.000
REMARK INTER + INTRA:          -5.554
REMARK INTER:                  -5.062
REMARK INTRA:                  -0.492
REMARK UNBOUND:                -0.601
REMARK  Name = /home/anacleto/Desktop/manuscript_Mpro/naturecomm/supplementary_file_S2/6-chemical-library/molecular_docking/3D_ligand_structure/751.pdb
REMARK  4 active torsions:
REMARK  status: ('A' for Active; 'I' for Inactive)
REMARK    1  A    between atoms: N3_5  and  C3_6
REMARK    2  A    between atoms: C3_6  and  C4_7
REMARK    3  A    between atoms: N4_9  and  C5_10
REMARK    4  A    between atoms: C5_10  and  C6_11
REMARK                            x       y       z     vdW  Elec       q    Type
REMARK                         _______ _______ _______ _____ _____    ______ ____
ROOT
ATOM      1  C4  UNL     1     -22.899   6.313 -39.218  0.00  0.00    +0.000 C 
ATOM      2  O1  UNL     1     -22.613   6.501 -40.396  0.00  0.00    +0.000 OA
ATOM      3  N4  UNL     1     -24.057   5.669 -38.843  0.00  0.00    +0.000 N 
ATOM      4  H5  UNL     1     -24.381   5.676 -37.880  0.00  0.00    +0.000 HD
ENDROOT
BRANCH   1   5
ATOM      5  C3  UNL     1     -22.052   6.746 -38.045  0.00  0.00    +0.000 C 
BRANCH   5  10
ATOM      6  N1  UNL     1     -23.546   8.623 -37.718  0.00  0.00    +0.000 NA
ATOM      7  N2  UNL     1     -23.522   9.831 -37.166  0.00  0.00    +0.000 NA
ATOM      8  C1  UNL     1     -22.258  10.054 -36.694  0.00  0.00    +0.000 A 
ATOM      9  C2  UNL     1     -21.469   8.957 -36.953  0.00  0.00    +0.000 A 
ATOM     10  N3  UNL     1     -22.303   8.107 -37.621  0.00  0.00    +0.000 N 
ENDBRANCH   5  10
ENDBRANCH   1   5
BRANCH   3  11
ATOM     11  C5  UNL     1     -25.043   5.270 -39.820  0.00  0.00    +0.000 C 
BRANCH  11  12
ATOM     12  C6  UNL     1     -26.000   4.321 -39.168  0.00  0.00    +0.000 A 
ATOM     13  C7  UNL     1     -25.715   3.038 -38.740  0.00  0.00    +0.000 A 
ATOM     14  S1  UNL     1     -27.110   2.317 -38.051  0.00  0.00    +0.000 S 
ATOM     15  C8  UNL     1     -27.987   3.753 -38.369  0.00  0.00    +0.000 A 
ATOM     16  N5  UNL     1     -27.318   4.729 -38.945  0.00  0.00    +0.000 NA
ENDBRANCH  11  12
ENDBRANCH   3  11
TORSDOF 4
ENDMDL
MODEL 2
REMARK VINA RESULT:    -3.955      4.312      6.745
REMARK INTER + INTRA:          -5.480
REMARK INTER:                  -4.885
REMARK INTRA:                  -0.596
REMARK UNBOUND:                -0.601
REMARK  Name = /home/anacleto/Desktop/manuscript_Mpro/naturecomm/supplementary_file_S2/6-chemical-library/molecular_docking/3D_ligand_structure/751.pdb
REMARK  4 active torsions:
REMARK  status: ('A' for Active; 'I' for Inactive)
REMARK    1  A    between atoms: N3_5  and  C3_6
REMARK    2  A    between atoms: C3_6  and  C4_7
REMARK    3  A    between atoms: N4_9  and  C5_10
REMARK    4  A    between atoms: C5_10  and  C6_11
REMARK                            x       y       z     vdW  Elec       q    Type
REMARK                         _______ _______ _______ _____ _____    ______ ____
ROOT
ATOM      1  C4  UNL     1     -20.445  10.089 -38.011  0.00  0.00    +0.000 C 
ATOM      2  O1  UNL     1     -20.470  11.073 -38.744  0.00  0.00    +0.000 OA
ATOM      3  N4  UNL     1     -19.341   9.274 -37.922  0.00  0.00    +0.000 N 
ATOM      4  H5  UNL     1     -19.384   8.368 -37.464  0.00  0.00    +0.000 HD
ENDROOT
BRANCH   1   5
ATOM      5  C3  UNL     1     -21.587   9.645 -37.127  0.00  0.00    +0.000 C 
BRANCH   5  10
ATOM      6  N1  UNL     1     -21.656   7.279 -37.638  0.00  0.00    +0.000 NA
ATOM      7  N2  UNL     1     -22.541   6.370 -38.030  0.00  0.00    +0.000 NA
ATOM      8  C1  UNL     1     -23.736   7.003 -38.232  0.00  0.00    +0.000 A 
ATOM      9  C2  UNL     1     -23.599   8.344 -37.955  0.00  0.00    +0.000 A 
ATOM     10  N3  UNL     1     -22.280   8.475 -37.623  0.00  0.00    +0.000 N 
ENDBRANCH   5  10
ENDBRANCH   1   5
BRANCH   3  11
ATOM     11  C5  UNL     1     -18.186   9.479 -38.767  0.00  0.00    +0.000 C 
BRANCH  11  12
ATOM     12  C6  UNL     1     -18.163   8.403 -39.808  0.00  0.00    +0.000 A 
ATOM     13  C7  UNL     1     -17.580   8.489 -41.059  0.00  0.00    +0.000 A 
ATOM     14  S1  UNL     1     -17.793   7.020 -41.916  0.00  0.00    +0.000 S 
ATOM     15  C8  UNL     1     -18.640   6.379 -40.572  0.00  0.00    +0.000 A 
ATOM     16  N5  UNL     1     -18.771   7.176 -39.533  0.00  0.00    +0.000 NA
ENDBRANCH  11  12
ENDBRANCH   3  11
TORSDOF 4
ENDMDL
MODEL 3
REMARK VINA RESULT:    -3.929      2.889      6.413
REMARK INTER + INTRA:          -5.449
REMARK INTER:                  -4.918
REMARK INTRA:                  -0.530
REMARK UNBOUND:                -0.601
REMARK  Name = /home/anacleto/Desktop/manuscript_Mpro/naturecomm/supplementary_file_S2/6-chemical-library/molecular_docking/3D_ligand_structure/751.pdb
REMARK  4 active torsions:
REMARK  status: ('A' for Active; 'I' for Inactive)
REMARK    1  A    between atoms: N3_5  and  C3_6
REMARK    2  A    between atoms: C3_6  and  C4_7
REMARK    3  A    between atoms: N4_9  and  C5_10
REMARK    4  A    between atoms: C5_10  and  C6_11
REMARK                            x       y       z     vdW  Elec       q    Type
REMARK                         _______ _______ _______ _____ _____    ______ ____
ROOT
ATOM      1  C4  UNL     1     -24.619   5.613 -39.455  0.00  0.00    +0.000 C 
ATOM      2  O1  UNL     1     -23.948   5.331 -40.443  0.00  0.00    +0.000 OA
ATOM      3  N4  UNL     1     -24.043   6.012 -38.271  0.00  0.00    +0.000 N 
ATOM      4  H5  UNL     1     -24.579   6.066 -37.410  0.00  0.00    +0.000 HD
ENDROOT
BRANCH   1   5
ATOM      5  C3  UNL     1     -26.128   5.564 -39.397  0.00  0.00    +0.000 C 
BRANCH   5  10
ATOM      6  N1  UNL     1     -25.845   3.396 -38.356  0.00  0.00    +0.000 NA
ATOM      7  N2  UNL     1     -26.592   2.360 -37.994  0.00  0.00    +0.000 NA
ATOM      8  C1  UNL     1     -27.881   2.614 -38.375  0.00  0.00    +0.000 A 
ATOM      9  C2  UNL     1     -27.945   3.845 -38.988  0.00  0.00    +0.000 A 
ATOM     10  N3  UNL     1     -26.650   4.278 -38.984  0.00  0.00    +0.000 N 
ENDBRANCH   5  10
ENDBRANCH   1   5
BRANCH   3  11
ATOM     11  C5  UNL     1     -22.608   6.023 -38.102  0.00  0.00    +0.000 C 
BRANCH  11  12
ATOM     12  C6  UNL     1     -22.165   7.439 -37.898  0.00  0.00    +0.000 A 
ATOM     13  C7  UNL     1     -22.988   8.542 -37.774  0.00  0.00    +0.000 A 
ATOM     14  S1  UNL     1     -22.051   9.961 -37.554  0.00  0.00    +0.000 S 
ATOM     15  C8  UNL     1     -20.627   9.013 -37.640  0.00  0.00    +0.000 A 
ATOM     16  N5  UNL     1     -20.799   7.720 -37.816  0.00  0.00    +0.000 NA
ENDBRANCH  11  12
ENDBRANCH   3  11
TORSDOF 4
ENDMDL
MODEL 4
REMARK VINA RESULT:    -3.899     15.213     16.012
REMARK INTER + INTRA:          -5.411
REMARK INTER:                  -4.861
REMARK INTRA:                  -0.550
REMARK UNBOUND:                -0.601
REMARK  Name = /home/anacleto/Desktop/manuscript_Mpro/naturecomm/supplementary_file_S2/6-chemical-library/molecular_docking/3D_ligand_structure/751.pdb
REMARK  4 active torsions:
REMARK  status: ('A' for Active; 'I' for Inactive)
REMARK    1  A    between atoms: N3_5  and  C3_6
REMARK    2  A    between atoms: C3_6  and  C4_7
REMARK    3  A    between atoms: N4_9  and  C5_10
REMARK    4  A    between atoms: C5_10  and  C6_11
REMARK                            x       y       z     vdW  Elec       q    Type
REMARK                         _______ _______ _______ _____ _____    ______ ____
ROOT
ATOM      1  C4  UNL     1     -20.157  -4.975 -28.520  0.00  0.00    +0.000 C 
ATOM      2  O1  UNL     1     -20.053  -4.797 -29.730  0.00  0.00    +0.000 OA
ATOM      3  N4  UNL     1     -21.101  -4.316 -27.765  0.00  0.00    +0.000 N 
ATOM      4  H5  UNL     1     -21.069  -4.322 -26.750  0.00  0.00    +0.000 HD
ENDROOT
BRANCH   1   5
ATOM      5  C3  UNL     1     -19.294  -5.912 -27.709  0.00  0.00    +0.000 C 
BRANCH   5  10
ATOM      6  N1  UNL     1     -18.437  -3.890 -26.687  0.00  0.00    +0.000 NA
ATOM      7  N2  UNL     1     -17.725  -3.537 -25.624  0.00  0.00    +0.000 NA
ATOM      8  C1  UNL     1     -17.352  -4.676 -24.967  0.00  0.00    +0.000 A 
ATOM      9  C2  UNL     1     -17.847  -5.774 -25.633  0.00  0.00    +0.000 A 
ATOM     10  N3  UNL     1     -18.486  -5.238 -26.714  0.00  0.00    +0.000 N 
ENDBRANCH   5  10
ENDBRANCH   1   5
BRANCH   3  11
ATOM     11  C5  UNL     1     -21.954  -3.305 -28.346  0.00  0.00    +0.000 C 
BRANCH  11  12
ATOM     12  C6  UNL     1     -23.376  -3.632 -28.010  0.00  0.00    +0.000 A 
ATOM     13  C7  UNL     1     -24.447  -3.611 -28.884  0.00  0.00    +0.000 A 
ATOM     14  S1  UNL     1     -25.888  -4.058 -28.068  0.00  0.00    +0.000 S 
ATOM     15  C8  UNL     1     -24.989  -4.245 -26.621  0.00  0.00    +0.000 A 
ATOM     16  N5  UNL     1     -23.698  -4.004 -26.703  0.00  0.00    +0.000 NA
ENDBRANCH  11  12
ENDBRANCH   3  11
TORSDOF 4
ENDMDL
MODEL 5
REMARK VINA RESULT:    -3.844      1.964      2.130
REMARK INTER + INTRA:          -5.344
REMARK INTER:                  -5.050
REMARK INTRA:                  -0.294
REMARK UNBOUND:                -0.601
REMARK  Name = /home/anacleto/Desktop/manuscript_Mpro/naturecomm/supplementary_file_S2/6-chemical-library/molecular_docking/3D_ligand_structure/751.pdb
REMARK  4 active torsions:
REMARK  status: ('A' for Active; 'I' for Inactive)
REMARK    1  A    between atoms: N3_5  and  C3_6
REMARK    2  A    between atoms: C3_6  and  C4_7
REMARK    3  A    between atoms: N4_9  and  C5_10
REMARK    4  A    between atoms: C5_10  and  C6_11
REMARK                            x       y       z     vdW  Elec       q    Type
REMARK                         _______ _______ _______ _____ _____    ______ ____
ROOT
ATOM      1  C4  UNL     1     -23.618   6.558 -38.335  0.00  0.00    +0.000 C 
ATOM      2  O1  UNL     1     -24.180   7.618 -38.078  0.00  0.00    +0.000 OA
ATOM      3  N4  UNL     1     -24.216   5.582 -39.099  0.00  0.00    +0.000 N 
ATOM      4  H5  UNL     1     -23.833   4.643 -39.158  0.00  0.00    +0.000 HD
ENDROOT
BRANCH   1   5
ATOM      5  C3  UNL     1     -22.232   6.181 -37.866  0.00  0.00    +0.000 C 
BRANCH   5  10
ATOM      6  N1  UNL     1     -20.822   8.124 -37.542  0.00  0.00    +0.000 NA
ATOM      7  N2  UNL     1     -19.799   8.722 -38.140  0.00  0.00    +0.000 NA
ATOM      8  C1  UNL     1     -19.519   8.034 -39.288  0.00  0.00    +0.000 A 
ATOM      9  C2  UNL     1     -20.386   6.973 -39.412  0.00  0.00    +0.000 A 
ATOM     10  N3  UNL     1     -21.201   7.089 -38.321  0.00  0.00    +0.000 N 
ENDBRANCH   5  10
ENDBRANCH   1   5
BRANCH   3  11
ATOM     11  C5  UNL     1     -25.581   5.718 -39.555  0.00  0.00    +0.000 C 
BRANCH  11  12
ATOM     12  C6  UNL     1     -26.375   4.566 -39.022  0.00  0.00    +0.000 A 
ATOM     13  C7  UNL     1     -25.878   3.328 -38.660  0.00  0.00    +0.000 A 
ATOM     14  S1  UNL     1     -27.146   2.318 -38.102  0.00  0.00    +0.000 S 
ATOM     15  C8  UNL     1     -28.259   3.590 -38.381  0.00  0.00    +0.000 A 
ATOM     16  N5  UNL     1     -27.755   4.710 -38.854  0.00  0.00    +0.000 NA
ENDBRANCH  11  12
ENDBRANCH   3  11
TORSDOF 4
ENDMDL
MODEL 6
REMARK VINA RESULT:    -3.828     15.908     16.771
REMARK INTER + INTRA:          -5.323
REMARK INTER:                  -4.747
REMARK INTRA:                  -0.577
REMARK UNBOUND:                -0.601
REMARK  Name = /home/anacleto/Desktop/manuscript_Mpro/naturecomm/supplementary_file_S2/6-chemical-library/molecular_docking/3D_ligand_structure/751.pdb
REMARK  4 active torsions:
REMARK  status: ('A' for Active; 'I' for Inactive)
REMARK    1  A    between atoms: N3_5  and  C3_6
REMARK    2  A    between atoms: C3_6  and  C4_7
REMARK    3  A    between atoms: N4_9  and  C5_10
REMARK    4  A    between atoms: C5_10  and  C6_11
REMARK                            x       y       z     vdW  Elec       q    Type
REMARK                         _______ _______ _______ _____ _____    ______ ____
ROOT
ATOM      1  C4  UNL     1     -21.206  -4.974 -28.395  0.00  0.00    +0.000 C 
ATOM      2  O1  UNL     1     -21.872  -5.890 -28.866  0.00  0.00    +0.000 OA
ATOM      3  N4  UNL     1     -21.755  -4.029 -27.558  0.00  0.00    +0.000 N 
ATOM      4  H5  UNL     1     -21.256  -3.177 -27.318  0.00  0.00    +0.000 HD
ENDROOT
BRANCH   1   5
ATOM      5  C3  UNL     1     -19.734  -4.756 -28.656  0.00  0.00    +0.000 C 
BRANCH   5  10
ATOM      6  N1  UNL     1     -18.585  -3.481 -26.948  0.00  0.00    +0.000 NA
ATOM      7  N2  UNL     1     -17.962  -3.695 -25.795  0.00  0.00    +0.000 NA
ATOM      8  C1  UNL     1     -17.953  -5.043 -25.564  0.00  0.00    +0.000 A 
ATOM      9  C2  UNL     1     -18.592  -5.691 -26.596  0.00  0.00    +0.000 A 
ATOM     10  N3  UNL     1     -18.937  -4.683 -27.450  0.00  0.00    +0.000 N 
ENDBRANCH   5  10
ENDBRANCH   1   5
BRANCH   3  11
ATOM     11  C5  UNL     1     -23.171  -4.013 -27.271  0.00  0.00    +0.000 C 
BRANCH  11  12
ATOM     12  C6  UNL     1     -23.357  -4.126 -25.790  0.00  0.00    +0.000 A 
ATOM     13  C7  UNL     1     -24.422  -3.634 -25.060  0.00  0.00    +0.000 A 
ATOM     14  S1  UNL     1     -24.220  -3.994 -23.396  0.00  0.00    +0.000 S 
ATOM     15  C8  UNL     1     -22.739  -4.773 -23.763  0.00  0.00    +0.000 A 
ATOM     16  N5  UNL     1     -22.388  -4.788 -25.030  0.00  0.00    +0.000 NA
ENDBRANCH  11  12
ENDBRANCH   3  11
TORSDOF 4
ENDMDL
MODEL 7
REMARK VINA RESULT:    -3.753     17.524     18.584
REMARK INTER + INTRA:          -5.231
REMARK INTER:                  -4.631
REMARK INTRA:                  -0.601
REMARK UNBOUND:                -0.601
REMARK  Name = /home/anacleto/Desktop/manuscript_Mpro/naturecomm/supplementary_file_S2/6-chemical-library/molecular_docking/3D_ligand_structure/751.pdb
REMARK  4 active torsions:
REMARK  status: ('A' for Active; 'I' for Inactive)
REMARK    1  A    between atoms: N3_5  and  C3_6
REMARK    2  A    between atoms: C3_6  and  C4_7
REMARK    3  A    between atoms: N4_9  and  C5_10
REMARK    4  A    between atoms: C5_10  and  C6_11
REMARK                            x       y       z     vdW  Elec       q    Type
REMARK                         _______ _______ _______ _____ _____    ______ ____
ROOT
ATOM      1  C4  UNL     1     -23.648  -3.915 -23.608  0.00  0.00    +0.000 C 
ATOM      2  O1  UNL     1     -23.705  -2.690 -23.570  0.00  0.00    +0.000 OA
ATOM      3  N4  UNL     1     -23.910  -4.621 -24.761  0.00  0.00    +0.000 N 
ATOM      4  H5  UNL     1     -24.043  -5.628 -24.748  0.00  0.00    +0.000 HD
ENDROOT
BRANCH   1   5
ATOM      5  C3  UNL     1     -23.295  -4.799 -22.435  0.00  0.00    +0.000 C 
BRANCH   5  10
ATOM      6  N1  UNL     1     -25.669  -5.185 -22.156  0.00  0.00    +0.000 NA
ATOM      7  N2  UNL     1     -26.501  -5.640 -21.226  0.00  0.00    +0.000 NA
ATOM      8  C1  UNL     1     -25.771  -5.920 -20.105  0.00  0.00    +0.000 A 
ATOM      9  C2  UNL     1     -24.444  -5.639 -20.338  0.00  0.00    +0.000 A 
ATOM     10  N3  UNL     1     -24.434  -5.152 -21.614  0.00  0.00    +0.000 N 
ENDBRANCH   5  10
ENDBRANCH   1   5
BRANCH   3  11
ATOM     11  C5  UNL     1     -24.362  -3.957 -25.961  0.00  0.00    +0.000 C 
BRANCH  11  12
ATOM     12  C6  UNL     1     -25.785  -4.350 -26.213  0.00  0.00    +0.000 A 
ATOM     13  C7  UNL     1     -26.434  -5.450 -25.685  0.00  0.00    +0.000 A 
ATOM     14  S1  UNL     1     -28.054  -5.509 -26.243  0.00  0.00    +0.000 S 
ATOM     15  C8  UNL     1     -27.778  -4.077 -27.142  0.00  0.00    +0.000 A 
ATOM     16  N5  UNL     1     -26.572  -3.558 -27.054  0.00  0.00    +0.000 NA
ENDBRANCH  11  12
ENDBRANCH   3  11
TORSDOF 4
ENDMDL
MODEL 8
REMARK VINA RESULT:    -3.749     15.772     16.853
REMARK INTER + INTRA:          -5.226
REMARK INTER:                  -4.730
REMARK INTRA:                  -0.497
REMARK UNBOUND:                -0.601
REMARK  Name = /home/anacleto/Desktop/manuscript_Mpro/naturecomm/supplementary_file_S2/6-chemical-library/molecular_docking/3D_ligand_structure/751.pdb
REMARK  4 active torsions:
REMARK  status: ('A' for Active; 'I' for Inactive)
REMARK    1  A    between atoms: N3_5  and  C3_6
REMARK    2  A    between atoms: C3_6  and  C4_7
REMARK    3  A    between atoms: N4_9  and  C5_10
REMARK    4  A    between atoms: C5_10  and  C6_11
REMARK                            x       y       z     vdW  Elec       q    Type
REMARK                         _______ _______ _______ _____ _____    ______ ____
ROOT
ATOM      1  C4  UNL     1     -24.369  -4.058 -27.043  0.00  0.00    +0.000 C 
ATOM      2  O1  UNL     1     -24.928  -4.130 -28.133  0.00  0.00    +0.000 OA
ATOM      3  N4  UNL     1     -23.034  -3.746 -26.929  0.00  0.00    +0.000 N 
ATOM      4  H5  UNL     1     -22.533  -3.866 -26.053  0.00  0.00    +0.000 HD
ENDROOT
BRANCH   1   5
ATOM      5  C3  UNL     1     -25.043  -4.294 -25.712  0.00  0.00    +0.000 C 
BRANCH   5  10
ATOM      6  N1  UNL     1     -23.194  -4.997 -24.314  0.00  0.00    +0.000 NA
ATOM      7  N2  UNL     1     -22.476  -4.526 -23.302  0.00  0.00    +0.000 NA
ATOM      8  C1  UNL     1     -22.989  -3.308 -22.951  0.00  0.00    +0.000 A 
ATOM      9  C2  UNL     1     -24.053  -3.004 -23.768  0.00  0.00    +0.000 A 
ATOM     10  N3  UNL     1     -24.166  -4.098 -24.577  0.00  0.00    +0.000 N 
ENDBRANCH   5  10
ENDBRANCH   1   5
BRANCH   3  11
ATOM     11  C5  UNL     1     -22.198  -3.585 -28.097  0.00  0.00    +0.000 C 
BRANCH  11  12
ATOM     12  C6  UNL     1     -21.050  -4.541 -27.994  0.00  0.00    +0.000 A 
ATOM     13  C7  UNL     1     -21.057  -5.871 -28.371  0.00  0.00    +0.000 A 
ATOM     14  S1  UNL     1     -19.525  -6.580 -28.076  0.00  0.00    +0.000 S 
ATOM     15  C8  UNL     1     -18.965  -5.079 -27.471  0.00  0.00    +0.000 A 
ATOM     16  N5  UNL     1     -19.832  -4.089 -27.477  0.00  0.00    +0.000 NA
ENDBRANCH  11  12
ENDBRANCH   3  11
TORSDOF 4
ENDMDL
MODEL 9
REMARK VINA RESULT:    -3.737     14.952     15.839
REMARK INTER + INTRA:          -5.211
REMARK INTER:                  -4.738
REMARK INTRA:                  -0.474
REMARK UNBOUND:                -0.601
REMARK  Name = /home/anacleto/Desktop/manuscript_Mpro/naturecomm/supplementary_file_S2/6-chemical-library/molecular_docking/3D_ligand_structure/751.pdb
REMARK  4 active torsions:
REMARK  status: ('A' for Active; 'I' for Inactive)
REMARK    1  A    between atoms: N3_5  and  C3_6
REMARK    2  A    between atoms: C3_6  and  C4_7
REMARK    3  A    between atoms: N4_9  and  C5_10
REMARK    4  A    between atoms: C5_10  and  C6_11
REMARK                            x       y       z     vdW  Elec       q    Type
REMARK                         _______ _______ _______ _____ _____    ______ ____
ROOT
ATOM      1  C4  UNL     1     -23.964  -3.983 -28.692  0.00  0.00    +0.000 C 
ATOM      2  O1  UNL     1     -24.367  -2.986 -29.283  0.00  0.00    +0.000 OA
ATOM      3  N4  UNL     1     -24.567  -4.444 -27.544  0.00  0.00    +0.000 N 
ATOM      4  H5  UNL     1     -24.129  -5.149 -26.959  0.00  0.00    +0.000 HD
ENDROOT
BRANCH   1   5
ATOM      5  C3  UNL     1     -22.784  -4.822 -29.123  0.00  0.00    +0.000 C 
BRANCH   5  10
ATOM      6  N1  UNL     1     -21.514  -4.981 -27.067  0.00  0.00    +0.000 NA
ATOM      7  N2  UNL     1     -20.284  -4.731 -26.635  0.00  0.00    +0.000 NA
ATOM      8  C1  UNL     1     -19.574  -4.189 -27.670  0.00  0.00    +0.000 A 
ATOM      9  C2  UNL     1     -20.378  -4.101 -28.783  0.00  0.00    +0.000 A 
ATOM     10  N3  UNL     1     -21.585  -4.573 -28.352  0.00  0.00    +0.000 N 
ENDBRANCH   5  10
ENDBRANCH   1   5
BRANCH   3  11
ATOM     11  C5  UNL     1     -25.649  -3.716 -26.921  0.00  0.00    +0.000 C 
BRANCH  11  12
ATOM     12  C6  UNL     1     -26.618  -4.703 -26.349  0.00  0.00    +0.000 A 
ATOM     13  C7  UNL     1     -26.362  -5.604 -25.332  0.00  0.00    +0.000 A 
ATOM     14  S1  UNL     1     -27.761  -6.538 -24.999  0.00  0.00    +0.000 S 
ATOM     15  C8  UNL     1     -28.601  -5.684 -26.224  0.00  0.00    +0.000 A 
ATOM     16  N5  UNL     1     -27.919  -4.754 -26.858  0.00  0.00    +0.000 NA
ENDBRANCH  11  12
ENDBRANCH   3  11
TORSDOF 4
ENDMDL
