MODEL 1
REMARK VINA RESULT:    -4.519      0.000      0.000
REMARK INTER + INTRA:          -4.519
REMARK INTER:                  -4.519
REMARK INTRA:                   0.000
REMARK UNBOUND:                 0.000
REMARK  Name = /home/anacleto/Desktop/manuscript_Mpro/naturecomm/supplementary_file_S2/6-chemical-library/molecular_docking/3D_ligand_structure/190.pdb
REMARK  0 active torsions:
REMARK  status: ('A' for Active; 'I' for Inactive)
REMARK                            x       y       z     vdW  Elec       q    Type
REMARK                         _______ _______ _______ _____ _____    ______ ____
ROOT
ATOM      1  C1  UNL     1     -35.987  12.573 -31.035  0.00  0.00    +0.000 A 
ATOM      2  C2  UNL     1     -36.928  11.552 -31.164  0.00  0.00    +0.000 A 
ATOM      3  C3  UNL     1     -36.739  10.548 -32.113  0.00  0.00    +0.000 A 
ATOM      4  C4  UNL     1     -35.609  10.563 -32.936  0.00  0.00    +0.000 A 
ATOM      5  C5  UNL     1     -34.661  11.584 -32.811  0.00  0.00    +0.000 A 
ATOM      6  C6  UNL     1     -34.853  12.590 -31.858  0.00  0.00    +0.000 A 
ATOM      7  C7  UNL     1     -33.480  11.616 -33.658  0.00  0.00    +0.000 A 
ATOM      8  C8  UNL     1     -32.617  12.617 -33.486  0.00  0.00    +0.000 A 
ATOM      9  O1  UNL     1     -32.770  13.643 -32.546  0.00  0.00    +0.000 OA
ATOM     10  C9  UNL     1     -33.857  13.682 -31.712  0.00  0.00    +0.000 A 
ATOM     11  O2  UNL     1     -34.007  14.572 -30.883  0.00  0.00    +0.000 OA
ENDROOT
TORSDOF 0
ENDMDL
MODEL 2
REMARK VINA RESULT:    -4.485      0.941      2.471
REMARK INTER + INTRA:          -4.485
REMARK INTER:                  -4.485
REMARK INTRA:                   0.000
REMARK UNBOUND:                 0.000
REMARK  Name = /home/anacleto/Desktop/manuscript_Mpro/naturecomm/supplementary_file_S2/6-chemical-library/molecular_docking/3D_ligand_structure/190.pdb
REMARK  0 active torsions:
REMARK  status: ('A' for Active; 'I' for Inactive)
REMARK                            x       y       z     vdW  Elec       q    Type
REMARK                         _______ _______ _______ _____ _____    ______ ____
ROOT
ATOM      1  C1  UNL     1     -35.327  10.793 -32.958  0.00  0.00    +0.000 A 
ATOM      2  C2  UNL     1     -36.522  10.443 -32.329  0.00  0.00    +0.000 A 
ATOM      3  C3  UNL     1     -37.011  11.224 -31.282  0.00  0.00    +0.000 A 
ATOM      4  C4  UNL     1     -36.307  12.355 -30.861  0.00  0.00    +0.000 A 
ATOM      5  C5  UNL     1     -35.108  12.712 -31.487  0.00  0.00    +0.000 A 
ATOM      6  C6  UNL     1     -34.619  11.927 -32.537  0.00  0.00    +0.000 A 
ATOM      7  C7  UNL     1     -34.361  13.885 -31.063  0.00  0.00    +0.000 A 
ATOM      8  C8  UNL     1     -33.227  14.167 -31.703  0.00  0.00    +0.000 A 
ATOM      9  O1  UNL     1     -32.703  13.410 -32.757  0.00  0.00    +0.000 OA
ATOM     10  C9  UNL     1     -33.348  12.291 -33.214  0.00  0.00    +0.000 A 
ATOM     11  O2  UNL     1     -32.904  11.617 -34.136  0.00  0.00    +0.000 OA
ENDROOT
TORSDOF 0
ENDMDL
MODEL 3
REMARK VINA RESULT:    -4.448      1.514      3.581
REMARK INTER + INTRA:          -4.448
REMARK INTER:                  -4.448
REMARK INTRA:                   0.000
REMARK UNBOUND:                 0.000
REMARK  Name = /home/anacleto/Desktop/manuscript_Mpro/naturecomm/supplementary_file_S2/6-chemical-library/molecular_docking/3D_ligand_structure/190.pdb
REMARK  0 active torsions:
REMARK  status: ('A' for Active; 'I' for Inactive)
REMARK                            x       y       z     vdW  Elec       q    Type
REMARK                         _______ _______ _______ _____ _____    ______ ____
ROOT
ATOM      1  C1  UNL     1     -34.782  12.587 -31.960  0.00  0.00    +0.000 A 
ATOM      2  C2  UNL     1     -34.626  11.586 -32.917  0.00  0.00    +0.000 A 
ATOM      3  C3  UNL     1     -35.541  10.535 -32.981  0.00  0.00    +0.000 A 
ATOM      4  C4  UNL     1     -36.614  10.483 -32.087  0.00  0.00    +0.000 A 
ATOM      5  C5  UNL     1     -36.777  11.484 -31.124  0.00  0.00    +0.000 A 
ATOM      6  C6  UNL     1     -35.858  12.537 -31.062  0.00  0.00    +0.000 A 
ATOM      7  C7  UNL     1     -37.887  11.447 -30.185  0.00  0.00    +0.000 A 
ATOM      8  C8  UNL     1     -37.982  12.432 -29.294  0.00  0.00    +0.000 A 
ATOM      9  O1  UNL     1     -37.086  13.503 -29.197  0.00  0.00    +0.000 OA
ATOM     10  C9  UNL     1     -36.015  13.609 -30.045  0.00  0.00    +0.000 A 
ATOM     11  O2  UNL     1     -35.221  14.539 -29.976  0.00  0.00    +0.000 OA
ENDROOT
TORSDOF 0
ENDMDL
MODEL 4
REMARK VINA RESULT:    -4.341     13.669     15.713
REMARK INTER + INTRA:          -4.341
REMARK INTER:                  -4.341
REMARK INTRA:                   0.000
REMARK UNBOUND:                 0.000
REMARK  Name = /home/anacleto/Desktop/manuscript_Mpro/naturecomm/supplementary_file_S2/6-chemical-library/molecular_docking/3D_ligand_structure/190.pdb
REMARK  0 active torsions:
REMARK  status: ('A' for Active; 'I' for Inactive)
REMARK                            x       y       z     vdW  Elec       q    Type
REMARK                         _______ _______ _______ _____ _____    ______ ____
ROOT
ATOM      1  C1  UNL     1     -20.367  10.082 -37.857  0.00  0.00    +0.000 A 
ATOM      2  C2  UNL     1     -19.026  10.071 -38.240  0.00  0.00    +0.000 A 
ATOM      3  C3  UNL     1     -18.455   8.903 -38.744  0.00  0.00    +0.000 A 
ATOM      4  C4  UNL     1     -19.224   7.742 -38.868  0.00  0.00    +0.000 A 
ATOM      5  C5  UNL     1     -20.569   7.746 -38.486  0.00  0.00    +0.000 A 
ATOM      6  C6  UNL     1     -21.140   8.919 -37.979  0.00  0.00    +0.000 A 
ATOM      7  C7  UNL     1     -21.385   6.548 -38.606  0.00  0.00    +0.000 A 
ATOM      8  C8  UNL     1     -22.660   6.621 -38.224  0.00  0.00    +0.000 A 
ATOM      9  O1  UNL     1     -23.269   7.773 -37.714  0.00  0.00    +0.000 OA
ATOM     10  C9  UNL     1     -22.567   8.940 -37.569  0.00  0.00    +0.000 A 
ATOM     11  O2  UNL     1     -23.084   9.959 -37.125  0.00  0.00    +0.000 OA
ENDROOT
TORSDOF 0
ENDMDL
MODEL 5
REMARK VINA RESULT:    -4.202     13.213     15.620
REMARK INTER + INTRA:          -4.202
REMARK INTER:                  -4.202
REMARK INTRA:                   0.000
REMARK UNBOUND:                 0.000
REMARK  Name = /home/anacleto/Desktop/manuscript_Mpro/naturecomm/supplementary_file_S2/6-chemical-library/molecular_docking/3D_ligand_structure/190.pdb
REMARK  0 active torsions:
REMARK  status: ('A' for Active; 'I' for Inactive)
REMARK                            x       y       z     vdW  Elec       q    Type
REMARK                         _______ _______ _______ _____ _____    ______ ____
ROOT
ATOM      1  C1  UNL     1     -20.425   7.221 -38.896  0.00  0.00    +0.000 A 
ATOM      2  C2  UNL     1     -19.098   7.605 -39.083  0.00  0.00    +0.000 A 
ATOM      3  C3  UNL     1     -18.667   8.857 -38.646  0.00  0.00    +0.000 A 
ATOM      4  C4  UNL     1     -19.563   9.730 -38.022  0.00  0.00    +0.000 A 
ATOM      5  C5  UNL     1     -20.896   9.352 -37.831  0.00  0.00    +0.000 A 
ATOM      6  C6  UNL     1     -21.326   8.095 -38.270  0.00  0.00    +0.000 A 
ATOM      7  C7  UNL     1     -21.843  10.246 -37.184  0.00  0.00    +0.000 A 
ATOM      8  C8  UNL     1     -23.097   9.822 -37.034  0.00  0.00    +0.000 A 
ATOM      9  O1  UNL     1     -23.568   8.574 -37.458  0.00  0.00    +0.000 OA
ATOM     10  C9  UNL     1     -22.738   7.677 -38.076  0.00  0.00    +0.000 A 
ATOM     11  O2  UNL     1     -23.132   6.579 -38.453  0.00  0.00    +0.000 OA
ENDROOT
TORSDOF 0
ENDMDL
MODEL 6
REMARK VINA RESULT:    -4.155     15.345     17.060
REMARK INTER + INTRA:          -4.155
REMARK INTER:                  -4.155
REMARK INTRA:                   0.000
REMARK UNBOUND:                 0.000
REMARK  Name = /home/anacleto/Desktop/manuscript_Mpro/naturecomm/supplementary_file_S2/6-chemical-library/molecular_docking/3D_ligand_structure/190.pdb
REMARK  0 active torsions:
REMARK  status: ('A' for Active; 'I' for Inactive)
REMARK                            x       y       z     vdW  Elec       q    Type
REMARK                         _______ _______ _______ _____ _____    ______ ____
ROOT
ATOM      1  C1  UNL     1     -20.795   6.854 -38.732  0.00  0.00    +0.000 A 
ATOM      2  C2  UNL     1     -21.873   7.136 -37.894  0.00  0.00    +0.000 A 
ATOM      3  C3  UNL     1     -21.937   8.361 -37.230  0.00  0.00    +0.000 A 
ATOM      4  C4  UNL     1     -20.922   9.307 -37.402  0.00  0.00    +0.000 A 
ATOM      5  C5  UNL     1     -19.838   9.030 -38.241  0.00  0.00    +0.000 A 
ATOM      6  C6  UNL     1     -19.776   7.801 -38.906  0.00  0.00    +0.000 A 
ATOM      7  C7  UNL     1     -18.772  10.001 -38.433  0.00  0.00    +0.000 A 
ATOM      8  C8  UNL     1     -17.769   9.674 -39.246  0.00  0.00    +0.000 A 
ATOM      9  O1  UNL     1     -17.669   8.456 -39.930  0.00  0.00    +0.000 OA
ATOM     10  C9  UNL     1     -18.632   7.491 -39.801  0.00  0.00    +0.000 A 
ATOM     11  O2  UNL     1     -18.561   6.419 -40.392  0.00  0.00    +0.000 OA
ENDROOT
TORSDOF 0
ENDMDL
MODEL 7
REMARK VINA RESULT:    -4.130     11.101     12.704
REMARK INTER + INTRA:          -4.130
REMARK INTER:                  -4.130
REMARK INTRA:                   0.000
REMARK UNBOUND:                 0.000
REMARK  Name = /home/anacleto/Desktop/manuscript_Mpro/naturecomm/supplementary_file_S2/6-chemical-library/molecular_docking/3D_ligand_structure/190.pdb
REMARK  0 active torsions:
REMARK  status: ('A' for Active; 'I' for Inactive)
REMARK                            x       y       z     vdW  Elec       q    Type
REMARK                         _______ _______ _______ _____ _____    ______ ____
ROOT
ATOM      1  C1  UNL     1     -27.980   3.130 -38.202  0.00  0.00    +0.000 A 
ATOM      2  C2  UNL     1     -26.938   2.203 -38.235  0.00  0.00    +0.000 A 
ATOM      3  C3  UNL     1     -25.661   2.606 -38.624  0.00  0.00    +0.000 A 
ATOM      4  C4  UNL     1     -25.422   3.936 -38.981  0.00  0.00    +0.000 A 
ATOM      5  C5  UNL     1     -26.462   4.871 -38.949  0.00  0.00    +0.000 A 
ATOM      6  C6  UNL     1     -27.742   4.465 -38.559  0.00  0.00    +0.000 A 
ATOM      7  C7  UNL     1     -26.232   6.259 -39.317  0.00  0.00    +0.000 A 
ATOM      8  C8  UNL     1     -27.267   7.097 -39.264  0.00  0.00    +0.000 A 
ATOM      9  O1  UNL     1     -28.563   6.732 -38.880  0.00  0.00    +0.000 OA
ATOM     10  C9  UNL     1     -28.858   5.444 -38.520  0.00  0.00    +0.000 A 
ATOM     11  O2  UNL     1     -29.987   5.107 -38.180  0.00  0.00    +0.000 OA
ENDROOT
TORSDOF 0
ENDMDL
MODEL 8
REMARK VINA RESULT:    -4.094     11.048     12.821
REMARK INTER + INTRA:          -4.094
REMARK INTER:                  -4.094
REMARK INTRA:                   0.000
REMARK UNBOUND:                 0.000
REMARK  Name = /home/anacleto/Desktop/manuscript_Mpro/naturecomm/supplementary_file_S2/6-chemical-library/molecular_docking/3D_ligand_structure/190.pdb
REMARK  0 active torsions:
REMARK  status: ('A' for Active; 'I' for Inactive)
REMARK                            x       y       z     vdW  Elec       q    Type
REMARK                         _______ _______ _______ _____ _____    ______ ____
ROOT
ATOM      1  C1  UNL     1     -25.553   4.079 -39.146  0.00  0.00    +0.000 A 
ATOM      2  C2  UNL     1     -25.686   2.720 -38.865  0.00  0.00    +0.000 A 
ATOM      3  C3  UNL     1     -26.903   2.221 -38.404  0.00  0.00    +0.000 A 
ATOM      4  C4  UNL     1     -27.991   3.079 -38.221  0.00  0.00    +0.000 A 
ATOM      5  C5  UNL     1     -27.865   4.444 -38.501  0.00  0.00    +0.000 A 
ATOM      6  C6  UNL     1     -26.642   4.942 -38.964  0.00  0.00    +0.000 A 
ATOM      7  C7  UNL     1     -28.985   5.353 -38.318  0.00  0.00    +0.000 A 
ATOM      8  C8  UNL     1     -28.796   6.640 -38.604  0.00  0.00    +0.000 A 
ATOM      9  O1  UNL     1     -27.591   7.180 -39.069  0.00  0.00    +0.000 OA
ATOM     10  C9  UNL     1     -26.490   6.389 -39.266  0.00  0.00    +0.000 A 
ATOM     11  O2  UNL     1     -25.427   6.844 -39.673  0.00  0.00    +0.000 OA
ENDROOT
TORSDOF 0
ENDMDL
MODEL 9
REMARK VINA RESULT:    -3.936     15.594     17.255
REMARK INTER + INTRA:          -3.936
REMARK INTER:                  -3.936
REMARK INTRA:                   0.000
REMARK UNBOUND:                 0.000
REMARK  Name = /home/anacleto/Desktop/manuscript_Mpro/naturecomm/supplementary_file_S2/6-chemical-library/molecular_docking/3D_ligand_structure/190.pdb
REMARK  0 active torsions:
REMARK  status: ('A' for Active; 'I' for Inactive)
REMARK                            x       y       z     vdW  Elec       q    Type
REMARK                         _______ _______ _______ _____ _____    ______ ____
ROOT
ATOM      1  C1  UNL     1     -20.042   9.246 -37.950  0.00  0.00    +0.000 A 
ATOM      2  C2  UNL     1     -21.170   8.781 -37.275  0.00  0.00    +0.000 A 
ATOM      3  C3  UNL     1     -21.725   7.548 -37.614  0.00  0.00    +0.000 A 
ATOM      4  C4  UNL     1     -21.154   6.776 -38.630  0.00  0.00    +0.000 A 
ATOM      5  C5  UNL     1     -20.023   7.236 -39.311  0.00  0.00    +0.000 A 
ATOM      6  C6  UNL     1     -19.467   8.473 -38.969  0.00  0.00    +0.000 A 
ATOM      7  C7  UNL     1     -19.415   6.447 -40.371  0.00  0.00    +0.000 A 
ATOM      8  C8  UNL     1     -18.338   6.945 -40.979  0.00  0.00    +0.000 A 
ATOM      9  O1  UNL     1     -17.751   8.177 -40.668  0.00  0.00    +0.000 OA
ATOM     10  C9  UNL     1     -18.266   8.977 -39.682  0.00  0.00    +0.000 A 
ATOM     11  O2  UNL     1     -17.765  10.059 -39.396  0.00  0.00    +0.000 OA
ENDROOT
TORSDOF 0
ENDMDL
