MODEL 1
REMARK VINA RESULT:    -3.756      0.000      0.000
REMARK INTER + INTRA:          -3.756
REMARK INTER:                  -3.756
REMARK INTRA:                   0.000
REMARK UNBOUND:                 0.000
REMARK  Name = /home/anacleto/Desktop/manuscript_Mpro/naturecomm/supplementary_file_S2/6-chemical-library/molecular_docking/3D_ligand_structure/251.pdb
REMARK  0 active torsions:
REMARK  status: ('A' for Active; 'I' for Inactive)
REMARK                            x       y       z     vdW  Elec       q    Type
REMARK                         _______ _______ _______ _____ _____    ______ ____
ROOT
ATOM      1  N1  UNL     1      13.531  10.618  -4.942  0.00  0.00    +0.000 NA
ATOM      2  C1  UNL     1      13.106  10.661  -6.223  0.00  0.00    +0.000 A 
ATOM      3  C2  UNL     1      13.892  11.093  -7.273  0.00  0.00    +0.000 A 
ATOM      4  C3  UNL     1      15.192  11.507  -6.989  0.00  0.00    +0.000 A 
ATOM      5  C4  UNL     1      15.681  11.485  -5.692  0.00  0.00    +0.000 A 
ATOM      6  C5  UNL     1      14.794  11.024  -4.695  0.00  0.00    +0.000 A 
ATOM      7  N2  UNL     1      16.944  11.891  -5.444  0.00  0.00    +0.000 NA
ATOM      8  C6  UNL     1      17.368  11.849  -4.163  0.00  0.00    +0.000 A 
ATOM      9  C7  UNL     1      16.583  11.415  -3.113  0.00  0.00    +0.000 A 
ATOM     10  C8  UNL     1      15.282  11.002  -3.397  0.00  0.00    +0.000 A 
ENDROOT
TORSDOF 0
ENDMDL
MODEL 2
REMARK VINA RESULT:    -3.746      0.124      3.928
REMARK INTER + INTRA:          -3.746
REMARK INTER:                  -3.746
REMARK INTRA:                   0.000
REMARK UNBOUND:                 0.000
REMARK  Name = /home/anacleto/Desktop/manuscript_Mpro/naturecomm/supplementary_file_S2/6-chemical-library/molecular_docking/3D_ligand_structure/251.pdb
REMARK  0 active torsions:
REMARK  status: ('A' for Active; 'I' for Inactive)
REMARK                            x       y       z     vdW  Elec       q    Type
REMARK                         _______ _______ _______ _____ _____    ______ ____
ROOT
ATOM      1  N1  UNL     1      17.003  11.774  -5.577  0.00  0.00    +0.000 NA
ATOM      2  C1  UNL     1      17.462  11.751  -4.308  0.00  0.00    +0.000 A 
ATOM      3  C2  UNL     1      16.692  11.375  -3.225  0.00  0.00    +0.000 A 
ATOM      4  C3  UNL     1      15.371  11.000  -3.461  0.00  0.00    +0.000 A 
ATOM      5  C4  UNL     1      14.847  11.005  -4.745  0.00  0.00    +0.000 A 
ATOM      6  C5  UNL     1      15.720  11.406  -5.779  0.00  0.00    +0.000 A 
ATOM      7  N2  UNL     1      13.564  10.636  -4.946  0.00  0.00    +0.000 NA
ATOM      8  C6  UNL     1      13.105  10.659  -6.215  0.00  0.00    +0.000 A 
ATOM      9  C7  UNL     1      13.875  11.034  -7.298  0.00  0.00    +0.000 A 
ATOM     10  C8  UNL     1      15.196  11.410  -7.062  0.00  0.00    +0.000 A 
ENDROOT
TORSDOF 0
ENDMDL
MODEL 3
REMARK VINA RESULT:    -3.720      1.455      2.270
REMARK INTER + INTRA:          -3.720
REMARK INTER:                  -3.720
REMARK INTRA:                   0.000
REMARK UNBOUND:                 0.000
REMARK  Name = /home/anacleto/Desktop/manuscript_Mpro/naturecomm/supplementary_file_S2/6-chemical-library/molecular_docking/3D_ligand_structure/251.pdb
REMARK  0 active torsions:
REMARK  status: ('A' for Active; 'I' for Inactive)
REMARK                            x       y       z     vdW  Elec       q    Type
REMARK                         _______ _______ _______ _____ _____    ______ ____
ROOT
ATOM      1  N1  UNL     1      15.966  11.417  -6.740  0.00  0.00    +0.000 NA
ATOM      2  C1  UNL     1      14.733  11.885  -7.029  0.00  0.00    +0.000 A 
ATOM      3  C2  UNL     1      13.733  12.028  -6.088  0.00  0.00    +0.000 A 
ATOM      4  C3  UNL     1      14.017  11.669  -4.771  0.00  0.00    +0.000 A 
ATOM      5  C4  UNL     1      15.266  11.182  -4.419  0.00  0.00    +0.000 A 
ATOM      6  C5  UNL     1      16.216  11.076  -5.458  0.00  0.00    +0.000 A 
ATOM      7  N2  UNL     1      15.515  10.842  -3.137  0.00  0.00    +0.000 NA
ATOM      8  C6  UNL     1      16.748  10.374  -2.848  0.00  0.00    +0.000 A 
ATOM      9  C7  UNL     1      17.749  10.232  -3.789  0.00  0.00    +0.000 A 
ATOM     10  C8  UNL     1      17.465  10.590  -5.105  0.00  0.00    +0.000 A 
ENDROOT
TORSDOF 0
ENDMDL
MODEL 4
REMARK VINA RESULT:    -3.672      2.196      2.329
REMARK INTER + INTRA:          -3.672
REMARK INTER:                  -3.672
REMARK INTRA:                   0.000
REMARK UNBOUND:                 0.000
REMARK  Name = /home/anacleto/Desktop/manuscript_Mpro/naturecomm/supplementary_file_S2/6-chemical-library/molecular_docking/3D_ligand_structure/251.pdb
REMARK  0 active torsions:
REMARK  status: ('A' for Active; 'I' for Inactive)
REMARK                            x       y       z     vdW  Elec       q    Type
REMARK                         _______ _______ _______ _____ _____    ______ ____
ROOT
ATOM      1  N1  UNL     1      13.202  12.250  -5.170  0.00  0.00    +0.000 NA
ATOM      2  C1  UNL     1      12.683  11.187  -5.819  0.00  0.00    +0.000 A 
ATOM      3  C2  UNL     1      13.248  10.632  -6.950  0.00  0.00    +0.000 A 
ATOM      4  C3  UNL     1      14.419  11.206  -7.444  0.00  0.00    +0.000 A 
ATOM      5  C4  UNL     1      14.996  12.300  -6.817  0.00  0.00    +0.000 A 
ATOM      6  C5  UNL     1      14.336  12.787  -5.668  0.00  0.00    +0.000 A 
ATOM      7  N2  UNL     1      16.130  12.836  -7.315  0.00  0.00    +0.000 NA
ATOM      8  C6  UNL     1      16.650  13.900  -6.666  0.00  0.00    +0.000 A 
ATOM      9  C7  UNL     1      16.084  14.453  -5.535  0.00  0.00    +0.000 A 
ATOM     10  C8  UNL     1      14.914  13.880  -5.042  0.00  0.00    +0.000 A 
ENDROOT
TORSDOF 0
ENDMDL
MODEL 5
REMARK VINA RESULT:    -3.658     15.571     17.558
REMARK INTER + INTRA:          -3.658
REMARK INTER:                  -3.658
REMARK INTRA:                   0.000
REMARK UNBOUND:                 0.000
REMARK  Name = /home/anacleto/Desktop/manuscript_Mpro/naturecomm/supplementary_file_S2/6-chemical-library/molecular_docking/3D_ligand_structure/251.pdb
REMARK  0 active torsions:
REMARK  status: ('A' for Active; 'I' for Inactive)
REMARK                            x       y       z     vdW  Elec       q    Type
REMARK                         _______ _______ _______ _____ _____    ______ ____
ROOT
ATOM      1  N1  UNL     1      21.521   6.670  11.910  0.00  0.00    +0.000 NA
ATOM      2  C1  UNL     1      20.852   7.249  12.929  0.00  0.00    +0.000 A 
ATOM      3  C2  UNL     1      19.542   7.678  12.835  0.00  0.00    +0.000 A 
ATOM      4  C3  UNL     1      18.882   7.501  11.620  0.00  0.00    +0.000 A 
ATOM      5  C4  UNL     1      19.521   6.913  10.540  0.00  0.00    +0.000 A 
ATOM      6  C5  UNL     1      20.859   6.510  10.745  0.00  0.00    +0.000 A 
ATOM      7  N2  UNL     1      18.859   6.752   9.375  0.00  0.00    +0.000 NA
ATOM      8  C6  UNL     1      19.529   6.173   8.356  0.00  0.00    +0.000 A 
ATOM      9  C7  UNL     1      20.838   5.744   8.450  0.00  0.00    +0.000 A 
ATOM     10  C8  UNL     1      21.498   5.921   9.665  0.00  0.00    +0.000 A 
ENDROOT
TORSDOF 0
ENDMDL
MODEL 6
REMARK VINA RESULT:    -3.654     15.552     17.274
REMARK INTER + INTRA:          -3.654
REMARK INTER:                  -3.654
REMARK INTRA:                   0.000
REMARK UNBOUND:                 0.000
REMARK  Name = /home/anacleto/Desktop/manuscript_Mpro/naturecomm/supplementary_file_S2/6-chemical-library/molecular_docking/3D_ligand_structure/251.pdb
REMARK  0 active torsions:
REMARK  status: ('A' for Active; 'I' for Inactive)
REMARK                            x       y       z     vdW  Elec       q    Type
REMARK                         _______ _______ _______ _____ _____    ______ ____
ROOT
ATOM      1  N1  UNL     1      18.825   6.815   9.379  0.00  0.00    +0.000 NA
ATOM      2  C1  UNL     1      19.483   6.235   8.353  0.00  0.00    +0.000 A 
ATOM      3  C2  UNL     1      20.787   5.787   8.439  0.00  0.00    +0.000 A 
ATOM      4  C3  UNL     1      21.453   5.946   9.653  0.00  0.00    +0.000 A 
ATOM      5  C4  UNL     1      20.826   6.535  10.740  0.00  0.00    +0.000 A 
ATOM      6  C5  UNL     1      19.493   6.956  10.544  0.00  0.00    +0.000 A 
ATOM      7  N2  UNL     1      21.494   6.676  11.904  0.00  0.00    +0.000 NA
ATOM      8  C6  UNL     1      20.836   7.256  12.930  0.00  0.00    +0.000 A 
ATOM      9  C7  UNL     1      19.532   7.702  12.844  0.00  0.00    +0.000 A 
ATOM     10  C8  UNL     1      18.866   7.545  11.630  0.00  0.00    +0.000 A 
ENDROOT
TORSDOF 0
ENDMDL
MODEL 7
REMARK VINA RESULT:    -3.610     16.234     17.531
REMARK INTER + INTRA:          -3.610
REMARK INTER:                  -3.610
REMARK INTRA:                   0.000
REMARK UNBOUND:                 0.000
REMARK  Name = /home/anacleto/Desktop/manuscript_Mpro/naturecomm/supplementary_file_S2/6-chemical-library/molecular_docking/3D_ligand_structure/251.pdb
REMARK  0 active torsions:
REMARK  status: ('A' for Active; 'I' for Inactive)
REMARK                            x       y       z     vdW  Elec       q    Type
REMARK                         _______ _______ _______ _____ _____    ______ ____
ROOT
ATOM      1  N1  UNL     1      15.591   3.103  10.230  0.00  0.00    +0.000 NA
ATOM      2  C1  UNL     1      16.561   3.388   9.336  0.00  0.00    +0.000 A 
ATOM      3  C2  UNL     1      16.657   2.786   8.097  0.00  0.00    +0.000 A 
ATOM      4  C3  UNL     1      15.698   1.833   7.757  0.00  0.00    +0.000 A 
ATOM      5  C4  UNL     1      14.680   1.501   8.637  0.00  0.00    +0.000 A 
ATOM      6  C5  UNL     1      14.675   2.177   9.876  0.00  0.00    +0.000 A 
ATOM      7  N2  UNL     1      13.764   0.575   8.283  0.00  0.00    +0.000 NA
ATOM      8  C6  UNL     1      12.794   0.290   9.177  0.00  0.00    +0.000 A 
ATOM      9  C7  UNL     1      12.697   0.892  10.416  0.00  0.00    +0.000 A 
ATOM     10  C8  UNL     1      13.656   1.844  10.756  0.00  0.00    +0.000 A 
ENDROOT
TORSDOF 0
ENDMDL
MODEL 8
REMARK VINA RESULT:    -3.522     15.202     16.658
REMARK INTER + INTRA:          -3.522
REMARK INTER:                  -3.522
REMARK INTRA:                   0.000
REMARK UNBOUND:                 0.000
REMARK  Name = /home/anacleto/Desktop/manuscript_Mpro/naturecomm/supplementary_file_S2/6-chemical-library/molecular_docking/3D_ligand_structure/251.pdb
REMARK  0 active torsions:
REMARK  status: ('A' for Active; 'I' for Inactive)
REMARK                            x       y       z     vdW  Elec       q    Type
REMARK                         _______ _______ _______ _____ _____    ______ ____
ROOT
ATOM      1  N1  UNL     1      20.960   3.842   8.837  0.00  0.00    +0.000 NA
ATOM      2  C1  UNL     1      22.204   3.480   9.214  0.00  0.00    +0.000 A 
ATOM      3  C2  UNL     1      23.179   4.382   9.593  0.00  0.00    +0.000 A 
ATOM      4  C3  UNL     1      22.855   5.737   9.583  0.00  0.00    +0.000 A 
ATOM      5  C4  UNL     1      21.592   6.166   9.204  0.00  0.00    +0.000 A 
ATOM      6  C5  UNL     1      20.671   5.161   8.837  0.00  0.00    +0.000 A 
ATOM      7  N2  UNL     1      21.304   7.485   9.203  0.00  0.00    +0.000 NA
ATOM      8  C6  UNL     1      20.060   7.847   8.826  0.00  0.00    +0.000 A 
ATOM      9  C7  UNL     1      19.084   6.945   8.449  0.00  0.00    +0.000 A 
ATOM     10  C8  UNL     1      19.409   5.589   8.458  0.00  0.00    +0.000 A 
ENDROOT
TORSDOF 0
ENDMDL
MODEL 9
REMARK VINA RESULT:    -3.421     18.499     19.580
REMARK INTER + INTRA:          -3.421
REMARK INTER:                  -3.421
REMARK INTRA:                   0.000
REMARK UNBOUND:                 0.000
REMARK  Name = /home/anacleto/Desktop/manuscript_Mpro/naturecomm/supplementary_file_S2/6-chemical-library/molecular_docking/3D_ligand_structure/251.pdb
REMARK  0 active torsions:
REMARK  status: ('A' for Active; 'I' for Inactive)
REMARK                            x       y       z     vdW  Elec       q    Type
REMARK                         _______ _______ _______ _____ _____    ______ ____
ROOT
ATOM      1  N1  UNL     1      23.242  18.187  12.259  0.00  0.00    +0.000 NA
ATOM      2  C1  UNL     1      22.379  17.531  13.063  0.00  0.00    +0.000 A 
ATOM      3  C2  UNL     1      22.152  16.171  12.990  0.00  0.00    +0.000 A 
ATOM      4  C3  UNL     1      22.854  15.441  12.033  0.00  0.00    +0.000 A 
ATOM      5  C4  UNL     1      23.753  16.063  11.180  0.00  0.00    +0.000 A 
ATOM      6  C5  UNL     1      23.910  17.457  11.341  0.00  0.00    +0.000 A 
ATOM      7  N2  UNL     1      24.421  15.334  10.261  0.00  0.00    +0.000 NA
ATOM      8  C6  UNL     1      25.284  15.990   9.457  0.00  0.00    +0.000 A 
ATOM      9  C7  UNL     1      25.512  17.350   9.531  0.00  0.00    +0.000 A 
ATOM     10  C8  UNL     1      24.809  18.079  10.488  0.00  0.00    +0.000 A 
ENDROOT
TORSDOF 0
ENDMDL
