MODEL 1
REMARK VINA RESULT:    -6.048      0.000      0.000
REMARK INTER + INTRA:          -8.332
REMARK INTER:                  -7.921
REMARK INTRA:                  -0.412
REMARK UNBOUND:                -0.516
REMARK  Name = /home/anacleto/Desktop/manuscript_Mpro/naturecomm/supplementary_file_S2/6-chemical-library/molecular_docking/3D_ligand_structure/481.pdb
REMARK  5 active torsions:
REMARK  status: ('A' for Active; 'I' for Inactive)
REMARK    1  A    between atoms: C6_6  and  C7_7
REMARK    2  A    between atoms: N1_9  and  N2_10
REMARK    3  A    between atoms: C8_11  and  O3_13
REMARK    4  A    between atoms: O3_13  and  C9_14
REMARK    5  A    between atoms: C9_14  and  C10_15
REMARK                            x       y       z     vdW  Elec       q    Type
REMARK                         _______ _______ _______ _____ _____    ______ ____
ROOT
ATOM      1  N2  UNL     1     -21.785   6.074 -37.987  0.00  0.00    +0.000 N 
ATOM      2  C8  UNL     1     -22.828   6.079 -38.877  0.00  0.00    +0.000 C 
ATOM      3  O2  UNL     1     -22.739   6.482 -40.031  0.00  0.00    +0.000 OA
ATOM      4  H7  UNL     1     -22.004   5.978 -36.997  0.00  0.00    +0.000 HD
ENDROOT
BRANCH   1   7
ATOM      5  C7  UNL     1     -20.572   8.105 -37.769  0.00  0.00    +0.000 C 
ATOM      6  O1  UNL     1     -21.370   8.514 -36.929  0.00  0.00    +0.000 OA
ATOM      7  N1  UNL     1     -20.640   6.829 -38.300  0.00  0.00    +0.000 N 
ATOM      8  H6  UNL     1     -20.218   6.614 -39.202  0.00  0.00    +0.000 HD
BRANCH   5  14
ATOM      9  C1  UNL     1     -19.543  10.382 -38.170  0.00  0.00    +0.000 A 
ATOM     10  C2  UNL     1     -18.508  11.165 -38.685  0.00  0.00    +0.000 A 
ATOM     11  C3  UNL     1     -17.430  10.564 -39.334  0.00  0.00    +0.000 A 
ATOM     12  C4  UNL     1     -17.385   9.178 -39.478  0.00  0.00    +0.000 A 
ATOM     13  C5  UNL     1     -18.418   8.390 -38.965  0.00  0.00    +0.000 A 
ATOM     14  C6  UNL     1     -19.496   8.987 -38.299  0.00  0.00    +0.000 A 
ENDBRANCH   5  14
ENDBRANCH   1   7
BRANCH   2  15
ATOM     15  O3  UNL     1     -23.945   5.600 -38.282  0.00  0.00    +0.000 OA
BRANCH  15  16
ATOM     16  C9  UNL     1     -25.162   5.789 -39.010  0.00  0.00    +0.000 C 
BRANCH  16  17
ATOM     17  C10 UNL     1     -26.086   4.625 -38.760  0.00  0.00    +0.000 A 
ATOM     18  C11 UNL     1     -25.574   3.390 -38.341  0.00  0.00    +0.000 A 
ATOM     19  C12 UNL     1     -26.431   2.316 -38.094  0.00  0.00    +0.000 A 
ATOM     20  C13 UNL     1     -27.806   2.469 -38.256  0.00  0.00    +0.000 A 
ATOM     21  C14 UNL     1     -28.328   3.697 -38.661  0.00  0.00    +0.000 A 
ATOM     22  C15 UNL     1     -27.473   4.772 -38.909  0.00  0.00    +0.000 A 
ENDBRANCH  16  17
ENDBRANCH  15  16
ENDBRANCH   2  15
TORSDOF 5
ENDMDL
MODEL 2
REMARK VINA RESULT:    -5.894      1.130      8.685
REMARK INTER + INTRA:          -8.133
REMARK INTER:                  -7.763
REMARK INTRA:                  -0.370
REMARK UNBOUND:                -0.516
REMARK  Name = /home/anacleto/Desktop/manuscript_Mpro/naturecomm/supplementary_file_S2/6-chemical-library/molecular_docking/3D_ligand_structure/481.pdb
REMARK  5 active torsions:
REMARK  status: ('A' for Active; 'I' for Inactive)
REMARK    1  A    between atoms: C6_6  and  C7_7
REMARK    2  A    between atoms: N1_9  and  N2_10
REMARK    3  A    between atoms: C8_11  and  O3_13
REMARK    4  A    between atoms: O3_13  and  C9_14
REMARK    5  A    between atoms: C9_14  and  C10_15
REMARK                            x       y       z     vdW  Elec       q    Type
REMARK                         _______ _______ _______ _____ _____    ______ ____
ROOT
ATOM      1  N2  UNL     1     -22.745   6.139 -38.040  0.00  0.00    +0.000 N 
ATOM      2  C8  UNL     1     -22.992   7.487 -38.067  0.00  0.00    +0.000 C 
ATOM      3  O2  UNL     1     -24.033   7.999 -37.672  0.00  0.00    +0.000 OA
ATOM      4  H7  UNL     1     -21.988   5.781 -38.618  0.00  0.00    +0.000 HD
ENDROOT
BRANCH   1   7
ATOM      5  C7  UNL     1     -24.515   4.844 -38.954  0.00  0.00    +0.000 C 
ATOM      6  O1  UNL     1     -24.112   5.061 -40.094  0.00  0.00    +0.000 OA
ATOM      7  N1  UNL     1     -23.831   5.269 -37.829  0.00  0.00    +0.000 N 
ATOM      8  H6  UNL     1     -24.311   5.390 -36.939  0.00  0.00    +0.000 HD
BRANCH   5  14
ATOM      9  C1  UNL     1     -27.044   4.745 -38.950  0.00  0.00    +0.000 A 
ATOM     10  C2  UNL     1     -28.224   4.037 -38.714  0.00  0.00    +0.000 A 
ATOM     11  C3  UNL     1     -28.172   2.726 -38.240  0.00  0.00    +0.000 A 
ATOM     12  C4  UNL     1     -26.942   2.120 -37.994  0.00  0.00    +0.000 A 
ATOM     13  C5  UNL     1     -25.759   2.824 -38.228  0.00  0.00    +0.000 A 
ATOM     14  C6  UNL     1     -25.803   4.136 -38.719  0.00  0.00    +0.000 A 
ENDBRANCH   5  14
ENDBRANCH   1   7
BRANCH   2  15
ATOM     15  O3  UNL     1     -21.936   8.139 -38.606  0.00  0.00    +0.000 OA
BRANCH  15  16
ATOM     16  C9  UNL     1     -20.647   7.642 -38.231  0.00  0.00    +0.000 C 
BRANCH  16  17
ATOM     17  C10 UNL     1     -19.602   8.692 -38.507  0.00  0.00    +0.000 A 
ATOM     18  C11 UNL     1     -19.845  10.036 -38.194  0.00  0.00    +0.000 A 
ATOM     19  C12 UNL     1     -18.871  11.006 -38.433  0.00  0.00    +0.000 A 
ATOM     20  C13 UNL     1     -17.643  10.642 -38.981  0.00  0.00    +0.000 A 
ATOM     21  C14 UNL     1     -17.385   9.306 -39.285  0.00  0.00    +0.000 A 
ATOM     22  C15 UNL     1     -18.358   8.334 -39.046  0.00  0.00    +0.000 A 
ENDBRANCH  16  17
ENDBRANCH  15  16
ENDBRANCH   2  15
TORSDOF 5
ENDMDL
MODEL 3
REMARK VINA RESULT:    -5.712      4.606     10.964
REMARK INTER + INTRA:          -7.898
REMARK INTER:                  -7.444
REMARK INTRA:                  -0.455
REMARK UNBOUND:                -0.516
REMARK  Name = /home/anacleto/Desktop/manuscript_Mpro/naturecomm/supplementary_file_S2/6-chemical-library/molecular_docking/3D_ligand_structure/481.pdb
REMARK  5 active torsions:
REMARK  status: ('A' for Active; 'I' for Inactive)
REMARK    1  A    between atoms: C6_6  and  C7_7
REMARK    2  A    between atoms: N1_9  and  N2_10
REMARK    3  A    between atoms: C8_11  and  O3_13
REMARK    4  A    between atoms: O3_13  and  C9_14
REMARK    5  A    between atoms: C9_14  and  C10_15
REMARK                            x       y       z     vdW  Elec       q    Type
REMARK                         _______ _______ _______ _____ _____    ______ ____
ROOT
ATOM      1  N2  UNL     1     -16.106   9.187 -38.982  0.00  0.00    +0.000 N 
ATOM      2  C8  UNL     1     -15.534   9.534 -40.179  0.00  0.00    +0.000 C 
ATOM      3  O2  UNL     1     -16.156   9.632 -41.230  0.00  0.00    +0.000 OA
ATOM      4  H7  UNL     1     -15.491   8.874 -38.233  0.00  0.00    +0.000 HD
ENDROOT
BRANCH   1   7
ATOM      5  C7  UNL     1     -18.423   9.424 -38.515  0.00  0.00    +0.000 C 
ATOM      6  O1  UNL     1     -18.267  10.611 -38.242  0.00  0.00    +0.000 OA
ATOM      7  N1  UNL     1     -17.398   8.631 -38.999  0.00  0.00    +0.000 N 
ATOM      8  H6  UNL     1     -17.430   7.617 -38.902  0.00  0.00    +0.000 HD
BRANCH   5  14
ATOM      9  C1  UNL     1     -20.783   9.370 -37.602  0.00  0.00    +0.000 A 
ATOM     10  C2  UNL     1     -21.994   8.698 -37.425  0.00  0.00    +0.000 A 
ATOM     11  C3  UNL     1     -22.162   7.411 -37.935  0.00  0.00    +0.000 A 
ATOM     12  C4  UNL     1     -21.119   6.787 -38.616  0.00  0.00    +0.000 A 
ATOM     13  C5  UNL     1     -19.905   7.454 -38.795  0.00  0.00    +0.000 A 
ATOM     14  C6  UNL     1     -19.735   8.754 -38.298  0.00  0.00    +0.000 A 
ENDBRANCH   5  14
ENDBRANCH   1   7
BRANCH   2  15
ATOM     15  O3  UNL     1     -14.204   9.724 -40.017  0.00  0.00    +0.000 OA
BRANCH  15  16
ATOM     16  C9  UNL     1     -13.624  10.753 -40.825  0.00  0.00    +0.000 C 
BRANCH  16  17
ATOM     17  C10 UNL     1     -12.876  11.723 -39.948  0.00  0.00    +0.000 A 
ATOM     18  C11 UNL     1     -13.372  13.016 -39.735  0.00  0.00    +0.000 A 
ATOM     19  C12 UNL     1     -12.689  13.909 -38.909  0.00  0.00    +0.000 A 
ATOM     20  C13 UNL     1     -11.507  13.517 -38.282  0.00  0.00    +0.000 A 
ATOM     21  C14 UNL     1     -11.011  12.229 -38.478  0.00  0.00    +0.000 A 
ATOM     22  C15 UNL     1     -11.693  11.334 -39.303  0.00  0.00    +0.000 A 
ENDBRANCH  16  17
ENDBRANCH  15  16
ENDBRANCH   2  15
TORSDOF 5
ENDMDL
MODEL 4
REMARK VINA RESULT:    -5.660      2.909      4.573
REMARK INTER + INTRA:          -7.830
REMARK INTER:                  -7.328
REMARK INTRA:                  -0.502
REMARK UNBOUND:                -0.516
REMARK  Name = /home/anacleto/Desktop/manuscript_Mpro/naturecomm/supplementary_file_S2/6-chemical-library/molecular_docking/3D_ligand_structure/481.pdb
REMARK  5 active torsions:
REMARK  status: ('A' for Active; 'I' for Inactive)
REMARK    1  A    between atoms: C6_6  and  C7_7
REMARK    2  A    between atoms: N1_9  and  N2_10
REMARK    3  A    between atoms: C8_11  and  O3_13
REMARK    4  A    between atoms: O3_13  and  C9_14
REMARK    5  A    between atoms: C9_14  and  C10_15
REMARK                            x       y       z     vdW  Elec       q    Type
REMARK                         _______ _______ _______ _____ _____    ______ ____
ROOT
ATOM      1  N2  UNL     1     -25.789   3.708 -38.048  0.00  0.00    +0.000 N 
ATOM      2  C8  UNL     1     -26.059   2.791 -39.030  0.00  0.00    +0.000 C 
ATOM      3  O2  UNL     1     -25.207   2.310 -39.768  0.00  0.00    +0.000 OA
ATOM      4  H7  UNL     1     -26.567   4.245 -37.669  0.00  0.00    +0.000 HD
ENDROOT
BRANCH   1   7
ATOM      5  C7  UNL     1     -24.487   5.588 -38.690  0.00  0.00    +0.000 C 
ATOM      6  O1  UNL     1     -25.495   6.185 -39.060  0.00  0.00    +0.000 OA
ATOM      7  N1  UNL     1     -24.539   4.355 -38.067  0.00  0.00    +0.000 N 
ATOM      8  H6  UNL     1     -23.734   3.731 -38.072  0.00  0.00    +0.000 HD
BRANCH   5  14
ATOM      9  C1  UNL     1     -22.222   6.387 -37.891  0.00  0.00    +0.000 A 
ATOM     10  C2  UNL     1     -20.961   6.918 -38.171  0.00  0.00    +0.000 A 
ATOM     11  C3  UNL     1     -20.605   7.223 -39.485  0.00  0.00    +0.000 A 
ATOM     12  C4  UNL     1     -21.509   7.005 -40.522  0.00  0.00    +0.000 A 
ATOM     13  C5  UNL     1     -22.772   6.475 -40.247  0.00  0.00    +0.000 A 
ATOM     14  C6  UNL     1     -23.130   6.152 -38.932  0.00  0.00    +0.000 A 
ENDBRANCH   5  14
ENDBRANCH   1   7
BRANCH   2  15
ATOM     15  O3  UNL     1     -27.386   2.530 -39.065  0.00  0.00    +0.000 OA
BRANCH  15  16
ATOM     16  C9  UNL     1     -28.072   2.965 -40.243  0.00  0.00    +0.000 C 
BRANCH  16  17
ATOM     17  C10 UNL     1     -29.334   3.689 -39.855  0.00  0.00    +0.000 A 
ATOM     18  C11 UNL     1     -29.363   4.503 -38.715  0.00  0.00    +0.000 A 
ATOM     19  C12 UNL     1     -30.528   5.188 -38.363  0.00  0.00    +0.000 A 
ATOM     20  C13 UNL     1     -31.671   5.072 -39.152  0.00  0.00    +0.000 A 
ATOM     21  C14 UNL     1     -31.649   4.274 -40.296  0.00  0.00    +0.000 A 
ATOM     22  C15 UNL     1     -30.486   3.589 -40.648  0.00  0.00    +0.000 A 
ENDBRANCH  16  17
ENDBRANCH  15  16
ENDBRANCH   2  15
TORSDOF 5
ENDMDL
MODEL 5
REMARK VINA RESULT:    -5.652      3.426      5.555
REMARK INTER + INTRA:          -7.821
REMARK INTER:                  -7.429
REMARK INTRA:                  -0.392
REMARK UNBOUND:                -0.516
REMARK  Name = /home/anacleto/Desktop/manuscript_Mpro/naturecomm/supplementary_file_S2/6-chemical-library/molecular_docking/3D_ligand_structure/481.pdb
REMARK  5 active torsions:
REMARK  status: ('A' for Active; 'I' for Inactive)
REMARK    1  A    between atoms: C6_6  and  C7_7
REMARK    2  A    between atoms: N1_9  and  N2_10
REMARK    3  A    between atoms: C8_11  and  O3_13
REMARK    4  A    between atoms: O3_13  and  C9_14
REMARK    5  A    between atoms: C9_14  and  C10_15
REMARK                            x       y       z     vdW  Elec       q    Type
REMARK                         _______ _______ _______ _____ _____    ______ ____
ROOT
ATOM      1  N2  UNL     1     -17.723   8.604 -39.034  0.00  0.00    +0.000 N 
ATOM      2  C8  UNL     1     -18.729   9.311 -38.429  0.00  0.00    +0.000 C 
ATOM      3  O2  UNL     1     -18.622  10.477 -38.066  0.00  0.00    +0.000 OA
ATOM      4  H7  UNL     1     -17.801   7.589 -39.059  0.00  0.00    +0.000 HD
ENDROOT
BRANCH   1   7
ATOM      5  C7  UNL     1     -15.951   9.756 -40.118  0.00  0.00    +0.000 C 
ATOM      6  O1  UNL     1     -16.677  10.013 -41.075  0.00  0.00    +0.000 OA
ATOM      7  N1  UNL     1     -16.417   9.125 -38.979  0.00  0.00    +0.000 N 
ATOM      8  H6  UNL     1     -15.781   8.624 -38.361  0.00  0.00    +0.000 HD
BRANCH   5  14
ATOM      9  C1  UNL     1     -13.511   9.087 -40.196  0.00  0.00    +0.000 A 
ATOM     10  C2  UNL     1     -12.162   9.444 -40.224  0.00  0.00    +0.000 A 
ATOM     11  C3  UNL     1     -11.792  10.788 -40.199  0.00  0.00    +0.000 A 
ATOM     12  C4  UNL     1     -12.768  11.781 -40.138  0.00  0.00    +0.000 A 
ATOM     13  C5  UNL     1     -14.119  11.429 -40.109  0.00  0.00    +0.000 A 
ATOM     14  C6  UNL     1     -14.498  10.081 -40.150  0.00  0.00    +0.000 A 
ENDBRANCH   5  14
ENDBRANCH   1   7
BRANCH   2  15
ATOM     15  O3  UNL     1     -19.821   8.526 -38.281  0.00  0.00    +0.000 OA
BRANCH  15  16
ATOM     16  C9  UNL     1     -19.848   7.347 -39.093  0.00  0.00    +0.000 C 
BRANCH  16  17
ATOM     17  C10 UNL     1     -21.238   6.765 -39.091  0.00  0.00    +0.000 A 
ATOM     18  C11 UNL     1     -21.794   6.259 -37.909  0.00  0.00    +0.000 A 
ATOM     19  C12 UNL     1     -23.088   5.735 -37.903  0.00  0.00    +0.000 A 
ATOM     20  C13 UNL     1     -23.840   5.719 -39.076  0.00  0.00    +0.000 A 
ATOM     21  C14 UNL     1     -23.301   6.232 -40.256  0.00  0.00    +0.000 A 
ATOM     22  C15 UNL     1     -22.008   6.756 -40.263  0.00  0.00    +0.000 A 
ENDBRANCH  16  17
ENDBRANCH  15  16
ENDBRANCH   2  15
TORSDOF 5
ENDMDL
MODEL 6
REMARK VINA RESULT:    -5.274      2.885      4.358
REMARK INTER + INTRA:          -7.332
REMARK INTER:                  -6.754
REMARK INTRA:                  -0.578
REMARK UNBOUND:                -0.516
REMARK  Name = /home/anacleto/Desktop/manuscript_Mpro/naturecomm/supplementary_file_S2/6-chemical-library/molecular_docking/3D_ligand_structure/481.pdb
REMARK  5 active torsions:
REMARK  status: ('A' for Active; 'I' for Inactive)
REMARK    1  A    between atoms: C6_6  and  C7_7
REMARK    2  A    between atoms: N1_9  and  N2_10
REMARK    3  A    between atoms: C8_11  and  O3_13
REMARK    4  A    between atoms: O3_13  and  C9_14
REMARK    5  A    between atoms: C9_14  and  C10_15
REMARK                            x       y       z     vdW  Elec       q    Type
REMARK                         _______ _______ _______ _____ _____    ______ ____
ROOT
ATOM      1  N2  UNL     1     -26.703   7.387 -39.772  0.00  0.00    +0.000 N 
ATOM      2  C8  UNL     1     -27.819   7.721 -39.050  0.00  0.00    +0.000 C 
ATOM      3  O2  UNL     1     -27.874   8.673 -38.280  0.00  0.00    +0.000 OA
ATOM      4  H7  UNL     1     -26.656   6.451 -40.171  0.00  0.00    +0.000 HD
ENDROOT
BRANCH   1   7
ATOM      5  C7  UNL     1     -24.597   7.173 -38.694  0.00  0.00    +0.000 C 
ATOM      6  O1  UNL     1     -24.782   5.970 -38.528  0.00  0.00    +0.000 OA
ATOM      7  N1  UNL     1     -25.475   7.969 -39.407  0.00  0.00    +0.000 N 
ATOM      8  H6  UNL     1     -25.505   8.977 -39.260  0.00  0.00    +0.000 HD
BRANCH   5  14
ATOM      9  C1  UNL     1     -22.139   7.286 -38.101  0.00  0.00    +0.000 A 
ATOM     10  C2  UNL     1     -21.066   7.969 -37.524  0.00  0.00    +0.000 A 
ATOM     11  C3  UNL     1     -21.266   9.217 -36.934  0.00  0.00    +0.000 A 
ATOM     12  C4  UNL     1     -22.539   9.784 -36.911  0.00  0.00    +0.000 A 
ATOM     13  C5  UNL     1     -23.615   9.104 -37.486  0.00  0.00    +0.000 A 
ATOM     14  C6  UNL     1     -23.418   7.857 -38.094  0.00  0.00    +0.000 A 
ENDBRANCH   5  14
ENDBRANCH   1   7
BRANCH   2  15
ATOM     15  O3  UNL     1     -28.813   6.839 -39.302  0.00  0.00    +0.000 OA
BRANCH  15  16
ATOM     16  C9  UNL     1     -29.051   5.867 -38.280  0.00  0.00    +0.000 C 
BRANCH  16  17
ATOM     17  C10 UNL     1     -28.772   4.488 -38.819  0.00  0.00    +0.000 A 
ATOM     18  C11 UNL     1     -29.473   4.005 -39.931  0.00  0.00    +0.000 A 
ATOM     19  C12 UNL     1     -29.202   2.734 -40.442  0.00  0.00    +0.000 A 
ATOM     20  C13 UNL     1     -28.224   1.938 -39.850  0.00  0.00    +0.000 A 
ATOM     21  C14 UNL     1     -27.511   2.413 -38.750  0.00  0.00    +0.000 A 
ATOM     22  C15 UNL     1     -27.780   3.684 -38.238  0.00  0.00    +0.000 A 
ENDBRANCH  16  17
ENDBRANCH  15  16
ENDBRANCH   2  15
TORSDOF 5
ENDMDL
MODEL 7
REMARK VINA RESULT:    -5.262      2.024      3.281
REMARK INTER + INTRA:          -7.316
REMARK INTER:                  -6.855
REMARK INTRA:                  -0.461
REMARK UNBOUND:                -0.516
REMARK  Name = /home/anacleto/Desktop/manuscript_Mpro/naturecomm/supplementary_file_S2/6-chemical-library/molecular_docking/3D_ligand_structure/481.pdb
REMARK  5 active torsions:
REMARK  status: ('A' for Active; 'I' for Inactive)
REMARK    1  A    between atoms: C6_6  and  C7_7
REMARK    2  A    between atoms: N1_9  and  N2_10
REMARK    3  A    between atoms: C8_11  and  O3_13
REMARK    4  A    between atoms: O3_13  and  C9_14
REMARK    5  A    between atoms: C9_14  and  C10_15
REMARK                            x       y       z     vdW  Elec       q    Type
REMARK                         _______ _______ _______ _____ _____    ______ ____
ROOT
ATOM      1  N2  UNL     1     -24.678   5.285 -38.639  0.00  0.00    +0.000 N 
ATOM      2  C8  UNL     1     -25.043   4.873 -39.895  0.00  0.00    +0.000 C 
ATOM      3  O2  UNL     1     -24.250   4.686 -40.810  0.00  0.00    +0.000 OA
ATOM      4  H7  UNL     1     -25.402   5.667 -38.033  0.00  0.00    +0.000 HD
ENDROOT
BRANCH   1   7
ATOM      5  C7  UNL     1     -23.283   7.158 -38.200  0.00  0.00    +0.000 C 
ATOM      6  O1  UNL     1     -24.264   7.858 -37.961  0.00  0.00    +0.000 OA
ATOM      7  N1  UNL     1     -23.382   5.803 -38.460  0.00  0.00    +0.000 N 
ATOM      8  H6  UNL     1     -22.650   5.314 -38.974  0.00  0.00    +0.000 HD
BRANCH   5  14
ATOM      9  C1  UNL     1     -20.819   7.038 -38.763  0.00  0.00    +0.000 A 
ATOM     10  C2  UNL     1     -19.558   7.637 -38.799  0.00  0.00    +0.000 A 
ATOM     11  C3  UNL     1     -19.387   8.939 -38.329  0.00  0.00    +0.000 A 
ATOM     12  C4  UNL     1     -20.473   9.645 -37.815  0.00  0.00    +0.000 A 
ATOM     13  C5  UNL     1     -21.736   9.050 -37.777  0.00  0.00    +0.000 A 
ATOM     14  C6  UNL     1     -21.918   7.748 -38.261  0.00  0.00    +0.000 A 
ENDBRANCH   5  14
ENDBRANCH   1   7
BRANCH   2  15
ATOM     15  O3  UNL     1     -26.387   4.732 -39.961  0.00  0.00    +0.000 OA
BRANCH  15  16
ATOM     16  C9  UNL     1     -27.028   4.333 -38.745  0.00  0.00    +0.000 C 
BRANCH  16  17
ATOM     17  C10 UNL     1     -28.506   4.608 -38.839  0.00  0.00    +0.000 A 
ATOM     18  C11 UNL     1     -29.111   5.535 -37.980  0.00  0.00    +0.000 A 
ATOM     19  C12 UNL     1     -30.478   5.802 -38.078  0.00  0.00    +0.000 A 
ATOM     20  C13 UNL     1     -31.250   5.152 -39.038  0.00  0.00    +0.000 A 
ATOM     21  C14 UNL     1     -30.656   4.237 -39.906  0.00  0.00    +0.000 A 
ATOM     22  C15 UNL     1     -29.290   3.968 -39.810  0.00  0.00    +0.000 A 
ENDBRANCH  16  17
ENDBRANCH  15  16
ENDBRANCH   2  15
TORSDOF 5
ENDMDL
MODEL 8
REMARK VINA RESULT:    -5.259      1.508      2.227
REMARK INTER + INTRA:          -7.312
REMARK INTER:                  -6.835
REMARK INTRA:                  -0.477
REMARK UNBOUND:                -0.516
REMARK  Name = /home/anacleto/Desktop/manuscript_Mpro/naturecomm/supplementary_file_S2/6-chemical-library/molecular_docking/3D_ligand_structure/481.pdb
REMARK  5 active torsions:
REMARK  status: ('A' for Active; 'I' for Inactive)
REMARK    1  A    between atoms: C6_6  and  C7_7
REMARK    2  A    between atoms: N1_9  and  N2_10
REMARK    3  A    between atoms: C8_11  and  O3_13
REMARK    4  A    between atoms: O3_13  and  C9_14
REMARK    5  A    between atoms: C9_14  and  C10_15
REMARK                            x       y       z     vdW  Elec       q    Type
REMARK                         _______ _______ _______ _____ _____    ______ ____
ROOT
ATOM      1  N2  UNL     1     -23.648   6.504 -39.694  0.00  0.00    +0.000 N 
ATOM      2  C8  UNL     1     -24.734   7.340 -39.726  0.00  0.00    +0.000 C 
ATOM      3  O2  UNL     1     -24.687   8.508 -40.097  0.00  0.00    +0.000 OA
ATOM      4  H7  UNL     1     -23.715   5.656 -39.135  0.00  0.00    +0.000 HD
ENDROOT
BRANCH   1   7
ATOM      5  C7  UNL     1     -21.617   7.155 -38.647  0.00  0.00    +0.000 C 
ATOM      6  O1  UNL     1     -21.960   6.610 -37.600  0.00  0.00    +0.000 OA
ATOM      7  N1  UNL     1     -22.366   7.074 -39.807  0.00  0.00    +0.000 N 
ATOM      8  H6  UNL     1     -22.271   7.774 -40.541  0.00  0.00    +0.000 HD
BRANCH   5  14
ATOM      9  C1  UNL     1     -19.225   7.539 -39.376  0.00  0.00    +0.000 A 
ATOM     10  C2  UNL     1     -18.088   8.349 -39.408  0.00  0.00    +0.000 A 
ATOM     11  C3  UNL     1     -18.094   9.592 -38.776  0.00  0.00    +0.000 A 
ATOM     12  C4  UNL     1     -19.234  10.027 -38.102  0.00  0.00    +0.000 A 
ATOM     13  C5  UNL     1     -20.373   9.221 -38.066  0.00  0.00    +0.000 A 
ATOM     14  C6  UNL     1     -20.379   7.977 -38.712  0.00  0.00    +0.000 A 
ENDBRANCH   5  14
ENDBRANCH   1   7
BRANCH   2  15
ATOM     15  O3  UNL     1     -25.830   6.690 -39.273  0.00  0.00    +0.000 OA
BRANCH  15  16
ATOM     16  C9  UNL     1     -26.339   5.664 -40.131  0.00  0.00    +0.000 C 
BRANCH  16  17
ATOM     17  C10 UNL     1     -26.591   4.413 -39.330  0.00  0.00    +0.000 A 
ATOM     18  C11 UNL     1     -27.897   4.036 -38.993  0.00  0.00    +0.000 A 
ATOM     19  C12 UNL     1     -28.132   2.869 -38.265  0.00  0.00    +0.000 A 
ATOM     20  C13 UNL     1     -27.064   2.065 -37.873  0.00  0.00    +0.000 A 
ATOM     21  C14 UNL     1     -25.761   2.424 -38.212  0.00  0.00    +0.000 A 
ATOM     22  C15 UNL     1     -25.524   3.590 -38.940  0.00  0.00    +0.000 A 
ENDBRANCH  16  17
ENDBRANCH  15  16
ENDBRANCH   2  15
TORSDOF 5
ENDMDL
MODEL 9
REMARK VINA RESULT:    -5.131     16.358     18.481
REMARK INTER + INTRA:          -7.147
REMARK INTER:                  -6.631
REMARK INTRA:                  -0.516
REMARK UNBOUND:                -0.516
REMARK  Name = /home/anacleto/Desktop/manuscript_Mpro/naturecomm/supplementary_file_S2/6-chemical-library/molecular_docking/3D_ligand_structure/481.pdb
REMARK  5 active torsions:
REMARK  status: ('A' for Active; 'I' for Inactive)
REMARK    1  A    between atoms: C6_6  and  C7_7
REMARK    2  A    between atoms: N1_9  and  N2_10
REMARK    3  A    between atoms: C8_11  and  O3_13
REMARK    4  A    between atoms: O3_13  and  C9_14
REMARK    5  A    between atoms: C9_14  and  C10_15
REMARK                            x       y       z     vdW  Elec       q    Type
REMARK                         _______ _______ _______ _____ _____    ______ ____
ROOT
ATOM      1  N2  UNL     1     -37.657  -3.121 -34.394  0.00  0.00    +0.000 N 
ATOM      2  C8  UNL     1     -38.517  -2.606 -33.458  0.00  0.00    +0.000 C 
ATOM      3  O2  UNL     1     -39.498  -1.925 -33.733  0.00  0.00    +0.000 OA
ATOM      4  H7  UNL     1     -36.743  -3.439 -34.078  0.00  0.00    +0.000 HD
ENDROOT
BRANCH   1   7
ATOM      5  C7  UNL     1     -36.728  -1.724 -36.076  0.00  0.00    +0.000 C 
ATOM      6  O1  UNL     1     -35.740  -1.507 -35.378  0.00  0.00    +0.000 OA
ATOM      7  N1  UNL     1     -37.720  -2.614 -35.705  0.00  0.00    +0.000 N 
ATOM      8  H6  UNL     1     -38.659  -2.541 -36.092  0.00  0.00    +0.000 HD
BRANCH   5  14
ATOM      9  C1  UNL     1     -38.020  -0.141 -37.569  0.00  0.00    +0.000 A 
ATOM     10  C2  UNL     1     -38.166   0.515 -38.793  0.00  0.00    +0.000 A 
ATOM     11  C3  UNL     1     -37.236   0.313 -39.812  0.00  0.00    +0.000 A 
ATOM     12  C4  UNL     1     -36.160  -0.550 -39.615  0.00  0.00    +0.000 A 
ATOM     13  C5  UNL     1     -36.009  -1.209 -38.394  0.00  0.00    +0.000 A 
ATOM     14  C6  UNL     1     -36.932  -0.999 -37.360  0.00  0.00    +0.000 A 
ENDBRANCH   5  14
ENDBRANCH   1   7
BRANCH   2  15
ATOM     15  O3  UNL     1     -38.102  -2.945 -32.216  0.00  0.00    +0.000 OA
BRANCH  15  16
ATOM     16  C9  UNL     1     -39.043  -2.706 -31.164  0.00  0.00    +0.000 C 
BRANCH  16  17
ATOM     17  C10 UNL     1     -38.626  -1.488 -30.380  0.00  0.00    +0.000 A 
ATOM     18  C11 UNL     1     -37.444  -1.498 -29.628  0.00  0.00    +0.000 A 
ATOM     19  C12 UNL     1     -37.049  -0.365 -28.915  0.00  0.00    +0.000 A 
ATOM     20  C13 UNL     1     -37.827   0.790 -28.954  0.00  0.00    +0.000 A 
ATOM     21  C14 UNL     1     -38.998   0.816 -29.709  0.00  0.00    +0.000 A 
ATOM     22  C15 UNL     1     -39.395  -0.316 -30.422  0.00  0.00    +0.000 A 
ENDBRANCH  16  17
ENDBRANCH  15  16
ENDBRANCH   2  15
TORSDOF 5
ENDMDL
