MODEL 1
REMARK VINA RESULT:    -4.493      0.000      0.000
REMARK INTER + INTRA:          -4.493
REMARK INTER:                  -4.493
REMARK INTRA:                   0.000
REMARK UNBOUND:                 0.000
REMARK  Name = /home/anacleto/Desktop/manuscript_Mpro/naturecomm/supplementary_file_S2/6-chemical-library/molecular_docking/3D_ligand_structure/214.pdb
REMARK  0 active torsions:
REMARK  status: ('A' for Active; 'I' for Inactive)
REMARK                            x       y       z     vdW  Elec       q    Type
REMARK                         _______ _______ _______ _____ _____    ______ ____
ROOT
ATOM      1  C1  UNL     1      17.357  10.627  -4.889  0.00  0.00    +0.000 A 
ATOM      2  C2  UNL     1      17.962  10.790  -6.113  0.00  0.00    +0.000 A 
ATOM      3  O1  UNL     1      17.069  11.244  -7.028  0.00  0.00    +0.000 OA
ATOM      4  C3  UNL     1      15.879  11.365  -6.385  0.00  0.00    +0.000 A 
ATOM      5  C4  UNL     1      15.995  11.004  -5.056  0.00  0.00    +0.000 A 
ATOM      6  C5  UNL     1      14.719  11.829  -7.177  0.00  0.00    +0.000 C 
ATOM      7  C6  UNL     1      13.480  10.971  -6.927  0.00  0.00    +0.000 C 
ATOM      8  C7  UNL     1      12.940  11.036  -5.491  0.00  0.00    +0.000 C 
ATOM      9  N1  UNL     1      13.734  10.302  -4.501  0.00  0.00    +0.000 NA
ATOM     10  C8  UNL     1      14.917  11.031  -4.035  0.00  0.00    +0.000 C 
ATOM     11  H9  UNL     1      13.144  10.130  -3.688  0.00  0.00    +0.000 HD
ENDROOT
TORSDOF 0
ENDMDL
MODEL 2
REMARK VINA RESULT:    -4.137      2.524      3.726
REMARK INTER + INTRA:          -4.137
REMARK INTER:                  -4.137
REMARK INTRA:                   0.000
REMARK UNBOUND:                 0.000
REMARK  Name = /home/anacleto/Desktop/manuscript_Mpro/naturecomm/supplementary_file_S2/6-chemical-library/molecular_docking/3D_ligand_structure/214.pdb
REMARK  0 active torsions:
REMARK  status: ('A' for Active; 'I' for Inactive)
REMARK                            x       y       z     vdW  Elec       q    Type
REMARK                         _______ _______ _______ _____ _____    ______ ____
ROOT
ATOM      1  C1  UNL     1      13.645  10.380  -5.142  0.00  0.00    +0.000 A 
ATOM      2  C2  UNL     1      12.958  11.211  -5.995  0.00  0.00    +0.000 A 
ATOM      3  O1  UNL     1      13.304  12.506  -5.778  0.00  0.00    +0.000 OA
ATOM      4  C3  UNL     1      14.214  12.503  -4.770  0.00  0.00    +0.000 A 
ATOM      5  C4  UNL     1      14.471  11.215  -4.338  0.00  0.00    +0.000 A 
ATOM      6  C5  UNL     1      14.740  13.810  -4.322  0.00  0.00    +0.000 C 
ATOM      7  C6  UNL     1      14.737  13.933  -2.799  0.00  0.00    +0.000 C 
ATOM      8  C7  UNL     1      15.666  12.944  -2.079  0.00  0.00    +0.000 C 
ATOM      9  N1  UNL     1      15.180  11.561  -2.039  0.00  0.00    +0.000 NA
ATOM     10  C8  UNL     1      15.427  10.813  -3.275  0.00  0.00    +0.000 C 
ATOM     11  H9  UNL     1      15.671  11.076  -1.288  0.00  0.00    +0.000 HD
ENDROOT
TORSDOF 0
ENDMDL
MODEL 3
REMARK VINA RESULT:    -4.111      2.146      3.799
REMARK INTER + INTRA:          -4.111
REMARK INTER:                  -4.111
REMARK INTRA:                   0.000
REMARK UNBOUND:                 0.000
REMARK  Name = /home/anacleto/Desktop/manuscript_Mpro/naturecomm/supplementary_file_S2/6-chemical-library/molecular_docking/3D_ligand_structure/214.pdb
REMARK  0 active torsions:
REMARK  status: ('A' for Active; 'I' for Inactive)
REMARK                            x       y       z     vdW  Elec       q    Type
REMARK                         _______ _______ _______ _____ _____    ______ ____
ROOT
ATOM      1  C1  UNL     1      15.031  11.439  -6.390  0.00  0.00    +0.000 A 
ATOM      2  C2  UNL     1      13.887  12.100  -6.009  0.00  0.00    +0.000 A 
ATOM      3  O1  UNL     1      13.933  12.408  -4.688  0.00  0.00    +0.000 OA
ATOM      4  C3  UNL     1      15.115  11.933  -4.218  0.00  0.00    +0.000 A 
ATOM      5  C4  UNL     1      15.842  11.328  -5.226  0.00  0.00    +0.000 A 
ATOM      6  C5  UNL     1      15.404  12.124  -2.780  0.00  0.00    +0.000 C 
ATOM      7  C6  UNL     1      15.927  10.844  -2.130  0.00  0.00    +0.000 C 
ATOM      8  C7  UNL     1      17.279  10.361  -2.672  0.00  0.00    +0.000 C 
ATOM      9  N1  UNL     1      17.225   9.747  -4.002  0.00  0.00    +0.000 NA
ATOM     10  C8  UNL     1      17.190  10.718  -5.100  0.00  0.00    +0.000 C 
ATOM     11  H9  UNL     1      18.066   9.183  -4.124  0.00  0.00    +0.000 HD
ENDROOT
TORSDOF 0
ENDMDL
MODEL 4
REMARK VINA RESULT:    -4.008     15.613     16.794
REMARK INTER + INTRA:          -4.008
REMARK INTER:                  -4.008
REMARK INTRA:                   0.000
REMARK UNBOUND:                 0.000
REMARK  Name = /home/anacleto/Desktop/manuscript_Mpro/naturecomm/supplementary_file_S2/6-chemical-library/molecular_docking/3D_ligand_structure/214.pdb
REMARK  0 active torsions:
REMARK  status: ('A' for Active; 'I' for Inactive)
REMARK                            x       y       z     vdW  Elec       q    Type
REMARK                         _______ _______ _______ _____ _____    ______ ____
ROOT
ATOM      1  C1  UNL     1      20.046   3.462   9.595  0.00  0.00    +0.000 A 
ATOM      2  C2  UNL     1      18.685   3.403   9.407  0.00  0.00    +0.000 A 
ATOM      3  O1  UNL     1      18.226   4.572   8.893  0.00  0.00    +0.000 OA
ATOM      4  C3  UNL     1      19.302   5.389   8.759  0.00  0.00    +0.000 A 
ATOM      5  C4  UNL     1      20.459   4.756   9.171  0.00  0.00    +0.000 A 
ATOM      6  C5  UNL     1      19.064   6.750   8.231  0.00  0.00    +0.000 C 
ATOM      7  C6  UNL     1      19.784   7.815   9.058  0.00  0.00    +0.000 C 
ATOM      8  C7  UNL     1      21.315   7.717   9.028  0.00  0.00    +0.000 C 
ATOM      9  N1  UNL     1      21.878   6.620   9.822  0.00  0.00    +0.000 NA
ATOM     10  C8  UNL     1      21.833   5.320   9.146  0.00  0.00    +0.000 C 
ATOM     11  H9  UNL     1      22.858   6.833  10.004  0.00  0.00    +0.000 HD
ENDROOT
TORSDOF 0
ENDMDL
MODEL 5
REMARK VINA RESULT:    -3.929     17.227     18.520
REMARK INTER + INTRA:          -3.929
REMARK INTER:                  -3.929
REMARK INTRA:                   0.000
REMARK UNBOUND:                 0.000
REMARK  Name = /home/anacleto/Desktop/manuscript_Mpro/naturecomm/supplementary_file_S2/6-chemical-library/molecular_docking/3D_ligand_structure/214.pdb
REMARK  0 active torsions:
REMARK  status: ('A' for Active; 'I' for Inactive)
REMARK                            x       y       z     vdW  Elec       q    Type
REMARK                         _______ _______ _______ _____ _____    ______ ____
ROOT
ATOM      1  C1  UNL     1      19.509   7.236   9.467  0.00  0.00    +0.000 A 
ATOM      2  C2  UNL     1      20.723   6.884   8.926  0.00  0.00    +0.000 A 
ATOM      3  O1  UNL     1      21.622   6.621   9.907  0.00  0.00    +0.000 OA
ATOM      4  C3  UNL     1      20.980   6.815  11.088  0.00  0.00    +0.000 A 
ATOM      5  C4  UNL     1      19.666   7.191  10.881  0.00  0.00    +0.000 A 
ATOM      6  C5  UNL     1      21.757   6.611  12.329  0.00  0.00    +0.000 C 
ATOM      7  C6  UNL     1      21.546   7.750  13.325  0.00  0.00    +0.000 C 
ATOM      8  C7  UNL     1      20.111   7.874  13.856  0.00  0.00    +0.000 C 
ATOM      9  N1  UNL     1      19.149   8.436  12.903  0.00  0.00    +0.000 NA
ATOM     10  C8  UNL     1      18.649   7.463  11.928  0.00  0.00    +0.000 C 
ATOM     11  H9  UNL     1      18.345   8.777  13.431  0.00  0.00    +0.000 HD
ENDROOT
TORSDOF 0
ENDMDL
MODEL 6
REMARK VINA RESULT:    -3.872     17.276     18.563
REMARK INTER + INTRA:          -3.872
REMARK INTER:                  -3.872
REMARK INTRA:                   0.000
REMARK UNBOUND:                 0.000
REMARK  Name = /home/anacleto/Desktop/manuscript_Mpro/naturecomm/supplementary_file_S2/6-chemical-library/molecular_docking/3D_ligand_structure/214.pdb
REMARK  0 active torsions:
REMARK  status: ('A' for Active; 'I' for Inactive)
REMARK                            x       y       z     vdW  Elec       q    Type
REMARK                         _______ _______ _______ _____ _____    ______ ____
ROOT
ATOM      1  C1  UNL     1      19.804   7.647  13.724  0.00  0.00    +0.000 A 
ATOM      2  C2  UNL     1      18.452   7.884  13.642  0.00  0.00    +0.000 A 
ATOM      3  O1  UNL     1      17.999   7.625  12.390  0.00  0.00    +0.000 OA
ATOM      4  C3  UNL     1      19.073   7.225  11.661  0.00  0.00    +0.000 A 
ATOM      5  C4  UNL     1      20.219   7.212  12.434  0.00  0.00    +0.000 A 
ATOM      6  C5  UNL     1      18.848   6.898  10.237  0.00  0.00    +0.000 C 
ATOM      7  C6  UNL     1      19.900   7.539   9.333  0.00  0.00    +0.000 C 
ATOM      8  C7  UNL     1      21.330   7.030   9.562  0.00  0.00    +0.000 C 
ATOM      9  N1  UNL     1      21.973   7.529  10.781  0.00  0.00    +0.000 NA
ATOM     10  C8  UNL     1      21.578   6.807  11.994  0.00  0.00    +0.000 C 
ATOM     11  H9  UNL     1      22.981   7.415  10.676  0.00  0.00    +0.000 HD
ENDROOT
TORSDOF 0
ENDMDL
MODEL 7
REMARK VINA RESULT:    -3.716     18.992     19.623
REMARK INTER + INTRA:          -3.716
REMARK INTER:                  -3.716
REMARK INTRA:                   0.000
REMARK UNBOUND:                 0.000
REMARK  Name = /home/anacleto/Desktop/manuscript_Mpro/naturecomm/supplementary_file_S2/6-chemical-library/molecular_docking/3D_ligand_structure/214.pdb
REMARK  0 active torsions:
REMARK  status: ('A' for Active; 'I' for Inactive)
REMARK                            x       y       z     vdW  Elec       q    Type
REMARK                         _______ _______ _______ _____ _____    ______ ____
ROOT
ATOM      1  C1  UNL     1      26.815  14.127  10.540  0.00  0.00    +0.000 A 
ATOM      2  C2  UNL     1      26.844  14.611   9.253  0.00  0.00    +0.000 A 
ATOM      3  O1  UNL     1      25.823  15.480   9.048  0.00  0.00    +0.000 OA
ATOM      4  C3  UNL     1      25.128  15.546  10.214  0.00  0.00    +0.000 A 
ATOM      5  C4  UNL     1      25.698  14.736  11.177  0.00  0.00    +0.000 A 
ATOM      6  C5  UNL     1      23.937  16.422  10.249  0.00  0.00    +0.000 C 
ATOM      7  C6  UNL     1      22.737  15.725  10.890  0.00  0.00    +0.000 C 
ATOM      8  C7  UNL     1      22.924  15.369  12.371  0.00  0.00    +0.000 C 
ATOM      9  N1  UNL     1      23.811  14.229  12.624  0.00  0.00    +0.000 NA
ATOM     10  C8  UNL     1      25.236  14.569  12.579  0.00  0.00    +0.000 C 
ATOM     11  H9  UNL     1      23.613  13.877  13.560  0.00  0.00    +0.000 HD
ENDROOT
TORSDOF 0
ENDMDL
MODEL 8
REMARK VINA RESULT:    -3.646     19.110     19.904
REMARK INTER + INTRA:          -3.646
REMARK INTER:                  -3.646
REMARK INTRA:                   0.000
REMARK UNBOUND:                 0.000
REMARK  Name = /home/anacleto/Desktop/manuscript_Mpro/naturecomm/supplementary_file_S2/6-chemical-library/molecular_docking/3D_ligand_structure/214.pdb
REMARK  0 active torsions:
REMARK  status: ('A' for Active; 'I' for Inactive)
REMARK                            x       y       z     vdW  Elec       q    Type
REMARK                         _______ _______ _______ _____ _____    ______ ____
ROOT
ATOM      1  C1  UNL     1      22.819  16.066  11.252  0.00  0.00    +0.000 A 
ATOM      2  C2  UNL     1      22.773  15.254  12.362  0.00  0.00    +0.000 A 
ATOM      3  O1  UNL     1      23.987  14.695  12.592  0.00  0.00    +0.000 OA
ATOM      4  C3  UNL     1      24.817  15.148  11.616  0.00  0.00    +0.000 A 
ATOM      5  C4  UNL     1      24.152  16.005  10.760  0.00  0.00    +0.000 A 
ATOM      6  C5  UNL     1      26.214  14.663  11.629  0.00  0.00    +0.000 C 
ATOM      7  C6  UNL     1      26.674  14.216  10.242  0.00  0.00    +0.000 C 
ATOM      8  C7  UNL     1      26.728  15.339   9.197  0.00  0.00    +0.000 C 
ATOM      9  N1  UNL     1      25.422  15.780   8.699  0.00  0.00    +0.000 NA
ATOM     10  C8  UNL     1      24.734  16.716   9.593  0.00  0.00    +0.000 C 
ATOM     11  H9  UNL     1      25.568  16.261   7.811  0.00  0.00    +0.000 HD
ENDROOT
TORSDOF 0
ENDMDL
MODEL 9
REMARK VINA RESULT:    -3.481      2.134      2.793
REMARK INTER + INTRA:          -3.481
REMARK INTER:                  -3.481
REMARK INTRA:                   0.000
REMARK UNBOUND:                 0.000
REMARK  Name = /home/anacleto/Desktop/manuscript_Mpro/naturecomm/supplementary_file_S2/6-chemical-library/molecular_docking/3D_ligand_structure/214.pdb
REMARK  0 active torsions:
REMARK  status: ('A' for Active; 'I' for Inactive)
REMARK                            x       y       z     vdW  Elec       q    Type
REMARK                         _______ _______ _______ _____ _____    ______ ____
ROOT
ATOM      1  C1  UNL     1      17.662  10.733  -4.047  0.00  0.00    +0.000 A 
ATOM      2  C2  UNL     1      16.968  10.513  -2.880  0.00  0.00    +0.000 A 
ATOM      3  O1  UNL     1      15.631  10.581  -3.102  0.00  0.00    +0.000 OA
ATOM      4  C3  UNL     1      15.468  10.855  -4.422  0.00  0.00    +0.000 A 
ATOM      5  C4  UNL     1      16.689  10.954  -5.062  0.00  0.00    +0.000 A 
ATOM      6  C5  UNL     1      14.084  11.003  -4.922  0.00  0.00    +0.000 C 
ATOM      7  C6  UNL     1      13.929  12.239  -5.807  0.00  0.00    +0.000 C 
ATOM      8  C7  UNL     1      14.742  12.197  -7.108  0.00  0.00    +0.000 C 
ATOM      9  N1  UNL     1      16.183  12.412  -6.940  0.00  0.00    +0.000 NA
ATOM     10  C8  UNL     1      16.911  11.216  -6.507  0.00  0.00    +0.000 C 
ATOM     11  H9  UNL     1      16.568  12.690  -7.843  0.00  0.00    +0.000 HD
ENDROOT
TORSDOF 0
ENDMDL
