MODEL 1
REMARK VINA RESULT:    -4.710      0.000      0.000
REMARK INTER + INTRA:          -5.484
REMARK INTER:                  -5.259
REMARK INTRA:                  -0.224
REMARK UNBOUND:                -0.222
REMARK  Name = /home/anacleto/Desktop/manuscript_Mpro/naturecomm/supplementary_file_S2/6-chemical-library/molecular_docking/3D_ligand_structure/964.pdb
REMARK  2 active torsions:
REMARK  status: ('A' for Active; 'I' for Inactive)
REMARK    1  A    between atoms: C3_5  and  C4_6
REMARK    2  A    between atoms: N3_8  and  C5_9
REMARK                            x       y       z     vdW  Elec       q    Type
REMARK                         _______ _______ _______ _____ _____    ______ ____
ROOT
ATOM      1  C4  UNL     1     -24.894   4.592 -39.096  0.00  0.00    +0.000 C 
ATOM      2  O1  UNL     1     -24.534   4.658 -40.265  0.00  0.00    +0.000 OA
ATOM      3  N3  UNL     1     -24.415   5.387 -38.073  0.00  0.00    +0.000 N 
ATOM      4  H4  UNL     1     -24.794   5.232 -37.152  0.00  0.00    +0.000 HD
ENDROOT
BRANCH   1   9
ATOM      5  N1  UNL     1     -25.667   2.706 -37.697  0.00  0.00    +0.000 N 
ATOM      6  C1  UNL     1     -26.789   1.945 -37.556  0.00  0.00    +0.000 A 
ATOM      7  N2  UNL     1     -27.725   2.314 -38.398  0.00  0.00    +0.000 NA
ATOM      8  C2  UNL     1     -27.183   3.355 -39.108  0.00  0.00    +0.000 A 
ATOM      9  C3  UNL     1     -25.893   3.629 -38.696  0.00  0.00    +0.000 A 
ATOM     10  H1  UNL     1     -24.807   2.624 -37.170  0.00  0.00    +0.000 HD
ENDBRANCH   1   9
BRANCH   3  11
ATOM     11  C5  UNL     1     -23.441   6.405 -38.174  0.00  0.00    +0.000 A 
ATOM     12  C6  UNL     1     -22.109   6.049 -37.950  0.00  0.00    +0.000 A 
ATOM     13  C7  UNL     1     -21.104   7.011 -38.036  0.00  0.00    +0.000 A 
ATOM     14  C8  UNL     1     -21.464   8.311 -38.344  0.00  0.00    +0.000 A 
ATOM     15  N4  UNL     1     -22.736   8.697 -38.569  0.00  0.00    +0.000 NA
ATOM     16  C9  UNL     1     -23.696   7.739 -38.478  0.00  0.00    +0.000 A 
ENDBRANCH   3  11
TORSDOF 2
ENDMDL
MODEL 2
REMARK VINA RESULT:    -4.668     25.930     27.328
REMARK INTER + INTRA:          -5.436
REMARK INTER:                  -5.203
REMARK INTRA:                  -0.233
REMARK UNBOUND:                -0.222
REMARK  Name = /home/anacleto/Desktop/manuscript_Mpro/naturecomm/supplementary_file_S2/6-chemical-library/molecular_docking/3D_ligand_structure/964.pdb
REMARK  2 active torsions:
REMARK  status: ('A' for Active; 'I' for Inactive)
REMARK    1  A    between atoms: C3_5  and  C4_6
REMARK    2  A    between atoms: N3_8  and  C5_9
REMARK                            x       y       z     vdW  Elec       q    Type
REMARK                         _______ _______ _______ _____ _____    ______ ____
ROOT
ATOM      1  C4  UNL     1     -37.737   3.841 -14.644  0.00  0.00    +0.000 C 
ATOM      2  O1  UNL     1     -37.675   3.598 -13.445  0.00  0.00    +0.000 OA
ATOM      3  N3  UNL     1     -37.892   5.100 -15.190  0.00  0.00    +0.000 N 
ATOM      4  H4  UNL     1     -37.929   5.165 -16.196  0.00  0.00    +0.000 HD
ENDROOT
BRANCH   1   9
ATOM      5  N1  UNL     1     -37.160   2.965 -16.883  0.00  0.00    +0.000 N 
ATOM      6  C1  UNL     1     -37.205   1.775 -17.545  0.00  0.00    +0.000 A 
ATOM      7  N2  UNL     1     -37.690   0.823 -16.784  0.00  0.00    +0.000 NA
ATOM      8  C2  UNL     1     -37.968   1.426 -15.584  0.00  0.00    +0.000 A 
ATOM      9  C3  UNL     1     -37.649   2.770 -15.609  0.00  0.00    +0.000 A 
ATOM     10  H1  UNL     1     -36.829   3.850 -17.245  0.00  0.00    +0.000 HD
ENDBRANCH   1   9
BRANCH   3  11
ATOM     11  C5  UNL     1     -38.005   6.321 -14.490  0.00  0.00    +0.000 A 
ATOM     12  C6  UNL     1     -39.288   6.748 -14.139  0.00  0.00    +0.000 A 
ATOM     13  C7  UNL     1     -39.462   7.946 -13.447  0.00  0.00    +0.000 A 
ATOM     14  C8  UNL     1     -38.339   8.687 -13.125  0.00  0.00    +0.000 A 
ATOM     15  N4  UNL     1     -37.083   8.311 -13.443  0.00  0.00    +0.000 NA
ATOM     16  C9  UNL     1     -36.943   7.140 -14.118  0.00  0.00    +0.000 A 
ENDBRANCH   3  11
TORSDOF 2
ENDMDL
MODEL 3
REMARK VINA RESULT:    -4.658     24.447     26.418
REMARK INTER + INTRA:          -5.425
REMARK INTER:                  -5.190
REMARK INTRA:                  -0.235
REMARK UNBOUND:                -0.222
REMARK  Name = /home/anacleto/Desktop/manuscript_Mpro/naturecomm/supplementary_file_S2/6-chemical-library/molecular_docking/3D_ligand_structure/964.pdb
REMARK  2 active torsions:
REMARK  status: ('A' for Active; 'I' for Inactive)
REMARK    1  A    between atoms: C3_5  and  C4_6
REMARK    2  A    between atoms: N3_8  and  C5_9
REMARK                            x       y       z     vdW  Elec       q    Type
REMARK                         _______ _______ _______ _____ _____    ______ ____
ROOT
ATOM      1  C4  UNL     1     -37.761   3.057 -15.284  0.00  0.00    +0.000 C 
ATOM      2  O1  UNL     1     -38.055   2.054 -14.643  0.00  0.00    +0.000 OA
ATOM      3  N3  UNL     1     -37.378   3.066 -16.610  0.00  0.00    +0.000 N 
ATOM      4  H4  UNL     1     -37.162   3.961 -17.022  0.00  0.00    +0.000 HD
ENDROOT
BRANCH   1   9
ATOM      5  N1  UNL     1     -37.297   5.485 -15.268  0.00  0.00    +0.000 N 
ATOM      6  C1  UNL     1     -37.480   6.544 -14.430  0.00  0.00    +0.000 A 
ATOM      7  N2  UNL     1     -38.067   6.175 -13.316  0.00  0.00    +0.000 NA
ATOM      8  C2  UNL     1     -38.270   4.825 -13.444  0.00  0.00    +0.000 A 
ATOM      9  C3  UNL     1     -37.800   4.357 -14.656  0.00  0.00    +0.000 A 
ATOM     10  H1  UNL     1     -36.870   5.503 -16.185  0.00  0.00    +0.000 HD
ENDBRANCH   1   9
BRANCH   3  11
ATOM     11  C5  UNL     1     -37.253   1.950 -17.465  0.00  0.00    +0.000 A 
ATOM     12  C6  UNL     1     -38.397   1.526 -18.146  0.00  0.00    +0.000 A 
ATOM     13  C7  UNL     1     -38.335   0.429 -19.004  0.00  0.00    +0.000 A 
ATOM     14  C8  UNL     1     -37.121  -0.217 -19.156  0.00  0.00    +0.000 A 
ATOM     15  N4  UNL     1     -35.993   0.159 -18.520  0.00  0.00    +0.000 NA
ATOM     16  C9  UNL     1     -36.083   1.230 -17.690  0.00  0.00    +0.000 A 
ENDBRANCH   3  11
TORSDOF 2
ENDMDL
MODEL 4
REMARK VINA RESULT:    -4.287     14.935     16.968
REMARK INTER + INTRA:          -5.011
REMARK INTER:                  -4.798
REMARK INTRA:                  -0.213
REMARK UNBOUND:                -0.222
REMARK  Name = /home/anacleto/Desktop/manuscript_Mpro/naturecomm/supplementary_file_S2/6-chemical-library/molecular_docking/3D_ligand_structure/964.pdb
REMARK  2 active torsions:
REMARK  status: ('A' for Active; 'I' for Inactive)
REMARK    1  A    between atoms: C3_5  and  C4_6
REMARK    2  A    between atoms: N3_8  and  C5_9
REMARK                            x       y       z     vdW  Elec       q    Type
REMARK                         _______ _______ _______ _____ _____    ______ ____
ROOT
ATOM      1  C4  UNL     1     -24.128  -3.830 -24.069  0.00  0.00    +0.000 C 
ATOM      2  O1  UNL     1     -24.153  -2.604 -24.064  0.00  0.00    +0.000 OA
ATOM      3  N3  UNL     1     -24.096  -4.617 -25.202  0.00  0.00    +0.000 N 
ATOM      4  H4  UNL     1     -24.078  -5.617 -25.069  0.00  0.00    +0.000 HD
ENDROOT
BRANCH   1   9
ATOM      5  N1  UNL     1     -25.291  -4.800 -22.115  0.00  0.00    +0.000 N 
ATOM      6  C1  UNL     1     -24.969  -5.507 -20.995  0.00  0.00    +0.000 A 
ATOM      7  N2  UNL     1     -23.679  -5.741 -20.933  0.00  0.00    +0.000 NA
ATOM      8  C2  UNL     1     -23.152  -5.161 -22.058  0.00  0.00    +0.000 A 
ATOM      9  C3  UNL     1     -24.133  -4.561 -22.823  0.00  0.00    +0.000 A 
ATOM     10  H1  UNL     1     -26.214  -4.494 -22.395  0.00  0.00    +0.000 HD
ENDBRANCH   1   9
BRANCH   3  11
ATOM     11  C5  UNL     1     -24.084  -4.175 -26.543  0.00  0.00    +0.000 A 
ATOM     12  C6  UNL     1     -25.313  -4.076 -27.201  0.00  0.00    +0.000 A 
ATOM     13  C7  UNL     1     -25.364  -3.644 -28.526  0.00  0.00    +0.000 A 
ATOM     14  C8  UNL     1     -24.176  -3.325 -29.158  0.00  0.00    +0.000 A 
ATOM     15  N4  UNL     1     -22.970  -3.405 -28.561  0.00  0.00    +0.000 NA
ATOM     16  C9  UNL     1     -22.949  -3.829 -27.270  0.00  0.00    +0.000 A 
ENDBRANCH   3  11
TORSDOF 2
ENDMDL
MODEL 5
REMARK VINA RESULT:    -4.258     13.460     14.382
REMARK INTER + INTRA:          -4.979
REMARK INTER:                  -4.780
REMARK INTRA:                  -0.199
REMARK UNBOUND:                -0.222
REMARK  Name = /home/anacleto/Desktop/manuscript_Mpro/naturecomm/supplementary_file_S2/6-chemical-library/molecular_docking/3D_ligand_structure/964.pdb
REMARK  2 active torsions:
REMARK  status: ('A' for Active; 'I' for Inactive)
REMARK    1  A    between atoms: C3_5  and  C4_6
REMARK    2  A    between atoms: N3_8  and  C5_9
REMARK                            x       y       z     vdW  Elec       q    Type
REMARK                         _______ _______ _______ _____ _____    ______ ____
ROOT
ATOM      1  C4  UNL     1     -24.318  -3.832 -28.588  0.00  0.00    +0.000 C 
ATOM      2  O1  UNL     1     -23.884  -2.895 -29.249  0.00  0.00    +0.000 OA
ATOM      3  N3  UNL     1     -23.545  -4.823 -28.017  0.00  0.00    +0.000 N 
ATOM      4  H4  UNL     1     -24.026  -5.540 -27.495  0.00  0.00    +0.000 HD
ENDROOT
BRANCH   1   9
ATOM      5  N1  UNL     1     -26.626  -2.950 -28.649  0.00  0.00    +0.000 N 
ATOM      6  C1  UNL     1     -27.880  -3.373 -28.320  0.00  0.00    +0.000 A 
ATOM      7  N2  UNL     1     -27.860  -4.591 -27.833  0.00  0.00    +0.000 NA
ATOM      8  C2  UNL     1     -26.540  -4.966 -27.851  0.00  0.00    +0.000 A 
ATOM      9  C3  UNL     1     -25.738  -3.962 -28.356  0.00  0.00    +0.000 A 
ATOM     10  H1  UNL     1     -26.372  -2.052 -29.041  0.00  0.00    +0.000 HD
ENDBRANCH   1   9
BRANCH   3  11
ATOM     11  C5  UNL     1     -22.140  -4.947 -28.081  0.00  0.00    +0.000 A 
ATOM     12  C6  UNL     1     -21.414  -4.681 -26.917  0.00  0.00    +0.000 A 
ATOM     13  C7  UNL     1     -20.024  -4.787 -26.920  0.00  0.00    +0.000 A 
ATOM     14  C8  UNL     1     -19.397  -5.158 -28.096  0.00  0.00    +0.000 A 
ATOM     15  N4  UNL     1     -20.058  -5.425 -29.240  0.00  0.00    +0.000 NA
ATOM     16  C9  UNL     1     -21.412  -5.314 -29.209  0.00  0.00    +0.000 A 
ENDBRANCH   3  11
TORSDOF 2
ENDMDL
MODEL 6
REMARK VINA RESULT:    -4.246     13.968     15.830
REMARK INTER + INTRA:          -4.965
REMARK INTER:                  -4.754
REMARK INTRA:                  -0.210
REMARK UNBOUND:                -0.222
REMARK  Name = /home/anacleto/Desktop/manuscript_Mpro/naturecomm/supplementary_file_S2/6-chemical-library/molecular_docking/3D_ligand_structure/964.pdb
REMARK  2 active torsions:
REMARK  status: ('A' for Active; 'I' for Inactive)
REMARK    1  A    between atoms: C3_5  and  C4_6
REMARK    2  A    between atoms: N3_8  and  C5_9
REMARK                            x       y       z     vdW  Elec       q    Type
REMARK                         _______ _______ _______ _____ _____    ______ ____
ROOT
ATOM      1  C4  UNL     1     -22.075  -4.920 -27.551  0.00  0.00    +0.000 C 
ATOM      2  O1  UNL     1     -22.314  -5.881 -28.273  0.00  0.00    +0.000 OA
ATOM      3  N3  UNL     1     -23.026  -4.072 -27.020  0.00  0.00    +0.000 N 
ATOM      4  H4  UNL     1     -22.698  -3.315 -26.440  0.00  0.00    +0.000 HD
ENDROOT
BRANCH   1   9
ATOM      5  N1  UNL     1     -20.169  -4.951 -25.977  0.00  0.00    +0.000 N 
ATOM      6  C1  UNL     1     -18.879  -4.513 -25.942  0.00  0.00    +0.000 A 
ATOM      7  N2  UNL     1     -18.552  -3.901 -27.056  0.00  0.00    +0.000 NA
ATOM      8  C2  UNL     1     -19.678  -3.950 -27.838  0.00  0.00    +0.000 A 
ATOM      9  C3  UNL     1     -20.712  -4.600 -27.194  0.00  0.00    +0.000 A 
ATOM     10  H1  UNL     1     -20.661  -5.449 -25.246  0.00  0.00    +0.000 HD
ENDBRANCH   1   9
BRANCH   3  11
ATOM     11  C5  UNL     1     -24.425  -4.145 -27.202  0.00  0.00    +0.000 A 
ATOM     12  C6  UNL     1     -25.180  -4.722 -26.177  0.00  0.00    +0.000 A 
ATOM     13  C7  UNL     1     -26.565  -4.821 -26.300  0.00  0.00    +0.000 A 
ATOM     14  C8  UNL     1     -27.158  -4.339 -27.453  0.00  0.00    +0.000 A 
ATOM     15  N4  UNL     1     -26.468  -3.775 -28.465  0.00  0.00    +0.000 NA
ATOM     16  C9  UNL     1     -25.119  -3.691 -28.319  0.00  0.00    +0.000 A 
ENDBRANCH   3  11
TORSDOF 2
ENDMDL
MODEL 7
REMARK VINA RESULT:    -4.000     13.434     15.100
REMARK INTER + INTRA:          -4.691
REMARK INTER:                  -4.481
REMARK INTRA:                  -0.209
REMARK UNBOUND:                -0.222
REMARK  Name = /home/anacleto/Desktop/manuscript_Mpro/naturecomm/supplementary_file_S2/6-chemical-library/molecular_docking/3D_ligand_structure/964.pdb
REMARK  2 active torsions:
REMARK  status: ('A' for Active; 'I' for Inactive)
REMARK    1  A    between atoms: C3_5  and  C4_6
REMARK    2  A    between atoms: N3_8  and  C5_9
REMARK                            x       y       z     vdW  Elec       q    Type
REMARK                         _______ _______ _______ _____ _____    ______ ____
ROOT
ATOM      1  C4  UNL     1     -35.138  -4.540 -36.940  0.00  0.00    +0.000 C 
ATOM      2  O1  UNL     1     -35.266  -5.530 -36.229  0.00  0.00    +0.000 OA
ATOM      3  N3  UNL     1     -34.633  -4.547 -38.225  0.00  0.00    +0.000 N 
ATOM      4  H4  UNL     1     -34.580  -3.662 -38.705  0.00  0.00    +0.000 HD
ENDROOT
BRANCH   1   9
ATOM      5  N1  UNL     1     -34.604  -2.291 -36.064  0.00  0.00    +0.000 N 
ATOM      6  C1  UNL     1     -35.277  -1.179 -35.655  0.00  0.00    +0.000 A 
ATOM      7  N2  UNL     1     -36.576  -1.345 -35.751  0.00  0.00    +0.000 NA
ATOM      8  C2  UNL     1     -36.742  -2.614 -36.242  0.00  0.00    +0.000 A 
ATOM      9  C3  UNL     1     -35.528  -3.238 -36.451  0.00  0.00    +0.000 A 
ATOM     10  H1  UNL     1     -33.600  -2.419 -36.088  0.00  0.00    +0.000 HD
ENDBRANCH   1   9
BRANCH   3  11
ATOM     11  C5  UNL     1     -34.178  -5.670 -38.952  0.00  0.00    +0.000 A 
ATOM     12  C6  UNL     1     -32.857  -6.079 -38.748  0.00  0.00    +0.000 A 
ATOM     13  C7  UNL     1     -32.352  -7.180 -39.437  0.00  0.00    +0.000 A 
ATOM     14  C8  UNL     1     -33.188  -7.844 -40.317  0.00  0.00    +0.000 A 
ATOM     15  N4  UNL     1     -34.468  -7.484 -40.543  0.00  0.00    +0.000 NA
ATOM     16  C9  UNL     1     -34.934  -6.407 -39.858  0.00  0.00    +0.000 A 
ENDBRANCH   3  11
TORSDOF 2
ENDMDL
MODEL 8
REMARK VINA RESULT:    -3.904     18.789     20.841
REMARK INTER + INTRA:          -4.583
REMARK INTER:                  -4.349
REMARK INTRA:                  -0.234
REMARK UNBOUND:                -0.222
REMARK  Name = /home/anacleto/Desktop/manuscript_Mpro/naturecomm/supplementary_file_S2/6-chemical-library/molecular_docking/3D_ligand_structure/964.pdb
REMARK  2 active torsions:
REMARK  status: ('A' for Active; 'I' for Inactive)
REMARK    1  A    between atoms: C3_5  and  C4_6
REMARK    2  A    between atoms: N3_8  and  C5_9
REMARK                            x       y       z     vdW  Elec       q    Type
REMARK                         _______ _______ _______ _____ _____    ______ ____
ROOT
ATOM      1  C4  UNL     1     -24.421  -5.409 -21.945  0.00  0.00    +0.000 C 
ATOM      2  O1  UNL     1     -24.640  -6.603 -22.111  0.00  0.00    +0.000 OA
ATOM      3  N3  UNL     1     -24.137  -4.817 -20.731  0.00  0.00    +0.000 N 
ATOM      4  H4  UNL     1     -23.976  -3.822 -20.729  0.00  0.00    +0.000 HD
ENDROOT
BRANCH   1   9
ATOM      5  N1  UNL     1     -24.138  -3.166 -22.943  0.00  0.00    +0.000 N 
ATOM      6  C1  UNL     1     -24.256  -2.581 -24.169  0.00  0.00    +0.000 A 
ATOM      7  N2  UNL     1     -24.624  -3.452 -25.079  0.00  0.00    +0.000 NA
ATOM      8  C2  UNL     1     -24.747  -4.644 -24.410  0.00  0.00    +0.000 A 
ATOM      9  C3  UNL     1     -24.449  -4.502 -23.069  0.00  0.00    +0.000 A 
ATOM     10  H1  UNL     1     -23.868  -2.713 -22.079  0.00  0.00    +0.000 HD
ENDBRANCH   1   9
BRANCH   3  11
ATOM     11  C5  UNL     1     -24.045  -5.457 -19.475  0.00  0.00    +0.000 A 
ATOM     12  C6  UNL     1     -25.149  -5.367 -18.622  0.00  0.00    +0.000 A 
ATOM     13  C7  UNL     1     -25.116  -5.979 -17.370  0.00  0.00    +0.000 A 
ATOM     14  C8  UNL     1     -23.972  -6.666 -17.005  0.00  0.00    +0.000 A 
ATOM     15  N4  UNL     1     -22.886  -6.778 -17.796  0.00  0.00    +0.000 NA
ATOM     16  C9  UNL     1     -22.945  -6.172 -19.011  0.00  0.00    +0.000 A 
ENDBRANCH   3  11
TORSDOF 2
ENDMDL
MODEL 9
REMARK VINA RESULT:    -3.872     13.852     14.742
REMARK INTER + INTRA:          -4.547
REMARK INTER:                  -4.325
REMARK INTRA:                  -0.222
REMARK UNBOUND:                -0.222
REMARK  Name = /home/anacleto/Desktop/manuscript_Mpro/naturecomm/supplementary_file_S2/6-chemical-library/molecular_docking/3D_ligand_structure/964.pdb
REMARK  2 active torsions:
REMARK  status: ('A' for Active; 'I' for Inactive)
REMARK    1  A    between atoms: C3_5  and  C4_6
REMARK    2  A    between atoms: N3_8  and  C5_9
REMARK                            x       y       z     vdW  Elec       q    Type
REMARK                         _______ _______ _______ _____ _____    ______ ____
ROOT
ATOM      1  C4  UNL     1     -34.741  -5.203 -37.106  0.00  0.00    +0.000 C 
ATOM      2  O1  UNL     1     -35.218  -5.572 -36.039  0.00  0.00    +0.000 OA
ATOM      3  N3  UNL     1     -34.938  -3.960 -37.674  0.00  0.00    +0.000 N 
ATOM      4  H4  UNL     1     -34.489  -3.780 -38.559  0.00  0.00    +0.000 HD
ENDROOT
BRANCH   1   9
ATOM      5  N1  UNL     1     -33.664  -7.394 -37.488  0.00  0.00    +0.000 N 
ATOM      6  C1  UNL     1     -32.843  -7.970 -38.411  0.00  0.00    +0.000 A 
ATOM      7  N2  UNL     1     -32.534  -7.127 -39.368  0.00  0.00    +0.000 NA
ATOM      8  C2  UNL     1     -33.185  -5.963 -39.047  0.00  0.00    +0.000 A 
ATOM      9  C3  UNL     1     -33.903  -6.093 -37.874  0.00  0.00    +0.000 A 
ATOM     10  H1  UNL     1     -34.044  -7.830 -36.657  0.00  0.00    +0.000 HD
ENDBRANCH   1   9
BRANCH   3  11
ATOM     11  C5  UNL     1     -35.706  -2.898 -37.148  0.00  0.00    +0.000 A 
ATOM     12  C6  UNL     1     -35.083  -2.036 -36.242  0.00  0.00    +0.000 A 
ATOM     13  C7  UNL     1     -35.792  -0.970 -35.689  0.00  0.00    +0.000 A 
ATOM     14  C8  UNL     1     -37.113  -0.797 -36.061  0.00  0.00    +0.000 A 
ATOM     15  N4  UNL     1     -37.753  -1.604 -36.932  0.00  0.00    +0.000 NA
ATOM     16  C9  UNL     1     -37.038  -2.635 -37.455  0.00  0.00    +0.000 A 
ENDBRANCH   3  11
TORSDOF 2
ENDMDL
