MODEL 1
REMARK VINA RESULT:    -4.140      0.000      0.000
REMARK INTER + INTRA:          -4.140
REMARK INTER:                  -4.140
REMARK INTRA:                   0.000
REMARK UNBOUND:                 0.000
REMARK  Name = /home/anacleto/Desktop/manuscript_Mpro/naturecomm/supplementary_file_S2/6-chemical-library/molecular_docking/3D_ligand_structure/1471.pdb
REMARK  0 active torsions:
REMARK  status: ('A' for Active; 'I' for Inactive)
REMARK                            x       y       z     vdW  Elec       q    Type
REMARK                         _______ _______ _______ _____ _____    ______ ____
ROOT
ATOM      1  C1  UNL     1     -24.936   3.590 -40.852  0.00  0.00    +0.000 C 
ATOM      2  C2  UNL     1     -24.751   4.934 -40.158  0.00  0.00    +0.000 C 
ATOM      3  C3  UNL     1     -24.699   4.606 -38.671  0.00  0.00    +0.000 C 
ATOM      4  C4  UNL     1     -25.553   3.358 -38.481  0.00  0.00    +0.000 C 
ATOM      5  C5  UNL     1     -25.704   2.709 -39.873  0.00  0.00    +0.000 C 
ATOM      6  C6  UNL     1     -27.019   3.519 -38.017  0.00  0.00    +0.000 C 
ATOM      7  C7  UNL     1     -27.640   2.237 -38.588  0.00  0.00    +0.000 C 
ATOM      8  C8  UNL     1     -27.237   2.582 -40.028  0.00  0.00    +0.000 C 
ATOM      9  C9  UNL     1     -27.931   3.943 -40.202  0.00  0.00    +0.000 C 
ATOM     10  C10 UNL     1     -27.780   4.589 -38.817  0.00  0.00    +0.000 C 
ENDROOT
TORSDOF 0
ENDMDL
MODEL 2
REMARK VINA RESULT:    -4.102      1.223      2.097
REMARK INTER + INTRA:          -4.102
REMARK INTER:                  -4.102
REMARK INTRA:                   0.000
REMARK UNBOUND:                 0.000
REMARK  Name = /home/anacleto/Desktop/manuscript_Mpro/naturecomm/supplementary_file_S2/6-chemical-library/molecular_docking/3D_ligand_structure/1471.pdb
REMARK  0 active torsions:
REMARK  status: ('A' for Active; 'I' for Inactive)
REMARK                            x       y       z     vdW  Elec       q    Type
REMARK                         _______ _______ _______ _____ _____    ______ ____
ROOT
ATOM      1  C1  UNL     1     -25.661   2.598 -39.971  0.00  0.00    +0.000 C 
ATOM      2  C2  UNL     1     -25.433   2.845 -38.484  0.00  0.00    +0.000 C 
ATOM      3  C3  UNL     1     -26.672   2.282 -37.797  0.00  0.00    +0.000 C 
ATOM      4  C4  UNL     1     -27.816   2.435 -38.793  0.00  0.00    +0.000 C 
ATOM      5  C5  UNL     1     -27.171   2.637 -40.180  0.00  0.00    +0.000 C 
ATOM      6  C6  UNL     1     -28.755   3.658 -38.671  0.00  0.00    +0.000 C 
ATOM      7  C7  UNL     1     -29.244   3.785 -40.120  0.00  0.00    +0.000 C 
ATOM      8  C8  UNL     1     -27.823   3.949 -40.675  0.00  0.00    +0.000 C 
ATOM      9  C9  UNL     1     -27.346   5.181 -39.889  0.00  0.00    +0.000 C 
ATOM     10  C10 UNL     1     -27.988   4.981 -38.508  0.00  0.00    +0.000 C 
ENDROOT
TORSDOF 0
ENDMDL
MODEL 3
REMARK VINA RESULT:    -4.020      5.522      7.041
REMARK INTER + INTRA:          -4.020
REMARK INTER:                  -4.020
REMARK INTRA:                   0.000
REMARK UNBOUND:                 0.000
REMARK  Name = /home/anacleto/Desktop/manuscript_Mpro/naturecomm/supplementary_file_S2/6-chemical-library/molecular_docking/3D_ligand_structure/1471.pdb
REMARK  0 active torsions:
REMARK  status: ('A' for Active; 'I' for Inactive)
REMARK                            x       y       z     vdW  Elec       q    Type
REMARK                         _______ _______ _______ _____ _____    ______ ____
ROOT
ATOM      1  C1  UNL     1     -19.521   9.167 -38.410  0.00  0.00    +0.000 C 
ATOM      2  C2  UNL     1     -20.557  10.278 -38.278  0.00  0.00    +0.000 C 
ATOM      3  C3  UNL     1     -21.481   9.823 -37.155  0.00  0.00    +0.000 C 
ATOM      4  C4  UNL     1     -21.474   8.300 -37.190  0.00  0.00    +0.000 C 
ATOM      5  C5  UNL     1     -20.224   7.881 -37.992  0.00  0.00    +0.000 C 
ATOM      6  C6  UNL     1     -22.617   7.564 -37.929  0.00  0.00    +0.000 C 
ATOM      7  C7  UNL     1     -21.917   6.249 -38.295  0.00  0.00    +0.000 C 
ATOM      8  C8  UNL     1     -20.811   6.960 -39.086  0.00  0.00    +0.000 C 
ATOM      9  C9  UNL     1     -21.645   7.728 -40.123  0.00  0.00    +0.000 C 
ATOM     10  C10 UNL     1     -22.890   8.145 -39.326  0.00  0.00    +0.000 C 
ENDROOT
TORSDOF 0
ENDMDL
MODEL 4
REMARK VINA RESULT:    -3.983     12.312     14.000
REMARK INTER + INTRA:          -3.983
REMARK INTER:                  -3.983
REMARK INTRA:                   0.000
REMARK UNBOUND:                 0.000
REMARK  Name = /home/anacleto/Desktop/manuscript_Mpro/naturecomm/supplementary_file_S2/6-chemical-library/molecular_docking/3D_ligand_structure/1471.pdb
REMARK  0 active torsions:
REMARK  status: ('A' for Active; 'I' for Inactive)
REMARK                            x       y       z     vdW  Elec       q    Type
REMARK                         _______ _______ _______ _____ _____    ______ ____
ROOT
ATOM      1  C1  UNL     1     -33.735  11.358 -33.676  0.00  0.00    +0.000 C 
ATOM      2  C2  UNL     1     -33.928  12.828 -34.030  0.00  0.00    +0.000 C 
ATOM      3  C3  UNL     1     -34.329  13.499 -32.722  0.00  0.00    +0.000 C 
ATOM      4  C4  UNL     1     -35.064  12.439 -31.909  0.00  0.00    +0.000 C 
ATOM      5  C5  UNL     1     -34.684  11.073 -32.518  0.00  0.00    +0.000 C 
ATOM      6  C6  UNL     1     -36.609  12.411 -31.940  0.00  0.00    +0.000 C 
ATOM      7  C7  UNL     1     -36.873  10.935 -31.616  0.00  0.00    +0.000 C 
ATOM      8  C8  UNL     1     -36.062  10.438 -32.820  0.00  0.00    +0.000 C 
ATOM      9  C9  UNL     1     -36.798  11.139 -33.973  0.00  0.00    +0.000 C 
ATOM     10  C10 UNL     1     -37.175  12.499 -33.368  0.00  0.00    +0.000 C 
ENDROOT
TORSDOF 0
ENDMDL
MODEL 5
REMARK VINA RESULT:    -3.981      0.784      3.151
REMARK INTER + INTRA:          -3.981
REMARK INTER:                  -3.981
REMARK INTRA:                   0.000
REMARK UNBOUND:                 0.000
REMARK  Name = /home/anacleto/Desktop/manuscript_Mpro/naturecomm/supplementary_file_S2/6-chemical-library/molecular_docking/3D_ligand_structure/1471.pdb
REMARK  0 active torsions:
REMARK  status: ('A' for Active; 'I' for Inactive)
REMARK                            x       y       z     vdW  Elec       q    Type
REMARK                         _______ _______ _______ _____ _____    ______ ____
ROOT
ATOM      1  C1  UNL     1     -28.495   4.360 -39.617  0.00  0.00    +0.000 C 
ATOM      2  C2  UNL     1     -28.593   2.846 -39.772  0.00  0.00    +0.000 C 
ATOM      3  C3  UNL     1     -27.892   2.278 -38.545  0.00  0.00    +0.000 C 
ATOM      4  C4  UNL     1     -26.825   3.294 -38.157  0.00  0.00    +0.000 C 
ATOM      5  C5  UNL     1     -27.209   4.623 -38.841  0.00  0.00    +0.000 C 
ATOM      6  C6  UNL     1     -25.371   3.071 -38.634  0.00  0.00    +0.000 C 
ATOM      7  C7  UNL     1     -24.849   4.514 -38.639  0.00  0.00    +0.000 C 
ATOM      8  C8  UNL     1     -25.926   4.990 -39.623  0.00  0.00    +0.000 C 
ATOM      9  C9  UNL     1     -25.667   4.050 -40.812  0.00  0.00    +0.000 C 
ATOM     10  C10 UNL     1     -25.285   2.728 -40.131  0.00  0.00    +0.000 C 
ENDROOT
TORSDOF 0
ENDMDL
MODEL 6
REMARK VINA RESULT:    -3.807      4.924      6.817
REMARK INTER + INTRA:          -3.807
REMARK INTER:                  -3.807
REMARK INTRA:                   0.000
REMARK UNBOUND:                 0.000
REMARK  Name = /home/anacleto/Desktop/manuscript_Mpro/naturecomm/supplementary_file_S2/6-chemical-library/molecular_docking/3D_ligand_structure/1471.pdb
REMARK  0 active torsions:
REMARK  status: ('A' for Active; 'I' for Inactive)
REMARK                            x       y       z     vdW  Elec       q    Type
REMARK                         _______ _______ _______ _____ _____    ______ ____
ROOT
ATOM      1  C1  UNL     1     -22.982   9.773 -38.666  0.00  0.00    +0.000 C 
ATOM      2  C2  UNL     1     -23.037   9.464 -37.174  0.00  0.00    +0.000 C 
ATOM      3  C3  UNL     1     -21.591   9.199 -36.773  0.00  0.00    +0.000 C 
ATOM      4  C4  UNL     1     -20.906   8.627 -38.008  0.00  0.00    +0.000 C 
ATOM      5  C5  UNL     1     -21.794   8.993 -39.216  0.00  0.00    +0.000 C 
ATOM      6  C6  UNL     1     -20.763   7.093 -38.141  0.00  0.00    +0.000 C 
ATOM      7  C7  UNL     1     -20.685   6.945 -39.666  0.00  0.00    +0.000 C 
ATOM      8  C8  UNL     1     -22.046   7.622 -39.885  0.00  0.00    +0.000 C 
ATOM      9  C9  UNL     1     -22.958   6.712 -39.048  0.00  0.00    +0.000 C 
ATOM     10  C10 UNL     1     -22.075   6.347 -37.845  0.00  0.00    +0.000 C 
ENDROOT
TORSDOF 0
ENDMDL
MODEL 7
REMARK VINA RESULT:    -3.792     12.923     14.812
REMARK INTER + INTRA:          -3.792
REMARK INTER:                  -3.792
REMARK INTRA:                   0.000
REMARK UNBOUND:                 0.000
REMARK  Name = /home/anacleto/Desktop/manuscript_Mpro/naturecomm/supplementary_file_S2/6-chemical-library/molecular_docking/3D_ligand_structure/1471.pdb
REMARK  0 active torsions:
REMARK  status: ('A' for Active; 'I' for Inactive)
REMARK                            x       y       z     vdW  Elec       q    Type
REMARK                         _______ _______ _______ _____ _____    ______ ____
ROOT
ATOM      1  C1  UNL     1     -35.854  14.036 -32.037  0.00  0.00    +0.000 C 
ATOM      2  C2  UNL     1     -37.354  13.774 -31.957  0.00  0.00    +0.000 C 
ATOM      3  C3  UNL     1     -37.485  12.469 -31.182  0.00  0.00    +0.000 C 
ATOM      4  C4  UNL     1     -36.225  11.666 -31.485  0.00  0.00    +0.000 C 
ATOM      5  C5  UNL     1     -35.184  12.667 -32.031  0.00  0.00    +0.000 C 
ATOM      6  C6  UNL     1     -36.274  10.586 -32.589  0.00  0.00    +0.000 C 
ATOM      7  C7  UNL     1     -34.799  10.541 -33.009  0.00  0.00    +0.000 C 
ATOM      8  C8  UNL     1     -34.771  12.031 -33.378  0.00  0.00    +0.000 C 
ATOM      9  C9  UNL     1     -35.891  12.088 -34.429  0.00  0.00    +0.000 C 
ATOM     10  C10 UNL     1     -36.927  11.093 -33.886  0.00  0.00    +0.000 C 
ENDROOT
TORSDOF 0
ENDMDL
MODEL 8
REMARK VINA RESULT:    -3.792     12.803     14.035
REMARK INTER + INTRA:          -3.792
REMARK INTER:                  -3.792
REMARK INTRA:                   0.000
REMARK UNBOUND:                 0.000
REMARK  Name = /home/anacleto/Desktop/manuscript_Mpro/naturecomm/supplementary_file_S2/6-chemical-library/molecular_docking/3D_ligand_structure/1471.pdb
REMARK  0 active torsions:
REMARK  status: ('A' for Active; 'I' for Inactive)
REMARK                            x       y       z     vdW  Elec       q    Type
REMARK                         _______ _______ _______ _____ _____    ______ ____
ROOT
ATOM      1  C1  UNL     1     -34.463  13.578 -33.752  0.00  0.00    +0.000 C 
ATOM      2  C2  UNL     1     -33.769  13.088 -32.486  0.00  0.00    +0.000 C 
ATOM      3  C3  UNL     1     -33.626  11.583 -32.673  0.00  0.00    +0.000 C 
ATOM      4  C4  UNL     1     -34.800  11.149 -33.543  0.00  0.00    +0.000 C 
ATOM      5  C5  UNL     1     -35.334  12.423 -34.232  0.00  0.00    +0.000 C 
ATOM      6  C6  UNL     1     -36.063  10.573 -32.862  0.00  0.00    +0.000 C 
ATOM      7  C7  UNL     1     -37.130  10.909 -33.913  0.00  0.00    +0.000 C 
ATOM      8  C8  UNL     1     -36.834  12.413 -33.856  0.00  0.00    +0.000 C 
ATOM      9  C9  UNL     1     -37.075  12.699 -32.365  0.00  0.00    +0.000 C 
ATOM     10  C10 UNL     1     -36.543  11.432 -31.680  0.00  0.00    +0.000 C 
ENDROOT
TORSDOF 0
ENDMDL
MODEL 9
REMARK VINA RESULT:    -3.747     12.985     14.541
REMARK INTER + INTRA:          -3.747
REMARK INTER:                  -3.747
REMARK INTRA:                   0.000
REMARK UNBOUND:                 0.000
REMARK  Name = /home/anacleto/Desktop/manuscript_Mpro/naturecomm/supplementary_file_S2/6-chemical-library/molecular_docking/3D_ligand_structure/1471.pdb
REMARK  0 active torsions:
REMARK  status: ('A' for Active; 'I' for Inactive)
REMARK                            x       y       z     vdW  Elec       q    Type
REMARK                         _______ _______ _______ _____ _____    ______ ____
ROOT
ATOM      1  C1  UNL     1     -36.426  13.803 -34.180  0.00  0.00    +0.000 C 
ATOM      2  C2  UNL     1     -35.856  12.917 -35.283  0.00  0.00    +0.000 C 
ATOM      3  C3  UNL     1     -36.717  11.660 -35.262  0.00  0.00    +0.000 C 
ATOM      4  C4  UNL     1     -37.186  11.490 -33.822  0.00  0.00    +0.000 C 
ATOM      5  C5  UNL     1     -37.000  12.858 -33.131  0.00  0.00    +0.000 C 
ATOM      6  C6  UNL     1     -36.410  10.529 -32.891  0.00  0.00    +0.000 C 
ATOM      7  C7  UNL     1     -36.732  11.139 -31.521  0.00  0.00    +0.000 C 
ATOM      8  C8  UNL     1     -36.141  12.504 -31.895  0.00  0.00    +0.000 C 
ATOM      9  C9  UNL     1     -34.704  12.105 -32.265  0.00  0.00    +0.000 C 
ATOM     10  C10 UNL     1     -34.889  10.744 -32.952  0.00  0.00    +0.000 C 
ENDROOT
TORSDOF 0
ENDMDL
