MODEL 1
REMARK VINA RESULT:    -4.601      0.000      0.000
REMARK INTER + INTRA:          -5.192
REMARK INTER:                  -4.853
REMARK INTRA:                  -0.339
REMARK UNBOUND:                -0.322
REMARK  Name = /home/anacleto/Desktop/manuscript_Mpro/naturecomm/supplementary_file_S2/6-chemical-library/molecular_docking/3D_ligand_structure/892.pdb
REMARK  1 active torsions:
REMARK  status: ('A' for Active; 'I' for Inactive)
REMARK    1  A    between atoms: N1_5  and  C6_9
REMARK                            x       y       z     vdW  Elec       q    Type
REMARK                         _______ _______ _______ _____ _____    ______ ____
ROOT
ATOM      1  C1  UNL     1     -31.896   0.544 -42.045  0.00  0.00    +0.000 C 
ATOM      2  C2  UNL     1     -31.118   1.526 -41.581  0.00  0.00    +0.000 A 
ATOM      3  C3  UNL     1     -29.860   1.280 -40.819  0.00  0.00    +0.000 A 
ATOM      4  O1  UNL     1     -29.436   0.149 -40.617  0.00  0.00    +0.000 OA
ATOM      5  N1  UNL     1     -29.293   2.515 -40.452  0.00  0.00    +0.000 N 
ATOM      6  C4  UNL     1     -30.051   3.617 -40.835  0.00  0.00    +0.000 A 
ATOM      7  S1  UNL     1     -31.433   3.198 -41.803  0.00  0.00    +0.000 S 
ATOM      8  C5  UNL     1     -29.878   4.890 -40.455  0.00  0.00    +0.000 C 
ENDROOT
BRANCH   5   9
ATOM      9  C6  UNL     1     -28.023   2.545 -39.785  0.00  0.00    +0.000 A 
ATOM     10  C7  UNL     1     -26.826   2.666 -40.509  0.00  0.00    +0.000 A 
ATOM     11  C8  UNL     1     -25.586   2.691 -39.862  0.00  0.00    +0.000 A 
ATOM     12  C9  UNL     1     -25.522   2.589 -38.476  0.00  0.00    +0.000 A 
ATOM     13  C10 UNL     1     -26.695   2.452 -37.740  0.00  0.00    +0.000 A 
ATOM     14  C11 UNL     1     -27.932   2.425 -38.390  0.00  0.00    +0.000 A 
ENDBRANCH   5   9
TORSDOF 1
ENDMDL
MODEL 2
REMARK VINA RESULT:    -4.597      1.570      1.768
REMARK INTER + INTRA:          -5.188
REMARK INTER:                  -4.855
REMARK INTRA:                  -0.333
REMARK UNBOUND:                -0.322
REMARK  Name = /home/anacleto/Desktop/manuscript_Mpro/naturecomm/supplementary_file_S2/6-chemical-library/molecular_docking/3D_ligand_structure/892.pdb
REMARK  1 active torsions:
REMARK  status: ('A' for Active; 'I' for Inactive)
REMARK    1  A    between atoms: N1_5  and  C6_9
REMARK                            x       y       z     vdW  Elec       q    Type
REMARK                         _______ _______ _______ _____ _____    ______ ____
ROOT
ATOM      1  C1  UNL     1     -32.315   3.187 -41.873  0.00  0.00    +0.000 C 
ATOM      2  C2  UNL     1     -31.456   3.692 -40.983  0.00  0.00    +0.000 A 
ATOM      3  C3  UNL     1     -30.131   3.073 -40.686  0.00  0.00    +0.000 A 
ATOM      4  O1  UNL     1     -29.729   2.085 -41.287  0.00  0.00    +0.000 OA
ATOM      5  N1  UNL     1     -29.483   3.827 -39.690  0.00  0.00    +0.000 N 
ATOM      6  C4  UNL     1     -30.239   4.893 -39.210  0.00  0.00    +0.000 A 
ATOM      7  S1  UNL     1     -31.732   5.118 -40.071  0.00  0.00    +0.000 S 
ATOM      8  C5  UNL     1     -29.979   5.652 -38.138  0.00  0.00    +0.000 C 
ENDROOT
BRANCH   5   9
ATOM      9  C6  UNL     1     -28.147   3.484 -39.293  0.00  0.00    +0.000 A 
ATOM     10  C7  UNL     1     -27.034   4.000 -39.976  0.00  0.00    +0.000 A 
ATOM     11  C8  UNL     1     -25.730   3.663 -39.595  0.00  0.00    +0.000 A 
ATOM     12  C9  UNL     1     -25.518   2.798 -38.526  0.00  0.00    +0.000 A 
ATOM     13  C10 UNL     1     -26.608   2.263 -37.846  0.00  0.00    +0.000 A 
ATOM     14  C11 UNL     1     -27.909   2.599 -38.231  0.00  0.00    +0.000 A 
ENDBRANCH   5   9
TORSDOF 1
ENDMDL
MODEL 3
REMARK VINA RESULT:    -4.525      1.668      2.796
REMARK INTER + INTRA:          -5.111
REMARK INTER:                  -4.776
REMARK INTRA:                  -0.335
REMARK UNBOUND:                -0.322
REMARK  Name = /home/anacleto/Desktop/manuscript_Mpro/naturecomm/supplementary_file_S2/6-chemical-library/molecular_docking/3D_ligand_structure/892.pdb
REMARK  1 active torsions:
REMARK  status: ('A' for Active; 'I' for Inactive)
REMARK    1  A    between atoms: N1_5  and  C6_9
REMARK                            x       y       z     vdW  Elec       q    Type
REMARK                         _______ _______ _______ _____ _____    ______ ____
ROOT
ATOM      1  C1  UNL     1     -32.098   5.061 -40.874  0.00  0.00    +0.000 C 
ATOM      2  C2  UNL     1     -31.224   4.054 -40.787  0.00  0.00    +0.000 A 
ATOM      3  C3  UNL     1     -29.878   4.194 -40.160  0.00  0.00    +0.000 A 
ATOM      4  O1  UNL     1     -29.513   5.239 -39.636  0.00  0.00    +0.000 OA
ATOM      5  N1  UNL     1     -29.196   2.966 -40.251  0.00  0.00    +0.000 N 
ATOM      6  C4  UNL     1     -29.905   1.978 -40.929  0.00  0.00    +0.000 A 
ATOM      7  S1  UNL     1     -31.518   2.464 -41.359  0.00  0.00    +0.000 S 
ATOM      8  C5  UNL     1     -29.444   0.793 -41.346  0.00  0.00    +0.000 C 
ENDROOT
BRANCH   5   9
ATOM      9  C6  UNL     1     -27.908   2.818 -39.636  0.00  0.00    +0.000 A 
ATOM     10  C7  UNL     1     -27.787   2.426 -38.293  0.00  0.00    +0.000 A 
ATOM     11  C8  UNL     1     -26.533   2.286 -37.689  0.00  0.00    +0.000 A 
ATOM     12  C9  UNL     1     -25.376   2.544 -38.418  0.00  0.00    +0.000 A 
ATOM     13  C10 UNL     1     -25.474   2.950 -39.745  0.00  0.00    +0.000 A 
ATOM     14  C11 UNL     1     -26.729   3.091 -40.345  0.00  0.00    +0.000 A 
ENDBRANCH   5   9
TORSDOF 1
ENDMDL
MODEL 4
REMARK VINA RESULT:    -4.506      8.662     10.948
REMARK INTER + INTRA:          -5.091
REMARK INTER:                  -4.813
REMARK INTRA:                  -0.278
REMARK UNBOUND:                -0.322
REMARK  Name = /home/anacleto/Desktop/manuscript_Mpro/naturecomm/supplementary_file_S2/6-chemical-library/molecular_docking/3D_ligand_structure/892.pdb
REMARK  1 active torsions:
REMARK  status: ('A' for Active; 'I' for Inactive)
REMARK    1  A    between atoms: N1_5  and  C6_9
REMARK                            x       y       z     vdW  Elec       q    Type
REMARK                         _______ _______ _______ _____ _____    ______ ____
ROOT
ATOM      1  C1  UNL     1     -18.243  10.732 -38.300  0.00  0.00    +0.000 C 
ATOM      2  C2  UNL     1     -18.711   9.590 -38.812  0.00  0.00    +0.000 A 
ATOM      3  C3  UNL     1     -20.036   9.013 -38.444  0.00  0.00    +0.000 A 
ATOM      4  O1  UNL     1     -20.803   9.587 -37.681  0.00  0.00    +0.000 OA
ATOM      5  N1  UNL     1     -20.218   7.799 -39.132  0.00  0.00    +0.000 N 
ATOM      6  C4  UNL     1     -19.129   7.428 -39.916  0.00  0.00    +0.000 A 
ATOM      7  S1  UNL     1     -17.878   8.634 -39.968  0.00  0.00    +0.000 S 
ATOM      8  C5  UNL     1     -18.927   6.248 -40.515  0.00  0.00    +0.000 C 
ENDROOT
BRANCH   5   9
ATOM      9  C6  UNL     1     -21.461   7.092 -39.015  0.00  0.00    +0.000 A 
ATOM     10  C7  UNL     1     -21.753   6.323 -37.877  0.00  0.00    +0.000 A 
ATOM     11  C8  UNL     1     -22.963   5.630 -37.761  0.00  0.00    +0.000 A 
ATOM     12  C9  UNL     1     -23.900   5.688 -38.788  0.00  0.00    +0.000 A 
ATOM     13  C10 UNL     1     -23.624   6.430 -39.932  0.00  0.00    +0.000 A 
ATOM     14  C11 UNL     1     -22.413   7.121 -40.045  0.00  0.00    +0.000 A 
ENDBRANCH   5   9
TORSDOF 1
ENDMDL
MODEL 5
REMARK VINA RESULT:    -4.429      5.529      7.445
REMARK INTER + INTRA:          -5.009
REMARK INTER:                  -4.669
REMARK INTRA:                  -0.340
REMARK UNBOUND:                -0.322
REMARK  Name = /home/anacleto/Desktop/manuscript_Mpro/naturecomm/supplementary_file_S2/6-chemical-library/molecular_docking/3D_ligand_structure/892.pdb
REMARK  1 active torsions:
REMARK  status: ('A' for Active; 'I' for Inactive)
REMARK    1  A    between atoms: N1_5  and  C6_9
REMARK                            x       y       z     vdW  Elec       q    Type
REMARK                         _______ _______ _______ _____ _____    ______ ____
ROOT
ATOM      1  C1  UNL     1     -25.105  10.016 -38.021  0.00  0.00    +0.000 C 
ATOM      2  C2  UNL     1     -24.464   8.856 -38.197  0.00  0.00    +0.000 A 
ATOM      3  C3  UNL     1     -25.133   7.623 -38.702  0.00  0.00    +0.000 A 
ATOM      4  O1  UNL     1     -26.311   7.616 -39.038  0.00  0.00    +0.000 OA
ATOM      5  N1  UNL     1     -24.195   6.575 -38.748  0.00  0.00    +0.000 N 
ATOM      6  C4  UNL     1     -22.934   6.928 -38.276  0.00  0.00    +0.000 A 
ATOM      7  S1  UNL     1     -22.793   8.617 -37.890  0.00  0.00    +0.000 S 
ATOM      8  C5  UNL     1     -21.910   6.107 -38.009  0.00  0.00    +0.000 C 
ENDROOT
BRANCH   5   9
ATOM      9  C6  UNL     1     -24.575   5.301 -39.289  0.00  0.00    +0.000 A 
ATOM     10  C7  UNL     1     -25.139   4.307 -38.473  0.00  0.00    +0.000 A 
ATOM     11  C8  UNL     1     -25.506   3.062 -38.996  0.00  0.00    +0.000 A 
ATOM     12  C9  UNL     1     -25.309   2.788 -40.345  0.00  0.00    +0.000 A 
ATOM     13  C10 UNL     1     -24.737   3.753 -41.168  0.00  0.00    +0.000 A 
ATOM     14  C11 UNL     1     -24.368   4.995 -40.642  0.00  0.00    +0.000 A 
ENDBRANCH   5   9
TORSDOF 1
ENDMDL
MODEL 6
REMARK VINA RESULT:    -4.405      4.589      6.625
REMARK INTER + INTRA:          -4.984
REMARK INTER:                  -4.660
REMARK INTRA:                  -0.323
REMARK UNBOUND:                -0.322
REMARK  Name = /home/anacleto/Desktop/manuscript_Mpro/naturecomm/supplementary_file_S2/6-chemical-library/molecular_docking/3D_ligand_structure/892.pdb
REMARK  1 active torsions:
REMARK  status: ('A' for Active; 'I' for Inactive)
REMARK    1  A    between atoms: N1_5  and  C6_9
REMARK                            x       y       z     vdW  Elec       q    Type
REMARK                         _______ _______ _______ _____ _____    ______ ____
ROOT
ATOM      1  C1  UNL     1     -21.585   7.095 -38.893  0.00  0.00    +0.000 C 
ATOM      2  C2  UNL     1     -22.595   6.443 -39.477  0.00  0.00    +0.000 A 
ATOM      3  C3  UNL     1     -23.622   5.678 -38.713  0.00  0.00    +0.000 A 
ATOM      4  O1  UNL     1     -23.628   5.645 -37.489  0.00  0.00    +0.000 OA
ATOM      5  N1  UNL     1     -24.527   5.090 -39.617  0.00  0.00    +0.000 N 
ATOM      6  C4  UNL     1     -24.215   5.320 -40.954  0.00  0.00    +0.000 A 
ATOM      7  S1  UNL     1     -22.872   6.403 -41.169  0.00  0.00    +0.000 S 
ATOM      8  C5  UNL     1     -24.761   4.732 -42.026  0.00  0.00    +0.000 C 
ENDROOT
BRANCH   5   9
ATOM      9  C6  UNL     1     -25.666   4.372 -39.120  0.00  0.00    +0.000 A 
ATOM     10  C7  UNL     1     -25.560   3.029 -38.727  0.00  0.00    +0.000 A 
ATOM     11  C8  UNL     1     -26.670   2.325 -38.247  0.00  0.00    +0.000 A 
ATOM     12  C9  UNL     1     -27.908   2.953 -38.159  0.00  0.00    +0.000 A 
ATOM     13  C10 UNL     1     -28.039   4.279 -38.559  0.00  0.00    +0.000 A 
ATOM     14  C11 UNL     1     -26.928   4.979 -39.041  0.00  0.00    +0.000 A 
ENDBRANCH   5   9
TORSDOF 1
ENDMDL
MODEL 7
REMARK VINA RESULT:    -4.381      4.154      5.219
REMARK INTER + INTRA:          -4.959
REMARK INTER:                  -4.726
REMARK INTRA:                  -0.234
REMARK UNBOUND:                -0.322
REMARK  Name = /home/anacleto/Desktop/manuscript_Mpro/naturecomm/supplementary_file_S2/6-chemical-library/molecular_docking/3D_ligand_structure/892.pdb
REMARK  1 active torsions:
REMARK  status: ('A' for Active; 'I' for Inactive)
REMARK    1  A    between atoms: N1_5  and  C6_9
REMARK                            x       y       z     vdW  Elec       q    Type
REMARK                         _______ _______ _______ _____ _____    ______ ____
ROOT
ATOM      1  C1  UNL     1     -27.792   2.483 -38.565  0.00  0.00    +0.000 C 
ATOM      2  C2  UNL     1     -27.235   3.677 -38.786  0.00  0.00    +0.000 A 
ATOM      3  C3  UNL     1     -25.766   3.920 -38.708  0.00  0.00    +0.000 A 
ATOM      4  O1  UNL     1     -24.971   3.015 -38.485  0.00  0.00    +0.000 OA
ATOM      5  N1  UNL     1     -25.508   5.279 -38.966  0.00  0.00    +0.000 N 
ATOM      6  C4  UNL     1     -26.655   6.040 -39.169  0.00  0.00    +0.000 A 
ATOM      7  S1  UNL     1     -28.111   5.091 -39.205  0.00  0.00    +0.000 S 
ATOM      8  C5  UNL     1     -26.741   7.375 -39.231  0.00  0.00    +0.000 C 
ENDROOT
BRANCH   5   9
ATOM      9  C6  UNL     1     -24.153   5.746 -39.038  0.00  0.00    +0.000 A 
ATOM     10  C7  UNL     1     -23.559   6.060 -40.271  0.00  0.00    +0.000 A 
ATOM     11  C8  UNL     1     -22.237   6.511 -40.345  0.00  0.00    +0.000 A 
ATOM     12  C9  UNL     1     -21.482   6.648 -39.184  0.00  0.00    +0.000 A 
ATOM     13  C10 UNL     1     -22.045   6.326 -37.953  0.00  0.00    +0.000 A 
ATOM     14  C11 UNL     1     -23.367   5.873 -37.883  0.00  0.00    +0.000 A 
ENDBRANCH   5   9
TORSDOF 1
ENDMDL
MODEL 8
REMARK VINA RESULT:    -4.337      4.157      5.579
REMARK INTER + INTRA:          -4.912
REMARK INTER:                  -4.606
REMARK INTRA:                  -0.306
REMARK UNBOUND:                -0.322
REMARK  Name = /home/anacleto/Desktop/manuscript_Mpro/naturecomm/supplementary_file_S2/6-chemical-library/molecular_docking/3D_ligand_structure/892.pdb
REMARK  1 active torsions:
REMARK  status: ('A' for Active; 'I' for Inactive)
REMARK    1  A    between atoms: N1_5  and  C6_9
REMARK                            x       y       z     vdW  Elec       q    Type
REMARK                         _______ _______ _______ _____ _____    ______ ____
ROOT
ATOM      1  C1  UNL     1     -29.319   5.945 -38.879  0.00  0.00    +0.000 C 
ATOM      2  C2  UNL     1     -28.133   5.329 -38.921  0.00  0.00    +0.000 A 
ATOM      3  C3  UNL     1     -26.838   6.060 -39.034  0.00  0.00    +0.000 A 
ATOM      4  O1  UNL     1     -26.783   7.284 -39.043  0.00  0.00    +0.000 OA
ATOM      5  N1  UNL     1     -25.784   5.128 -39.079  0.00  0.00    +0.000 N 
ATOM      6  C4  UNL     1     -26.206   3.802 -39.061  0.00  0.00    +0.000 A 
ATOM      7  S1  UNL     1     -27.921   3.629 -38.833  0.00  0.00    +0.000 S 
ATOM      8  C5  UNL     1     -25.463   2.713 -39.295  0.00  0.00    +0.000 C 
ENDROOT
BRANCH   5   9
ATOM      9  C6  UNL     1     -24.425   5.589 -39.097  0.00  0.00    +0.000 A 
ATOM     10  C7  UNL     1     -23.657   5.624 -37.922  0.00  0.00    +0.000 A 
ATOM     11  C8  UNL     1     -22.333   6.077 -37.935  0.00  0.00    +0.000 A 
ATOM     12  C9  UNL     1     -21.757   6.512 -39.125  0.00  0.00    +0.000 A 
ATOM     13  C10 UNL     1     -22.507   6.501 -40.297  0.00  0.00    +0.000 A 
ATOM     14  C11 UNL     1     -23.830   6.049 -40.281  0.00  0.00    +0.000 A 
ENDBRANCH   5   9
TORSDOF 1
ENDMDL
MODEL 9
REMARK VINA RESULT:    -4.131     14.830     16.682
REMARK INTER + INTRA:          -4.695
REMARK INTER:                  -4.373
REMARK INTRA:                  -0.322
REMARK UNBOUND:                -0.322
REMARK  Name = /home/anacleto/Desktop/manuscript_Mpro/naturecomm/supplementary_file_S2/6-chemical-library/molecular_docking/3D_ligand_structure/892.pdb
REMARK  1 active torsions:
REMARK  status: ('A' for Active; 'I' for Inactive)
REMARK    1  A    between atoms: N1_5  and  C6_9
REMARK                            x       y       z     vdW  Elec       q    Type
REMARK                         _______ _______ _______ _____ _____    ______ ____
ROOT
ATOM      1  C1  UNL     1     -23.799  -4.885 -29.994  0.00  0.00    +0.000 C 
ATOM      2  C2  UNL     1     -24.329  -4.895 -28.767  0.00  0.00    +0.000 A 
ATOM      3  C3  UNL     1     -23.559  -4.529 -27.544  0.00  0.00    +0.000 A 
ATOM      4  O1  UNL     1     -22.397  -4.144 -27.600  0.00  0.00    +0.000 OA
ATOM      5  N1  UNL     1     -24.390  -4.666 -26.416  0.00  0.00    +0.000 N 
ATOM      6  C4  UNL     1     -25.664  -5.143 -26.713  0.00  0.00    +0.000 A 
ATOM      7  S1  UNL     1     -25.957  -5.306 -28.418  0.00  0.00    +0.000 S 
ATOM      8  C5  UNL     1     -26.593  -5.564 -25.845  0.00  0.00    +0.000 C 
ENDROOT
BRANCH   5   9
ATOM      9  C6  UNL     1     -23.904  -4.284 -25.121  0.00  0.00    +0.000 A 
ATOM     10  C7  UNL     1     -24.192  -3.020 -24.583  0.00  0.00    +0.000 A 
ATOM     11  C8  UNL     1     -23.715  -2.643 -23.323  0.00  0.00    +0.000 A 
ATOM     12  C9  UNL     1     -22.934  -3.524 -22.581  0.00  0.00    +0.000 A 
ATOM     13  C10 UNL     1     -22.623  -4.776 -23.103  0.00  0.00    +0.000 A 
ATOM     14  C11 UNL     1     -23.100  -5.149 -24.364  0.00  0.00    +0.000 A 
ENDBRANCH   5   9
TORSDOF 1
ENDMDL
